<event>
 8    1  0.6906553E-009  0.1669577E+03  0.7561462E-02  0.1181058E+00
          2   -1    0    0  501    0  0.00000000000E+00  0.00000000000E+00  0.16966674044E+04  0.16966674044E+04  0.00000000000E+00 0. -1.
         -2   -1    0    0    0  501 -0.00000000000E+00 -0.00000000000E+00 -0.17418274967E+02  0.17418274967E+02  0.00000000000E+00 0.  1.
         25    2    1    2    0    0 -0.11693627305E+03  0.55462179192E+02  0.10387148080E+04  0.10541930727E+04  0.12507772275E+03 0.  0.
         23    2    1    2    0    0  0.11693627305E+03 -0.55462179192E+02  0.64053432144E+03  0.65989260675E+03  0.91781753248E+02 0.  0.
          5    1    3    3  502    0  0.10964917922E+01  0.57593348097E+02  0.24369483793E+03  0.25044528838E+03  0.41800000000E+01 0. -1.
         -5    1    3    3    0  502 -0.11803276485E+03 -0.21311689044E+01  0.79501997011E+03  0.80374778428E+03  0.41800000000E+01 0. -1.
        -11    1    4    4    0    0  0.45122125846E+02 -0.71409315098E+02  0.37148050163E+03  0.38096333106E+03  0.00000000000E+00 0. -1.
         11    1    4    4    0    0  0.71814147208E+02  0.15947135906E+02  0.26905381981E+03  0.27892927569E+03  0.00000000000E+00 0.  1.
</event>
<event>
 8    1  0.6906553E-009  0.1974462E+03  0.7561462E-02  0.1151912E+00
          1   -1    0    0  501    0  0.00000000000E+00  0.00000000000E+00  0.13253629064E+04  0.13253629064E+04  0.00000000000E+00 0. -1.
         -1   -1    0    0    0  501 -0.00000000000E+00 -0.00000000000E+00 -0.33490887020E+02  0.33490887020E+02  0.00000000000E+00 0.  1.
         25    2    1    2    0    0 -0.16926184895E+03 -0.98333661466E+00  0.86983337736E+03  0.89493470623E+03  0.12508990195E+03 0.  0.
         23    2    1    2    0    0  0.16926184895E+03  0.98333661466E+00  0.42203864205E+03  0.46391908722E+03  0.91944350813E+02 0.  0.
          5    1    3    3  502    0 -0.17726581269E+03  0.24621286039E+02  0.80465032978E+03  0.82432335991E+03  0.41800000000E+01 0.  1.
         -5    1    3    3    0  502  0.80039637349E+01 -0.25604622653E+02  0.65183047585E+02  0.70611346321E+02  0.41800000000E+01 0.  1.
        -11    1    4    4    0    0  0.33334765386E+02  0.35281387966E+02  0.71809718123E+02  0.86675362918E+02  0.00000000000E+00 0.  1.
         11    1    4    4    0    0  0.13592708357E+03 -0.34298051352E+02  0.35022892392E+03  0.37724372430E+03  0.00000000000E+00 0. -1.
</event>
<event>
 8    1  0.6906553E-009  0.7945760E+02  0.7561462E-02  0.1330598E+00
          2   -1    0    0  501    0  0.00000000000E+00  0.00000000000E+00  0.90671446555E+02  0.90671446555E+02  0.00000000000E+00 0. -1.
         -2   -1    0    0    0  501 -0.00000000000E+00 -0.00000000000E+00 -0.13477681540E+03  0.13477681540E+03  0.00000000000E+00 0.  1.
         25    2    1    2    0    0  0.18460459336E+02 -0.91368706176E+01 -0.30832496508E+02  0.13047173842E+03  0.12509180917E+03 0.  0.
         23    2    1    2    0    0 -0.18460459336E+02  0.91368706176E+01 -0.13272872338E+02  0.94976523541E+02  0.91761102436E+02 0.  0.
          5    1    3    3  502    0  0.70443986086E+02  0.90997041497E+01 -0.22326834600E+02  0.74572915556E+02  0.41800000000E+01 0.  1.
         -5    1    3    3    0  502 -0.51983526750E+02 -0.18236574767E+02 -0.85056619078E+01  0.55898822860E+02  0.41800000000E+01 0.  1.
        -11    1    4    4    0    0 -0.78674783304E+01  0.17389795666E+02  0.37704436210E+02  0.42260226201E+02  0.00000000000E+00 0. -1.
         11    1    4    4    0    0 -0.10592981006E+02 -0.82529250487E+01 -0.50977308548E+02  0.52716297340E+02  0.00000000000E+00 0.  1.
</event>
<event>
 8    1  0.6906553E-009  0.1141604E+03  0.7561462E-02  0.1253054E+00
          2   -1    0    0  501    0  0.00000000000E+00  0.00000000000E+00  0.12251947637E+04  0.12251947637E+04  0.00000000000E+00 0. -1.
         -2   -1    0    0    0  501 -0.00000000000E+00 -0.00000000000E+00 -0.14511551530E+02  0.14511551530E+02  0.00000000000E+00 0.  1.
         25    2    1    2    0    0  0.19560506550E+02  0.61682035855E+02  0.82108706568E+03  0.83307783844E+03  0.12508968186E+03 0.  0.
         23    2    1    2    0    0 -0.19560506550E+02 -0.61682035855E+02  0.38959614648E+03  0.40662847678E+03  0.96820833573E+02 0.  0.
          5    1    3    3  502    0 -0.44445132896E+02  0.16673832861E+02  0.51200783302E+03  0.51422065304E+03  0.41800000000E+01 0.  1.
         -5    1    3    3    0  502  0.64005639446E+02  0.45008202994E+02  0.30907923266E+03  0.31885718539E+03  0.41800000000E+01 0.  1.
        -11    1    4    4    0    0  0.25371975418E+02  0.75771345636E+00  0.31965378990E+02  0.40817848060E+02  0.00000000000E+00 0.  1.
         11    1    4    4    0    0 -0.44932481968E+02 -0.62439749312E+02  0.35763076749E+03  0.36581062872E+03  0.00000000000E+00 0. -1.
</event>
<event>
 8    1  0.6906553E-009  0.1171899E+03  0.7561462E-02  0.1247806E+00
          2   -1    0    0  501    0  0.00000000000E+00  0.00000000000E+00  0.20305948706E+04  0.20305948706E+04  0.00000000000E+00 0. -1.
         -2   -1    0    0    0  501 -0.00000000000E+00 -0.00000000000E+00 -0.11681460498E+02  0.11681460498E+02  0.00000000000E+00 0.  1.
         25    2    1    2    0    0  0.67964011785E+02 -0.14750349718E+02  0.16369229483E+04  0.16431679225E+04  0.12508958089E+03 0.  0.
         23    2    1    2    0    0 -0.67964011785E+02  0.14750349718E+02  0.38199046177E+03  0.39910840853E+03  0.92380350536E+02 0.  0.
          5    1    3    3  502    0  0.95503107619E+02 -0.13173082691E+02  0.15160082603E+04  0.15190763284E+04  0.41800000000E+01 0. -1.
         -5    1    3    3    0  502 -0.27539095834E+02 -0.15772670270E+01  0.12091468797E+03  0.12409159415E+03  0.41800000000E+01 0. -1.
        -11    1    4    4    0    0 -0.88141882048E+02  0.71890104557E+01  0.34633625700E+03  0.35744856435E+03  0.00000000000E+00 0. -1.
         11    1    4    4    0    0  0.20177870263E+02  0.75613392620E+01  0.35654204768E+02  0.41659844184E+02  0.00000000000E+00 0.  1.
</event>
<event>
 8    1  0.6906553E-009  0.1280771E+03  0.7561462E-02  0.1230337E+00
         -2   -1    0    0    0  501 -0.00000000000E+00  0.00000000000E+00  0.54950002188E+02  0.54950002188E+02  0.00000000000E+00 0.  1.
          2   -1    0    0  501    0  0.00000000000E+00 -0.00000000000E+00 -0.48757663389E+03  0.48757663389E+03  0.00000000000E+00 0. -1.
         25    2    1    2    0    0  0.11323705130E+03  0.17552400690E+02 -0.30136478587E+03  0.34582974775E+03  0.12508702455E+03 0.  0.
         23    2    1    2    0    0 -0.11323705130E+03 -0.17552400690E+02 -0.13126184584E+03  0.19669688833E+03  0.91264873574E+02 0.  0.
          5    1    3    3  502    0 -0.13613084291E+01 -0.19833362243E+02  0.95535226653E+00  0.20337170808E+02  0.41800000000E+01 0.  1.
         -5    1    3    3    0  502  0.11459835973E+03  0.37385762934E+02 -0.30232013814E+03  0.32549257694E+03  0.41800000000E+01 0.  1.
        -11    1    4    4    0    0 -0.14170382491E+02 -0.63450261998E+01  0.13736243371E+02  0.20730255168E+02  0.00000000000E+00 0.  1.
         11    1    4    4    0    0 -0.99066668811E+02 -0.11207374491E+02 -0.14499808921E+03  0.17596663316E+03  0.00000000000E+00 0. -1.
</event>
<event>
 8    1  0.6906553E-009  0.1566174E+03  0.7561462E-02  0.1192569E+00
          2   -1    0    0  501    0  0.00000000000E+00  0.00000000000E+00  0.40509984084E+03  0.40509984084E+03  0.00000000000E+00 0. -1.
         -2   -1    0    0    0  501 -0.00000000000E+00 -0.00000000000E+00 -0.66598829595E+02  0.66598829595E+02  0.00000000000E+00 0.  1.
         25    2    1    2    0    0  0.11789946219E+03  0.37668555971E+02  0.18480796314E+03  0.25518481036E+03  0.12508437515E+03 0.  0.
         23    2    1    2    0    0 -0.11789946219E+03 -0.37668555971E+02  0.15369304811E+03  0.21651386008E+03  0.89092621872E+02 0.  0.
          5    1    3    3  502    0  0.11540395697E+03 -0.20535627974E+02  0.11660854016E+03  0.16539289386E+03  0.41800000000E+01 0. -1.
         -5    1    3    3    0  502  0.24955052228E+01  0.58204183945E+02  0.68199422979E+02  0.89791916505E+02  0.41800000000E+01 0. -1.
        -11    1    4    4    0    0 -0.22053566829E+02 -0.35346304109E+02  0.84957923949E+01  0.42519401600E+02  0.00000000000E+00 0.  1.
         11    1    4    4    0    0 -0.95845895366E+02 -0.23222518624E+01  0.14519725572E+03  0.17399445848E+03  0.00000000000E+00 0. -1.
</event>
<event>
 8    1  0.6906553E-009  0.1744698E+03  0.7561462E-02  0.1173265E+00
          1   -1    0    0  501    0  0.00000000000E+00  0.00000000000E+00  0.80935514159E+02  0.80935514159E+02  0.00000000000E+00 0. -1.
         -1   -1    0    0    0  501 -0.00000000000E+00 -0.00000000000E+00 -0.39988788773E+03  0.39988788773E+03  0.00000000000E+00 0.  1.
         25    2    1    2    0    0 -0.10271674251E+03 -0.89331252311E+02 -0.22610007446E+03  0.29206128838E+03  0.12509096959E+03 0.  0.
         23    2    1    2    0    0  0.10271674251E+03  0.89331252311E+02 -0.92852299116E+02  0.18876211351E+03  0.92080313933E+02 0.  0.
          5    1    3    3  502    0 -0.11088187231E+03 -0.17378068045E+02 -0.13974740566E+03  0.17928635376E+03  0.41800000000E+01 0.  1.
         -5    1    3    3    0  502  0.81651298045E+01 -0.71953184265E+02 -0.86352668792E+02  0.11277493462E+03  0.41800000000E+01 0.  1.
        -11    1    4    4    0    0  0.52671775238E+01  0.62900254101E+02 -0.40866449977E+02  0.75194759517E+02  0.00000000000E+00 0.  1.
         11    1    4    4    0    0  0.97449564983E+02  0.26430998210E+02 -0.51985849139E+02  0.11356735399E+03  0.00000000000E+00 0. -1.
</event>
<event>
 8    1  0.6906553E-009  0.7348347E+02  0.7561462E-02  0.1348633E+00
         -3   -1    0    0    0  501 -0.00000000000E+00  0.00000000000E+00  0.21445753811E+03  0.21445753811E+03  0.00000000000E+00 0.  1.
          3   -1    0    0  501    0  0.00000000000E+00 -0.00000000000E+00 -0.99158038217E+02  0.99158038217E+02  0.00000000000E+00 0. -1.
         25    2    1    2    0    0  0.41580742474E+02  0.22149716125E+02  0.15469837510E+03  0.20444672972E+03  0.12508920802E+03 0.  0.
         23    2    1    2    0    0 -0.41580742474E+02 -0.22149716125E+02 -0.39398875211E+02  0.10916884661E+03  0.90255180645E+02 0.  0.
          5    1    3    3  502    0  0.15743958582E+02  0.25174576291E+02  0.17090420438E+03  0.17351469966E+03  0.41800000000E+01 0.  1.
         -5    1    3    3    0  502  0.25836783892E+02 -0.30248601653E+01 -0.16205829276E+02  0.30932030057E+02  0.41800000000E+01 0.  1.
        -11    1    4    4    0    0  0.72992352969E+01 -0.38428446079E+02  0.71163986299E+01  0.39757608498E+02  0.00000000000E+00 0.  1.
         11    1    4    4    0    0 -0.48879977771E+02  0.16278729954E+02 -0.46515273841E+02  0.69411238113E+02  0.00000000000E+00 0. -1.
</event>
<event>
 8    1  0.6906553E-009  0.9598198E+02  0.7561462E-02  0.1288980E+00
          2   -1    0    0  501    0  0.00000000000E+00  0.00000000000E+00  0.63623774309E+02  0.63623774309E+02  0.00000000000E+00 0. -1.
         -2   -1    0    0    0  501 -0.00000000000E+00 -0.00000000000E+00 -0.26423710811E+03  0.26423710811E+03  0.00000000000E+00 0.  1.
         25    2    1    2    0    0 -0.53753470459E+02 -0.30277060126E+02 -0.69890181177E+02  0.15600617103E+03  0.12508857669E+03 0.  0.
         23    2    1    2    0    0  0.53753470459E+02  0.30277060126E+02 -0.13072315262E+03  0.17185471139E+03  0.92948175017E+02 0.  0.
          5    1    3    3  502    0 -0.38939525582E+01  0.36346729100E+02 -0.62284536696E+02  0.72340054563E+02  0.41800000000E+01 0. -1.
         -5    1    3    3    0  502 -0.49859517900E+02 -0.66623789227E+02 -0.76056444818E+01  0.83666116464E+02  0.41800000000E+01 0. -1.
        -11    1    4    4    0    0  0.36847408254E+02  0.38292157082E+02 -0.14087732323E+03  0.15056706476E+03  0.00000000000E+00 0.  1.
         11    1    4    4    0    0  0.16906062205E+02 -0.80150969552E+01  0.10154170607E+02  0.21287646634E+02  0.00000000000E+00 0. -1.
</event>
<event>
 8    1  0.6906553E-009  0.1569045E+03  0.7561462E-02  0.1192237E+00
          2   -1    0    0  501    0  0.00000000000E+00  0.00000000000E+00  0.27066238363E+03  0.27066238363E+03  0.00000000000E+00 0. -1.
         -2   -1    0    0    0  501 -0.00000000000E+00 -0.00000000000E+00 -0.10438086423E+03  0.10438086423E+03  0.00000000000E+00 0.  1.
         25    2    1    2    0    0  0.89921125479E+02  0.79264644751E+02  0.13900771899E+03  0.22212381571E+03  0.12508857202E+03 0.  0.
         23    2    1    2    0    0 -0.89921125479E+02 -0.79264644751E+02  0.27273800415E+02  0.15291943215E+03  0.90949435542E+02 0.  0.
          5    1    3    3  502    0  0.10713155083E+03  0.17355408199E+02  0.92976063916E+02  0.14296992774E+03  0.41800000000E+01 0. -1.
         -5    1    3    3    0  502 -0.17210425351E+02  0.61909236552E+02  0.46031655075E+02  0.79153887966E+02  0.41800000000E+01 0. -1.
        -11    1    4    4    0    0 -0.75380125368E+02 -0.17540810785E+02  0.41660435649E+02  0.87894455127E+02  0.00000000000E+00 0. -1.
         11    1    4    4    0    0 -0.14541000111E+02 -0.61723833966E+02 -0.14386635234E+02  0.65024977025E+02  0.00000000000E+00 0.  1.
</event>
<event>
 8    1  0.6906553E-009  0.1169261E+03  0.7561462E-02  0.1248256E+00
          1   -1    0    0  501    0  0.00000000000E+00  0.00000000000E+00  0.37622787237E+03  0.37622787237E+03  0.00000000000E+00 0. -1.
         -1   -1    0    0    0  501 -0.00000000000E+00 -0.00000000000E+00 -0.45885826196E+02  0.45885826196E+02  0.00000000000E+00 0.  1.
         25    2    1    2    0    0  0.46010917076E+02  0.13284949539E+02  0.27321995630E+03  0.30428657765E+03  0.12509069686E+03 0.  0.
         23    2    1    2    0    0 -0.46010917076E+02 -0.13284949539E+02  0.57122089872E+02  0.11782712092E+03  0.91251317240E+02 0.  0.
          5    1    3    3  502    0  0.21619685799E+02 -0.54891005260E+02  0.95418833106E+02  0.11226156681E+03  0.41800000000E+01 0. -1.
         -5    1    3    3    0  502  0.24391231277E+02  0.68175954799E+02  0.17780112320E+03  0.19202501083E+03  0.41800000000E+01 0. -1.
        -11    1    4    4    0    0 -0.87560939928E+00 -0.46269234449E+02  0.33539807913E+02  0.57153542875E+02  0.00000000000E+00 0. -1.
         11    1    4    4    0    0 -0.45135307677E+02  0.32984284910E+02  0.23582281959E+02  0.60673578043E+02  0.00000000000E+00 0.  1.
</event>
<event>
 8    1  0.6906553E-009  0.1624250E+03  0.7561462E-02  0.1185986E+00
         -1   -1    0    0    0  501 -0.00000000000E+00  0.00000000000E+00  0.16946568248E+03  0.16946568248E+03  0.00000000000E+00 0.  1.
          1   -1    0    0  501    0  0.00000000000E+00 -0.00000000000E+00 -0.22510558276E+03  0.22510558276E+03  0.00000000000E+00 0. -1.
         25    2    1    2    0    0 -0.63593232565E+02  0.14326282701E+03 -0.71177532663E+02  0.21279592194E+03  0.12509007319E+03 0.  0.
         23    2    1    2    0    0  0.63593232565E+02 -0.14326282701E+03  0.15537632378E+02  0.18177534330E+03  0.90733238565E+02 0.  0.
          5    1    3    3  502    0 -0.13589195329E+02  0.60775892024E+02  0.33128138008E+02  0.70663436153E+02  0.41800000000E+01 0.  1.
         -5    1    3    3    0  502 -0.50004037236E+02  0.82486934985E+02 -0.10430567067E+03  0.14213248579E+03  0.41800000000E+01 0.  1.
        -11    1    4    4    0    0 -0.45081005572E+01 -0.51050222852E+02 -0.28892643610E+02  0.58832245229E+02  0.00000000000E+00 0. -1.
         11    1    4    4    0    0  0.68101333123E+02 -0.92212604157E+02  0.44430275989E+02  0.12294309807E+03  0.00000000000E+00 0.  1.
</event>
<event>
 8    1  0.6906553E-009  0.4026893E+03  0.7561462E-02  0.1042852E+00
          2   -1    0    0  501    0  0.00000000000E+00  0.00000000000E+00  0.10120442992E+04  0.10120442992E+04  0.00000000000E+00 0. -1.
         -2   -1    0    0    0  501 -0.00000000000E+00 -0.00000000000E+00 -0.18146497308E+03  0.18146497308E+03  0.00000000000E+00 0.  1.
         25    2    1    2    0    0 -0.30209191918E+03  0.24854802694E+03  0.60602211461E+03  0.73208318027E+03  0.12508928858E+03 0.  0.
         23    2    1    2    0    0  0.30209191918E+03 -0.24854802694E+03  0.22455721154E+03  0.46142609204E+03  0.97223699936E+02 0.  0.
          5    1    3    3  502    0 -0.53119278723E+02  0.10514020659E+03  0.23396920240E+03  0.26198316909E+03  0.41800000000E+01 0.  1.
         -5    1    3    3    0  502 -0.24897264046E+03  0.14340782035E+03  0.37205291220E+03  0.47010001118E+03  0.41800000000E+01 0.  1.
        -11    1    4    4    0    0  0.17175807426E+03 -0.19333445120E+03  0.11802467010E+03  0.28426900789E+03  0.00000000000E+00 0.  1.
         11    1    4    4    0    0  0.13033384492E+03 -0.55213575737E+02  0.10653254144E+03  0.17715708415E+03  0.00000000000E+00 0. -1.
</event>
<event>
 8    1  0.6906553E-009  0.1679576E+03  0.7561462E-02  0.1179995E+00
          1   -1    0    0  501    0  0.00000000000E+00  0.00000000000E+00  0.20327224613E+03  0.20327224613E+03  0.00000000000E+00 0. -1.
         -1   -1    0    0    0  501 -0.00000000000E+00 -0.00000000000E+00 -0.15038084202E+03  0.15038084202E+03  0.00000000000E+00 0.  1.
         25    2    1    2    0    0  0.13187134279E+03  0.21029363460E+02 -0.16434093324E+01  0.18298278262E+03  0.12509081807E+03 0.  0.
         23    2    1    2    0    0 -0.13187134279E+03 -0.21029363460E+02  0.54534813443E+02  0.17067030553E+03  0.91225117905E+02 0.  0.
          5    1    3    3  502    0  0.89508598553E+02 -0.42703713013E+02 -0.25916205083E+02  0.10258907547E+03  0.41800000000E+01 0. -1.
         -5    1    3    3    0  502  0.42362744234E+02  0.63733076473E+02  0.24272795751E+02  0.80393707150E+02  0.41800000000E+01 0. -1.
        -11    1    4    4    0    0 -0.67778776309E+02  0.33733749522E+02  0.38197709234E+02  0.84799725032E+02  0.00000000000E+00 0.  1.
         11    1    4    4    0    0 -0.64092566477E+02 -0.54763112982E+02  0.16337104209E+02  0.85870580498E+02  0.00000000000E+00 0. -1.
</event>
<event>
 8    1  0.6906553E-009  0.9180531E+02  0.7561462E-02  0.1298538E+00
         -2   -1    0    0    0  501 -0.00000000000E+00  0.00000000000E+00  0.75193011536E+02  0.75193011536E+02  0.00000000000E+00 0.  1.
          2   -1    0    0  501    0  0.00000000000E+00 -0.00000000000E+00 -0.18200585846E+03  0.18200585846E+03  0.00000000000E+00 0. -1.
         25    2    1    2    0    0  0.30106567436E+02 -0.14518205239E+02 -0.91934732207E+02  0.15878904324E+03  0.12507910130E+03 0.  0.
         23    2    1    2    0    0 -0.30106567436E+02  0.14518205239E+02 -0.14878114714E+02  0.98409826751E+02  0.91356182153E+02 0.  0.
          5    1    3    3  502    0  0.38125340706E+02  0.28200847199E+02  0.93297304044E+01  0.48511294109E+02  0.41800000000E+01 0.  1.
         -5    1    3    3    0  502 -0.80187732702E+01 -0.42719052438E+02 -0.10126446261E+03  0.11027774913E+03  0.41800000000E+01 0.  1.
        -11    1    4    4    0    0 -0.51573740293E+02  0.35270857747E+02 -0.24390554803E+02  0.67072969649E+02  0.00000000000E+00 0. -1.
         11    1    4    4    0    0  0.21467172857E+02 -0.20752652508E+02  0.95124400885E+01  0.31336857102E+02  0.00000000000E+00 0.  1.
</event>
<event>
 8    1  0.6906553E-009  0.1304649E+03  0.7561462E-02  0.1226768E+00
         -1   -1    0    0    0  501 -0.00000000000E+00  0.00000000000E+00  0.57380322170E+02  0.57380322170E+02  0.00000000000E+00 0.  1.
          1   -1    0    0  501    0  0.00000000000E+00 -0.00000000000E+00 -0.65478370862E+03  0.65478370862E+03  0.00000000000E+00 0. -1.
         25    2    1    2    0    0  0.12576552460E+03 -0.27073515290E+02 -0.13738342880E+03  0.22598987064E+03  0.12508905915E+03 0.  0.
         23    2    1    2    0    0 -0.12576552460E+03  0.27073515290E+02 -0.46001995765E+03  0.48617416014E+03  0.90537341188E+02 0.  0.
          5    1    3    3  502    0  0.67668295787E+02 -0.26378299737E+02  0.42226601052E+01  0.72870544187E+02  0.41800000000E+01 0. -1.
         -5    1    3    3    0  502  0.58097228809E+02 -0.69521555346E+00 -0.14160608890E+03  0.15311932646E+03  0.41800000000E+01 0. -1.
        -11    1    4    4    0    0 -0.72934817779E+02  0.64602178123E+01 -0.38623394623E+03  0.39311306678E+03  0.00000000000E+00 0. -1.
         11    1    4    4    0    0 -0.52830706818E+02  0.20613297478E+02 -0.73786011421E+02  0.93061093359E+02  0.00000000000E+00 0.  1.
</event>
<event>
 8    1  0.6906553E-009  0.3478524E+03  0.7561462E-02  0.1063500E+00
         -1   -1    0    0    0  501 -0.00000000000E+00  0.00000000000E+00  0.31453495031E+03  0.31453495031E+03  0.00000000000E+00 0.  1.
          1   -1    0    0  501    0  0.00000000000E+00 -0.00000000000E+00 -0.41629637358E+03  0.41629637358E+03  0.00000000000E+00 0. -1.
         25    2    1    2    0    0 -0.96120998681E+02  0.32149865015E+03  0.28986570785E+02  0.35928960103E+03  0.12509263642E+03 0.  0.
         23    2    1    2    0    0  0.96120998681E+02 -0.32149865015E+03 -0.13074799405E+03  0.37154172286E+03  0.91365121569E+02 0.  0.
          5    1    3    3  502    0 -0.12360334686E+03  0.26299629281E+03  0.40725120531E+02  0.29346353305E+03  0.41800000000E+01 0. -1.
         -5    1    3    3    0  502  0.27482348178E+02  0.58502357342E+02 -0.11738549745E+02  0.65826067983E+02  0.41800000000E+01 0. -1.
        -11    1    4    4    0    0  0.10368087876E+03 -0.30551655923E+03 -0.13987345308E+03  0.35164566748E+03  0.00000000000E+00 0. -1.
         11    1    4    4    0    0 -0.75598800772E+01 -0.15982090927E+02  0.91254590279E+01  0.19896055379E+02  0.00000000000E+00 0.  1.
</event>
<event>
 8    1  0.6906553E-009  0.8100363E+02  0.7561462E-02  0.1326227E+00
         -3   -1    0    0    0  501 -0.00000000000E+00  0.00000000000E+00  0.21616905434E+03  0.21616905434E+03  0.00000000000E+00 0.  1.
          3   -1    0    0  501    0  0.00000000000E+00 -0.00000000000E+00 -0.68803720110E+02  0.68803720110E+02  0.00000000000E+00 0. -1.
         25    2    1    2    0    0 -0.15918312754E+02 -0.41573274050E+02  0.45197018300E+02  0.14026203901E+03  0.12509572066E+03 0.  0.
         23    2    1    2    0    0  0.15918312754E+02  0.41573274050E+02  0.10216831593E+03  0.14471073544E+03  0.92309817330E+02 0.  0.
          5    1    3    3  502    0 -0.64595735635E+01  0.36655737450E+02 -0.15674705598E+02  0.40602191742E+02  0.41800000000E+01 0.  1.
         -5    1    3    3    0  502 -0.94587391906E+01 -0.78229011500E+02  0.60871723898E+02  0.99659847269E+02  0.41800000000E+01 0.  1.
        -11    1    4    4    0    0  0.49548532745E+01  0.26755815368E+02  0.11757793544E+03  0.12068552162E+03  0.00000000000E+00 0.  1.
         11    1    4    4    0    0  0.10963459480E+02  0.14817458682E+02 -0.15409619509E+02  0.24025213818E+02  0.00000000000E+00 0. -1.
</event>
<event>
 8    1  0.6906553E-009  0.8108831E+02  0.7561462E-02  0.1325991E+00
          1   -1    0    0  501    0  0.00000000000E+00  0.00000000000E+00  0.29958345012E+03  0.29958345012E+03  0.00000000000E+00 0. -1.
         -1   -1    0    0    0  501 -0.00000000000E+00 -0.00000000000E+00 -0.45179103640E+02  0.45179103640E+02  0.00000000000E+00 0.  1.
         25    2    1    2    0    0 -0.17586456244E+02 -0.69357798093E+01  0.87389632840E+02  0.15375552228E+03  0.12508566752E+03 0.  0.
         23    2    1    2    0    0  0.17586456244E+02  0.69357798093E+01  0.16701471364E+03  0.19100703148E+03  0.90732480499E+02 0.  0.
          5    1    3    3  502    0  0.49101593353E+02 -0.10924871166E+02  0.10041661630E+02  0.51464809803E+02  0.41800000000E+01 0. -1.
         -5    1    3    3    0  502 -0.66688049597E+02  0.39890913563E+01  0.77347971211E+02  0.10229071248E+03  0.41800000000E+01 0. -1.
        -11    1    4    4    0    0  0.13359955878E+01 -0.16329674929E+02 -0.46349771717E+01  0.17027218824E+02  0.00000000000E+00 0.  1.
         11    1    4    4    0    0  0.16250460656E+02  0.23265454739E+02  0.17164969081E+03  0.17397981266E+03  0.00000000000E+00 0. -1.
</event>
<event>
 8    1  0.6906553E-009  0.1218967E+03  0.7561462E-02  0.1240000E+00
          1   -1    0    0  501    0  0.00000000000E+00  0.00000000000E+00  0.43449349054E+03  0.43449349054E+03  0.00000000000E+00 0. -1.
         -1   -1    0    0    0  501 -0.00000000000E+00 -0.00000000000E+00 -0.59882173639E+02  0.59882173639E+02  0.00000000000E+00 0.  1.
         25    2    1    2    0    0 -0.57555567500E+02  0.10383873778E+03  0.17958927296E+03  0.24898954176E+03  0.12509339762E+03 0.  0.
         23    2    1    2    0    0  0.57555567500E+02 -0.10383873778E+03  0.19502204394E+03  0.24538612242E+03  0.89920101420E+02 0.  0.
          5    1    3    3  502    0 -0.15944532397E+02  0.67681215952E+02  0.97001065494E+01  0.70331639915E+02  0.41800000000E+01 0. -1.
         -5    1    3    3    0  502 -0.41611035103E+02  0.36157521830E+02  0.16988916642E+03  0.17865790185E+03  0.41800000000E+01 0. -1.
        -11    1    4    4    0    0  0.90161347624E+01 -0.12467521564E+02 -0.81320501191E+01  0.17402873876E+02  0.00000000000E+00 0.  1.
         11    1    4    4    0    0  0.48539432737E+02 -0.91371216218E+02  0.20315409406E+03  0.22798324854E+03  0.00000000000E+00 0. -1.
</event>
<event>
 8    1  0.6906553E-009  0.1198668E+03  0.7561462E-02  0.1243317E+00
         -1   -1    0    0    0  501 -0.00000000000E+00  0.00000000000E+00  0.56994902079E+02  0.56994902079E+02  0.00000000000E+00 0.  1.
          1   -1    0    0  501    0  0.00000000000E+00 -0.00000000000E+00 -0.63904119461E+03  0.63904119461E+03  0.00000000000E+00 0. -1.
         25    2    1    2    0    0  0.84604537097E+01  0.11050592064E+03 -0.50647867476E+03  0.53333967599E+03  0.12508966470E+03 0.  0.
         23    2    1    2    0    0 -0.84604537097E+01 -0.11050592064E+03 -0.75567617767E+02  0.16269642070E+03  0.92068032893E+02 0.  0.
          5    1    3    3  502    0 -0.98673287518E+01  0.91327645695E+01  0.22588406564E+01  0.14259955347E+02  0.41800000000E+01 0. -1.
         -5    1    3    3    0  502  0.18327782462E+02  0.10137315607E+03 -0.50873751542E+03  0.51907972064E+03  0.41800000000E+01 0. -1.
        -11    1    4    4    0    0  0.20013731265E+02 -0.71569836090E+02 -0.85671688071E+02  0.11341264927E+03  0.00000000000E+00 0. -1.
         11    1    4    4    0    0 -0.28474184974E+02 -0.38936084553E+02  0.10104070304E+02  0.49283771436E+02  0.00000000000E+00 0.  1.
</event>
<event>
 8    1  0.6906553E-009  0.1146508E+03  0.7561462E-02  0.1252192E+00
          2   -1    0    0  501    0  0.00000000000E+00  0.00000000000E+00  0.27702290459E+03  0.27702290459E+03  0.00000000000E+00 0. -1.
         -2   -1    0    0    0  501 -0.00000000000E+00 -0.00000000000E+00 -0.25083090866E+03  0.25083090866E+03  0.00000000000E+00 0.  1.
         25    2    1    2    0    0 -0.89267098376E+02  0.10605203923E+02 -0.20892553879E+03  0.25957449762E+03  0.12509178171E+03 0.  0.
         23    2    1    2    0    0  0.89267098376E+02 -0.10605203923E+02  0.23511753472E+03  0.26827931564E+03  0.92803291239E+02 0.  0.
          5    1    3    3  502    0 -0.56029363115E+02 -0.45050913411E+02 -0.49403254508E+02  0.87332859144E+02  0.41800000000E+01 0.  1.
         -5    1    3    3    0  502 -0.33237735261E+02  0.55656117334E+02 -0.15952228428E+03  0.17224163847E+03  0.41800000000E+01 0.  1.
        -11    1    4    4    0    0  0.30638648901E+02 -0.13814315322E+02  0.91845882225E+01  0.34841337160E+02  0.00000000000E+00 0.  1.
         11    1    4    4    0    0  0.58628449476E+02  0.32091113990E+01  0.22593294650E+03  0.23343797848E+03  0.00000000000E+00 0. -1.
</event>
<event>
 8    1  0.6906553E-009  0.1364836E+03  0.7561462E-02  0.1218140E+00
          1   -1    0    0  501    0  0.00000000000E+00  0.00000000000E+00  0.69920586928E+03  0.69920586928E+03  0.00000000000E+00 0. -1.
         -1   -1    0    0    0  501 -0.00000000000E+00 -0.00000000000E+00 -0.29710500942E+02  0.29710500942E+02  0.00000000000E+00 0.  1.
         25    2    1    2    0    0  0.14130851015E+02  0.94178864688E+02  0.37816644411E+03  0.40954469642E+03  0.12509060482E+03 0.  0.
         23    2    1    2    0    0 -0.14130851015E+02 -0.94178864688E+02  0.29132892423E+03  0.31937167380E+03  0.89757364208E+02 0.  0.
          5    1    3    3  502    0  0.57239632711E+02  0.47784051199E+01  0.15087802107E+03  0.16149569143E+03  0.41800000000E+01 0. -1.
         -5    1    3    3    0  502 -0.43108781695E+02  0.89400459568E+02  0.22728842303E+03  0.24804900499E+03  0.41800000000E+01 0. -1.
        -11    1    4    4    0    0  0.18217880986E+02 -0.77557005261E+02  0.11872474337E+03  0.14297742809E+03  0.00000000000E+00 0.  1.
         11    1    4    4    0    0 -0.32348732001E+02 -0.16621859427E+02  0.17260418086E+03  0.17639424572E+03  0.00000000000E+00 0. -1.
</event>
<event>
 8    1  0.6906553E-009  0.2115882E+03  0.7561462E-02  0.1140314E+00
         -1   -1    0    0    0  501 -0.00000000000E+00  0.00000000000E+00  0.56546254914E+02  0.56546254914E+02  0.00000000000E+00 0.  1.
          1   -1    0    0  501    0  0.00000000000E+00 -0.00000000000E+00 -0.92362513015E+03  0.92362513015E+03  0.00000000000E+00 0. -1.
         25    2    1    2    0    0 -0.41012474047E+02  0.18926183362E+03 -0.34797297648E+03  0.41741397627E+03  0.12508865070E+03 0.  0.
         23    2    1    2    0    0  0.41012474047E+02 -0.18926183362E+03 -0.51910589875E+03  0.56275740879E+03  0.98604778453E+02 0.  0.
          5    1    3    3  502    0  0.67624279411E+01 -0.84063722075E+01  0.28267200830E+01  0.11910510979E+02  0.41800000000E+01 0. -1.
         -5    1    3    3    0  502 -0.47774901988E+02  0.19766820583E+03 -0.35079969657E+03  0.40550346529E+03  0.41800000000E+01 0. -1.
        -11    1    4    4    0    0  0.59752206762E+02 -0.95992429428E+02 -0.19973928880E+03  0.22952267036E+03  0.00000000000E+00 0.  1.
         11    1    4    4    0    0 -0.18739732715E+02 -0.93269404194E+02 -0.31936660995E+03  0.33323473843E+03  0.00000000000E+00 0. -1.
</event>
<event>
 8    1  0.6906553E-009  0.9335368E+02  0.7561462E-02  0.1294928E+00
         -1   -1    0    0    0  501 -0.00000000000E+00  0.00000000000E+00  0.17511879373E+02  0.17511879373E+02  0.00000000000E+00 0.  1.
          1   -1    0    0  501    0  0.00000000000E+00 -0.00000000000E+00 -0.70114050749E+03  0.70114050749E+03  0.00000000000E+00 0. -1.
         25    2    1    2    0    0 -0.25380523414E+02  0.30833650523E+01 -0.45136736176E+03  0.46907799037E+03  0.12509191690E+03 0.  0.
         23    2    1    2    0    0  0.25380523414E+02 -0.30833650523E+01 -0.23226126635E+03  0.24957439650E+03  0.87683552785E+02 0.  0.
          5    1    3    3  502    0 -0.19013056075E+01 -0.46772648631E+02 -0.35410756077E+03  0.35721272740E+03  0.41800000000E+01 0. -1.
         -5    1    3    3    0  502 -0.23479217806E+02  0.49856013683E+02 -0.97259800989E+02  0.11186526296E+03  0.41800000000E+01 0. -1.
        -11    1    4    4    0    0  0.27126770493E+02  0.36136227309E+02 -0.17054983298E+03  0.17643393702E+03  0.00000000000E+00 0. -1.
         11    1    4    4    0    0 -0.17462470793E+01 -0.39219592361E+02 -0.61711433375E+02  0.73140459480E+02  0.00000000000E+00 0.  1.
</event>
<event>
 8    1  0.6906553E-009  0.1240096E+03  0.7561462E-02  0.1236625E+00
         -2   -1    0    0    0  501 -0.00000000000E+00  0.00000000000E+00  0.34430937222E+02  0.34430937222E+02  0.00000000000E+00 0.  1.
          2   -1    0    0  501    0  0.00000000000E+00 -0.00000000000E+00 -0.64903375243E+03  0.64903375243E+03  0.00000000000E+00 0. -1.
         25    2    1    2    0    0 -0.65712145242E+02 -0.11730445709E+02 -0.51116106625E+03  0.53046065649E+03  0.12508870067E+03 0.  0.
         23    2    1    2    0    0  0.65712145242E+02  0.11730445709E+02 -0.10344174895E+03  0.15300403317E+03  0.90853449850E+02 0.  0.
          5    1    3    3  502    0 -0.90319583459E+02 -0.40144660511E+02 -0.29859555184E+03  0.31455682619E+03  0.41800000000E+01 0. -1.
         -5    1    3    3    0  502  0.24607438217E+02  0.28414214802E+02 -0.21256551441E+03  0.21590383030E+03  0.41800000000E+01 0. -1.
        -11    1    4    4    0    0  0.76097306948E+02  0.36510708515E+02 -0.67191330120E+02  0.10788191139E+03  0.00000000000E+00 0.  1.
         11    1    4    4    0    0 -0.10385161706E+02 -0.24780262806E+02 -0.36250418834E+02  0.45122121781E+02  0.00000000000E+00 0. -1.
</event>
<event>
 8    1  0.6906553E-009  0.1189909E+03  0.7561462E-02  0.1244771E+00
         -1   -1    0    0    0  501 -0.00000000000E+00  0.00000000000E+00  0.70368617459E+02  0.70368617459E+02  0.00000000000E+00 0. -1.
          1   -1    0    0  501    0  0.00000000000E+00 -0.00000000000E+00 -0.27253311852E+03  0.27253311852E+03  0.00000000000E+00 0.  1.
         25    2    1    2    0    0 -0.74506019776E+02  0.33140658125E+01 -0.15378506462E+03  0.21179828013E+03  0.12508611174E+03 0.  0.
         23    2    1    2    0    0  0.74506019776E+02 -0.33140658125E+01 -0.48379436437E+02  0.13110345585E+03  0.96360864721E+02 0.  0.
          5    1    3    3  502    0 -0.62528309405E+02 -0.46824925935E+02 -0.13638961021E+03  0.15723218926E+03  0.41800000000E+01 0.  1.
         -5    1    3    3    0  502 -0.11977710371E+02  0.50138991747E+02 -0.17395454418E+02  0.54566090877E+02  0.41800000000E+01 0.  1.
        -11    1    4    4    0    0  0.71862995470E+02  0.27618938955E+02 -0.60357677468E+02  0.97827118613E+02  0.00000000000E+00 0.  1.
         11    1    4    4    0    0  0.26430243061E+01 -0.30933004768E+02  0.11978241031E+02  0.33276337233E+02  0.00000000000E+00 0. -1.
</event>
<event>
 8    1  0.6906553E-009  0.1146944E+03  0.7561462E-02  0.1252116E+00
         -2   -1    0    0    0  501 -0.00000000000E+00  0.00000000000E+00  0.41485218561E+02  0.41485218561E+02  0.00000000000E+00 0.  1.
          2   -1    0    0  501    0  0.00000000000E+00 -0.00000000000E+00 -0.48764877256E+03  0.48764877256E+03  0.00000000000E+00 0. -1.
         25    2    1    2    0    0  0.67113347946E+02 -0.18045020172E+02 -0.35061832926E+03  0.37869607153E+03  0.12509067734E+03 0.  0.
         23    2    1    2    0    0 -0.67113347946E+02  0.18045020172E+02 -0.95545224739E+02  0.15043791959E+03  0.93128156072E+02 0.  0.
          5    1    3    3  502    0  0.41059671589E+02  0.34970151028E+02 -0.28590138457E+03  0.29097402323E+03  0.41800000000E+01 0. -1.
         -5    1    3    3    0  502  0.26053676357E+02 -0.53015171200E+02 -0.64716944686E+02  0.87722048304E+02  0.41800000000E+01 0. -1.
        -11    1    4    4    0    0  0.15720700449E+02  0.28535215460E+02 -0.30013518244E+02  0.44296842114E+02  0.00000000000E+00 0.  1.
         11    1    4    4    0    0 -0.82834048395E+02 -0.10490195288E+02 -0.65531706495E+02  0.10614107747E+03  0.00000000000E+00 0. -1.
</event>
<event>
 8    1  0.6906553E-009  0.7244871E+02  0.7561462E-02  0.1351959E+00
         -1   -1    0    0    0  501 -0.00000000000E+00  0.00000000000E+00  0.22934441619E+02  0.22934441619E+02  0.00000000000E+00 0.  1.
          1   -1    0    0  501    0  0.00000000000E+00 -0.00000000000E+00 -0.62736855270E+03  0.62736855270E+03  0.00000000000E+00 0. -1.
         25    2    1    2    0    0  0.72425336357E+01  0.50788892824E+02 -0.39484260760E+03  0.41734848042E+03  0.12508838239E+03 0.  0.
         23    2    1    2    0    0 -0.72425336357E+01 -0.50788892824E+02 -0.20959150348E+03  0.23295451390E+03  0.87790895227E+02 0.  0.
          5    1    3    3  502    0 -0.20320879096E+02  0.60132487661E+01 -0.34201737510E+03  0.34269878109E+03  0.41800000000E+01 0. -1.
         -5    1    3    3    0  502  0.27563412732E+02  0.44775644058E+02 -0.52825232495E+02  0.74649699332E+02  0.41800000000E+01 0. -1.
        -11    1    4    4    0    0  0.20808686565E+02 -0.19310258052E+02 -0.11840517723E+02  0.30758500655E+02  0.00000000000E+00 0.  1.
         11    1    4    4    0    0 -0.28051220200E+02 -0.31478634772E+02 -0.19775098576E+03  0.20219601324E+03  0.00000000000E+00 0. -1.
</event>
<event>
 8    1  0.6906553E-009  0.1813725E+03  0.7561462E-02  0.1166481E+00
         -1   -1    0    0    0  501 -0.00000000000E+00  0.00000000000E+00  0.63886887057E+02  0.63886887057E+02  0.00000000000E+00 0.  1.
          1   -1    0    0  501    0  0.00000000000E+00 -0.00000000000E+00 -0.70161829601E+03  0.70161829601E+03  0.00000000000E+00 0. -1.
         25    2    1    2    0    0  0.11849858181E+03 -0.13243778054E+03 -0.26003985451E+03  0.33889541215E+03  0.12509074642E+03 0.  0.
         23    2    1    2    0    0 -0.11849858181E+03  0.13243778054E+03 -0.37769155445E+03  0.42660977092E+03  0.88109629089E+02 0.  0.
          5    1    3    3  502    0  0.65004106403E+02 -0.10510960469E+03 -0.24852397404E+03  0.27758818585E+03  0.41800000000E+01 0.  1.
         -5    1    3    3    0  502  0.53494475405E+02 -0.27328175848E+02 -0.11515880463E+02  0.61307226303E+02  0.41800000000E+01 0.  1.
        -11    1    4    4    0    0 -0.72718803212E+02  0.66099069110E+02 -0.29584057728E+03  0.31173507733E+03  0.00000000000E+00 0. -1.
         11    1    4    4    0    0 -0.45779778597E+02  0.66338711427E+02 -0.81850977173E+02  0.11487469359E+03  0.00000000000E+00 0.  1.
</event>
<event>
 8    1  0.6906553E-009  0.1236188E+03  0.7561462E-02  0.1237244E+00
         -3   -1    0    0    0  501 -0.00000000000E+00  0.00000000000E+00  0.22645294528E+03  0.22645294528E+03  0.00000000000E+00 0.  1.
          3   -1    0    0  501    0  0.00000000000E+00 -0.00000000000E+00 -0.75697232864E+02  0.75697232864E+02  0.00000000000E+00 0. -1.
         25    2    1    2    0    0 -0.48359053841E+02 -0.51993830731E+02  0.10487289343E+03  0.17801069865E+03  0.12509008168E+03 0.  0.
         23    2    1    2    0    0  0.48359053841E+02  0.51993830731E+02  0.45882818986E+02  0.12413947949E+03  0.90903359496E+02 0.  0.
          5    1    3    3  502    0 -0.74062601119E+02 -0.69602726701E+02  0.10552211024E+03  0.14656806132E+03  0.41800000000E+01 0.  1.
         -5    1    3    3    0  502  0.25703547278E+02  0.17608895970E+02 -0.64921681368E+00  0.31442637332E+02  0.41800000000E+01 0.  1.
        -11    1    4    4    0    0  0.45575732433E+01  0.67470859062E+02  0.36130663682E+02  0.76671462452E+02  0.00000000000E+00 0. -1.
         11    1    4    4    0    0  0.43801480598E+02 -0.15477028331E+02  0.97521553039E+01  0.47468017039E+02  0.00000000000E+00 0.  1.
</event>
<event>
 8    1  0.6906553E-009  0.1172701E+03  0.7561462E-02  0.1247670E+00
         -3   -1    0    0    0  501 -0.00000000000E+00  0.00000000000E+00  0.13051746207E+03  0.13051746207E+03  0.00000000000E+00 0.  1.
          3   -1    0    0  501    0  0.00000000000E+00 -0.00000000000E+00 -0.12123591945E+03  0.12123591945E+03  0.00000000000E+00 0. -1.
         25    2    1    2    0    0 -0.38220688579E+02 -0.36238256772E+02 -0.29233083633E+02  0.13882540898E+03  0.12507553202E+03 0.  0.
         23    2    1    2    0    0  0.38220688579E+02  0.36238256772E+02  0.38514626261E+02  0.11292797254E+03  0.92170050755E+02 0.  0.
          5    1    3    3  502    0 -0.74483148356E+02  0.91350700967E+01 -0.29091511282E+02  0.80591422145E+02  0.41800000000E+01 0. -1.
         -5    1    3    3    0  502  0.36262459777E+02 -0.45373326869E+02 -0.14157235042E+00  0.58233986838E+02  0.41800000000E+01 0. -1.
        -11    1    4    4    0    0 -0.18302155058E+02 -0.15905357235E+02  0.25038313907E+02  0.34854934111E+02  0.00000000000E+00 0.  1.
         11    1    4    4    0    0  0.56522843637E+02  0.52143614008E+02  0.13476312354E+02  0.78073038427E+02  0.00000000000E+00 0. -1.
</event>
<event>
 8    1  0.6906553E-009  0.8908840E+02  0.7561462E-02  0.1305074E+00
         -4   -1    0    0    0  501 -0.00000000000E+00  0.00000000000E+00  0.60867341197E+02  0.60867341197E+02  0.00000000000E+00 0.  1.
          4   -1    0    0  501    0  0.00000000000E+00 -0.00000000000E+00 -0.27492766837E+03  0.27492766837E+03  0.00000000000E+00 0. -1.
         25    2    1    2    0    0  0.48735674842E+02 -0.12505327124E+02 -0.53405012018E+02  0.14502235600E+03  0.12509132353E+03 0.  0.
         23    2    1    2    0    0 -0.48735674842E+02  0.12505327124E+02 -0.16065531516E+03  0.19077265357E+03  0.89735867142E+02 0.  0.
          5    1    3    3  502    0  0.71990046350E+02  0.26100467137E+02 -0.22561568788E+01  0.76722642043E+02  0.41800000000E+01 0. -1.
         -5    1    3    3    0  502 -0.23254371508E+02 -0.38605794261E+02 -0.51148855140E+02  0.68299713959E+02  0.41800000000E+01 0. -1.
        -11    1    4    4    0    0 -0.17519476244E+02  0.17325175201E+02  0.23353010414E+01  0.24749694434E+02  0.00000000000E+00 0.  1.
         11    1    4    4    0    0 -0.31216198598E+02 -0.48198480763E+01 -0.16299061620E+03  0.16602295913E+03  0.00000000000E+00 0. -1.
</event>
<event>
 8    1  0.6906553E-009  0.1045640E+03  0.7561462E-02  0.1270981E+00
          2   -1    0    0  501    0  0.00000000000E+00  0.00000000000E+00  0.10968479683E+04  0.10968479683E+04  0.00000000000E+00 0. -1.
         -2   -1    0    0    0  501 -0.00000000000E+00 -0.00000000000E+00 -0.18433958973E+02  0.18433958973E+02  0.00000000000E+00 0.  1.
         25    2    1    2    0    0 -0.15935417256E+02  0.82224893967E+02  0.72508851184E+03  0.74055100043E+03  0.12509022156E+03 0.  0.
         23    2    1    2    0    0  0.15935417256E+02 -0.82224893967E+02  0.35332549744E+03  0.37473092679E+03  0.92571537975E+02 0.  0.
          5    1    3    3  502    0 -0.90103330876E+01  0.35110713477E+02  0.41366272631E+02  0.55159670182E+02  0.41800000000E+01 0. -1.
         -5    1    3    3    0  502 -0.69250841680E+01  0.47114180489E+02  0.68372223921E+03  0.68539133025E+03  0.41800000000E+01 0. -1.
        -11    1    4    4    0    0  0.48359913887E+02 -0.15725337500E+02  0.14484904307E+03  0.15351616459E+03  0.00000000000E+00 0.  1.
         11    1    4    4    0    0 -0.32424496631E+02 -0.66499556467E+02  0.20847645437E+03  0.22121476221E+03  0.00000000000E+00 0. -1.
</event>
<event>
 8    1  0.6906553E-009  0.1461856E+03  0.7561462E-02  0.1205240E+00
          3   -1    0    0  501    0  0.00000000000E+00  0.00000000000E+00  0.62740018481E+03  0.62740018481E+03  0.00000000000E+00 0. -1.
         -3   -1    0    0    0  501 -0.00000000000E+00 -0.00000000000E+00 -0.34430478007E+02  0.34430478007E+02  0.00000000000E+00 0.  1.
         25    2    1    2    0    0 -0.15071053935E+02 -0.97469291261E+02  0.33216931908E+03  0.36838926247E+03  0.12508714067E+03 0.  0.
         23    2    1    2    0    0  0.15071053935E+02  0.97469291261E+02  0.26080038772E+03  0.29344140034E+03  0.91452795444E+02 0.  0.
          5    1    3    3  502    0  0.52344908909E+02 -0.22779206762E+02  0.14418169791E+03  0.15512806374E+03  0.41800000000E+01 0.  1.
         -5    1    3    3    0  502 -0.67415962844E+02 -0.74690084499E+02  0.18798762117E+03  0.21326119873E+03  0.41800000000E+01 0.  1.
        -11    1    4    4    0    0 -0.36893327057E+02  0.59734452945E+02  0.14105345017E+03  0.15756077639E+03  0.00000000000E+00 0. -1.
         11    1    4    4    0    0  0.51964380992E+02  0.37734838316E+02  0.11974693755E+03  0.13588062396E+03  0.00000000000E+00 0.  1.
</event>
<event>
 8    1  0.6906553E-009  0.1287410E+03  0.7561462E-02  0.1229336E+00
         -1   -1    0    0    0  501 -0.00000000000E+00  0.00000000000E+00  0.12160765651E+03  0.12160765651E+03  0.00000000000E+00 0.  1.
          1   -1    0    0  501    0  0.00000000000E+00 -0.00000000000E+00 -0.17478497317E+03  0.17478497317E+03  0.00000000000E+00 0. -1.
         25    2    1    2    0    0  0.87699190900E+02  0.18999859244E+02 -0.73615013144E+02  0.17063093164E+03  0.12507438562E+03 0.  0.
         23    2    1    2    0    0 -0.87699190900E+02 -0.18999859244E+02  0.20437696486E+02  0.12576169804E+03  0.85709757434E+02 0.  0.
          5    1    3    3  502    0  0.10629200049E+02 -0.49452121771E+02 -0.23131667796E+02  0.55776685957E+02  0.41800000000E+01 0.  1.
         -5    1    3    3    0  502  0.77069990851E+02  0.68451981015E+02 -0.50483345348E+02  0.11485424569E+03  0.41800000000E+01 0.  1.
        -11    1    4    4    0    0 -0.46926036716E+01 -0.20007883573E+02  0.35857387749E+02  0.41329023585E+02  0.00000000000E+00 0.  1.
         11    1    4    4    0    0 -0.83006587228E+02  0.10080243283E+01 -0.15419691263E+02  0.84432674451E+02  0.00000000000E+00 0. -1.
</event>
<event>
 8    1  0.6906553E-009  0.1245992E+03  0.7561462E-02  0.1235697E+00
         -2   -1    0    0    0  501 -0.00000000000E+00  0.00000000000E+00  0.28569624419E+02  0.28569624419E+02  0.00000000000E+00 0.  1.
          2   -1    0    0  501    0  0.00000000000E+00 -0.00000000000E+00 -0.75305281580E+03  0.75305281580E+03  0.00000000000E+00 0. -1.
         25    2    1    2    0    0 -0.27768526324E+02 -0.76935787141E+02 -0.24505688486E+03  0.28703540311E+03  0.12508492886E+03 0.  0.
         23    2    1    2    0    0  0.27768526324E+02  0.76935787141E+02 -0.47942630653E+03  0.49458703711E+03  0.89869613814E+02 0.  0.
          5    1    3    3  502    0 -0.19687471821E+02  0.21254454344E+02 -0.80891097907E+01  0.30368642929E+02  0.41800000000E+01 0. -1.
         -5    1    3    3    0  502 -0.80810545029E+01 -0.98190241485E+02 -0.23696777506E+03  0.25666676018E+03  0.41800000000E+01 0. -1.
        -11    1    4    4    0    0  0.47886547267E+02  0.68182998970E+01 -0.20528694970E+03  0.21090837428E+03  0.00000000000E+00 0.  1.
         11    1    4    4    0    0 -0.20118020944E+02  0.70117487244E+02 -0.27413935683E+03  0.28367866283E+03  0.00000000000E+00 0. -1.
</event>
<event>
 8    1  0.6906553E-009  0.1048744E+03  0.7561462E-02  0.1270367E+00
          2   -1    0    0  501    0  0.00000000000E+00  0.00000000000E+00  0.14052755390E+03  0.14052755390E+03  0.00000000000E+00 0. -1.
         -2   -1    0    0    0  501 -0.00000000000E+00 -0.00000000000E+00 -0.16921324000E+03  0.16921324000E+03  0.00000000000E+00 0.  1.
         25    2    1    2    0    0 -0.12535269918E+01 -0.29188201368E+02  0.93520811917E+02  0.15890449223E+03  0.12510384870E+03 0.  0.
         23    2    1    2    0    0  0.12535269918E+01  0.29188201368E+02 -0.12220649802E+03  0.15083630167E+03  0.83448423086E+02 0.  0.
          5    1    3    3  502    0 -0.53846123691E+02 -0.47477477922E+02  0.44233726724E+02  0.84425179457E+02  0.41800000000E+01 0.  1.
         -5    1    3    3    0  502  0.52592596699E+02  0.18289276554E+02  0.49287085193E+02  0.74479312774E+02  0.41800000000E+01 0.  1.
        -11    1    4    4    0    0  0.10685287962E+02 -0.24900202641E+02 -0.70049340421E+02  0.75107293679E+02  0.00000000000E+00 0.  1.
         11    1    4    4    0    0 -0.94317609701E+01  0.54088404008E+02 -0.52157157599E+02  0.75729007996E+02  0.00000000000E+00 0. -1.
</event>
<event>
 8    1  0.6906553E-009  0.8370811E+02  0.7561462E-02  0.1318846E+00
         -1   -1    0    0    0  501 -0.00000000000E+00  0.00000000000E+00  0.59959308621E+02  0.59959308621E+02  0.00000000000E+00 0.  1.
          1   -1    0    0  501    0  0.00000000000E+00 -0.00000000000E+00 -0.21946276982E+03  0.21946276982E+03  0.00000000000E+00 0. -1.
         25    2    1    2    0    0 -0.17661249469E+02  0.16013276250E+02 -0.12867494514E+03  0.18103225368E+03  0.12508833126E+03 0.  0.
         23    2    1    2    0    0  0.17661249469E+02 -0.16013276250E+02 -0.30828516055E+02  0.98389824757E+02  0.90342766532E+02 0.  0.
          5    1    3    3  502    0 -0.43810033583E+02  0.42756834992E+02 -0.12959324131E+03  0.14338530809E+03  0.41800000000E+01 0.  1.
         -5    1    3    3    0  502  0.26148784114E+02 -0.26743558742E+02  0.91829617077E+00  0.37646945596E+02  0.41800000000E+01 0.  1.
        -11    1    4    4    0    0  0.29389048378E+02 -0.35248366280E+02  0.14200397100E+02  0.48039720729E+02  0.00000000000E+00 0.  1.
         11    1    4    4    0    0 -0.11727798909E+02  0.19235090031E+02 -0.45028913155E+02  0.50350104028E+02  0.00000000000E+00 0. -1.
</event>
<event>
 8    1  0.6906553E-009  0.9719076E+02  0.7561462E-02  0.1286317E+00
         -1   -1    0    0    0  501 -0.00000000000E+00  0.00000000000E+00  0.13167646771E+02  0.13167646771E+02  0.00000000000E+00 0.  1.
          1   -1    0    0  501    0  0.00000000000E+00 -0.00000000000E+00 -0.99244895236E+03  0.99244895236E+03  0.00000000000E+00 0. -1.
         25    2    1    2    0    0 -0.17826738094E+01 -0.71582249258E+01 -0.70584964861E+03  0.71688686598E+03  0.12509450051E+03 0.  0.
         23    2    1    2    0    0  0.17826738094E+01  0.71582249258E+01 -0.27343165698E+03  0.28872973315E+03  0.92442250398E+02 0.  0.
          5    1    3    3  502    0  0.38921726591E+02 -0.43957963231E+02 -0.51214698916E+03  0.51551839370E+03  0.41800000000E+01 0.  1.
         -5    1    3    3    0  502 -0.40704400400E+02  0.36799738305E+02 -0.19370265945E+03  0.20136847228E+03  0.41800000000E+01 0.  1.
        -11    1    4    4    0    0  0.38710039626E+02 -0.96810022137E+01 -0.64137615583E+02  0.75536896312E+02  0.00000000000E+00 0.  1.
         11    1    4    4    0    0 -0.36927365817E+02  0.16839227140E+02 -0.20929404139E+03  0.21319283684E+03  0.00000000000E+00 0. -1.
</event>
<event>
 8    1  0.6906553E-009  0.2038168E+03  0.7561462E-02  0.1146558E+00
         -1   -1    0    0    0  501 -0.00000000000E+00  0.00000000000E+00  0.47812213825E+02  0.47812213825E+02  0.00000000000E+00 0.  1.
          1   -1    0    0  501    0  0.00000000000E+00 -0.00000000000E+00 -0.95665238625E+03  0.95665238625E+03  0.00000000000E+00 0. -1.
         25    2    1    2    0    0  0.18082519623E+03  0.37929834852E+02 -0.43919322631E+03  0.49261973244E+03  0.12508831598E+03 0.  0.
         23    2    1    2    0    0 -0.18082519623E+03 -0.37929834852E+02 -0.46964694612E+03  0.51184486764E+03  0.85325790728E+02 0.  0.
          5    1    3    3  502    0  0.25416028332E+02 -0.40818488798E+02 -0.81206651000E+02  0.94467539878E+02  0.41800000000E+01 0. -1.
         -5    1    3    3    0  502  0.15540916789E+03  0.78748323650E+02 -0.35798657531E+03  0.39815219256E+03  0.41800000000E+01 0. -1.
        -11    1    4    4    0    0 -0.65363282739E+02 -0.82647811372E+01 -0.76193149777E+02  0.10072765961E+03  0.00000000000E+00 0.  1.
         11    1    4    4    0    0 -0.11546191349E+03 -0.29665053715E+02 -0.39345379635E+03  0.41111720803E+03  0.00000000000E+00 0. -1.
</event>
<event>
 8    1  0.6906553E-009  0.2564683E+03  0.7561462E-02  0.1109284E+00
          1   -1    0    0  501    0  0.00000000000E+00  0.00000000000E+00  0.11717834907E+04  0.11717834907E+04  0.00000000000E+00 0. -1.
         -1   -1    0    0    0  501 -0.00000000000E+00 -0.00000000000E+00 -0.60914228856E+02  0.60914228856E+02  0.00000000000E+00 0.  1.
         25    2    1    2    0    0 -0.57843062769E+02  0.23543586116E+03  0.63130154523E+03  0.68772550393E+03  0.12509541606E+03 0.  0.
         23    2    1    2    0    0  0.57843062769E+02 -0.23543586116E+03  0.47956771663E+03  0.54497221564E+03  0.90739497219E+02 0.  0.
          5    1    3    3  502    0  0.33300163855E+02  0.72363896955E+02  0.26148219785E+03  0.27337857760E+03  0.41800000000E+01 0.  1.
         -5    1    3    3    0  502 -0.91143226625E+02  0.16307196420E+03  0.36981934737E+03  0.41434692633E+03  0.41800000000E+01 0.  1.
        -11    1    4    4    0    0  0.45056268837E+02 -0.93423869153E+02  0.12265080092E+03  0.16062784832E+03  0.00000000000E+00 0.  1.
         11    1    4    4    0    0  0.12786793932E+02 -0.14201199200E+03  0.35691691570E+03  0.38434436731E+03  0.00000000000E+00 0. -1.
</event>
<event>
 8    1  0.6906553E-009  0.5056180E+03  0.7561462E-02  0.1012323E+00
         -2   -1    0    0    0  501 -0.00000000000E+00  0.00000000000E+00  0.28396409176E+03  0.28396409176E+03  0.00000000000E+00 0.  1.
          2   -1    0    0  501    0  0.00000000000E+00 -0.00000000000E+00 -0.11057294418E+04  0.11057294418E+04  0.00000000000E+00 0. -1.
         25    2    1    2    0    0  0.74059386049E+02 -0.49355122254E+03 -0.69632066073E+03  0.86578738085E+03  0.12509086440E+03 0.  0.
         23    2    1    2    0    0 -0.74059386049E+02  0.49355122254E+03 -0.12544468929E+03  0.52390615268E+03  0.98304042683E+02 0.  0.
          5    1    3    3  502    0  0.54431576247E+02 -0.47737191293E+03 -0.68705164035E+03  0.83839380285E+03  0.41800000000E+01 0.  1.
         -5    1    3    3    0  502  0.19627809802E+02 -0.16179309606E+02 -0.92690203753E+01  0.27393578001E+02  0.41800000000E+01 0.  1.
        -11    1    4    4    0    0 -0.56483453260E+02  0.13968844267E+03 -0.89297681420E+01  0.15094032684E+03  0.00000000000E+00 0.  1.
         11    1    4    4    0    0 -0.17575932789E+02  0.35386277987E+03 -0.11651492115E+03  0.37296582584E+03  0.00000000000E+00 0. -1.
</event>
<event>
 8    1  0.6906553E-009  0.1073710E+03  0.7561462E-02  0.1265517E+00
         -1   -1    0    0    0  501 -0.00000000000E+00  0.00000000000E+00  0.56082461803E+02  0.56082461803E+02  0.00000000000E+00 0.  1.
          1   -1    0    0  501    0  0.00000000000E+00 -0.00000000000E+00 -0.35021301915E+03  0.35021301915E+03  0.00000000000E+00 0. -1.
         25    2    1    2    0    0  0.25407444652E+02  0.56145411670E+02 -0.25138024903E+03  0.28746683758E+03  0.12508919861E+03 0.  0.
         23    2    1    2    0    0 -0.25407444652E+02 -0.56145411670E+02 -0.42750308308E+02  0.11882864337E+03  0.92167305097E+02 0.  0.
          5    1    3    3  502    0  0.75509636066E+02  0.43920352969E+02 -0.14949247010E+03  0.17319403443E+03  0.41800000000E+01 0. -1.
         -5    1    3    3    0  502 -0.50102191414E+02  0.12225058701E+02 -0.10188777893E+03  0.11427280315E+03  0.41800000000E+01 0. -1.
        -11    1    4    4    0    0  0.85131521396E+01 -0.33971253014E+02 -0.64085244526E+02  0.73030393376E+02  0.00000000000E+00 0. -1.
         11    1    4    4    0    0 -0.33920596792E+02 -0.22174158656E+02  0.21334936219E+02  0.45798249991E+02  0.00000000000E+00 0.  1.
</event>
<event>
 8    1  0.6906553E-009  0.1315507E+03  0.7561462E-02  0.1225173E+00
          2   -1    0    0  501    0  0.00000000000E+00  0.00000000000E+00  0.29312180059E+03  0.29312180059E+03  0.00000000000E+00 0. -1.
         -2   -1    0    0    0  501 -0.00000000000E+00 -0.00000000000E+00 -0.64492333719E+02  0.64492333719E+02  0.00000000000E+00 0.  1.
         25    2    1    2    0    0 -0.42988817187E+02  0.71670546589E+02  0.11521114052E+03  0.18949005659E+03  0.12509264164E+03 0.  0.
         23    2    1    2    0    0  0.42988817187E+02 -0.71670546589E+02  0.11341832634E+03  0.16812407772E+03  0.91745752527E+02 0.  0.
          5    1    3    3  502    0 -0.75774510847E+02  0.19250946098E+02  0.29376154110E+02  0.83623000724E+02  0.41800000000E+01 0.  1.
         -5    1    3    3    0  502  0.32785693661E+02  0.52419600492E+02  0.85834986414E+02  0.10586705586E+03  0.41800000000E+01 0.  1.
        -11    1    4    4    0    0  0.68888218960E+02 -0.33221650600E+02  0.58715050095E+02  0.96419509891E+02  0.00000000000E+00 0.  1.
         11    1    4    4    0    0 -0.25899401773E+02 -0.38448895989E+02  0.54703276249E+02  0.71704567828E+02  0.00000000000E+00 0. -1.
</event>
<event>
 8    1  0.6906553E-009  0.1737215E+03  0.7561462E-02  0.1174022E+00
          1   -1    0    0  501    0  0.00000000000E+00  0.00000000000E+00  0.35950714495E+03  0.35950714495E+03  0.00000000000E+00 0. -1.
         -1   -1    0    0    0  501 -0.00000000000E+00 -0.00000000000E+00 -0.11445840444E+03  0.11445840444E+03  0.00000000000E+00 0.  1.
         25    2    1    2    0    0  0.12959500891E+03  0.41525800989E+02  0.83539756865E+01  0.18503138921E+03  0.12509023784E+03 0.  0.
         23    2    1    2    0    0 -0.12959500891E+03 -0.41525800989E+02  0.23669476482E+03  0.28893416018E+03  0.94547759067E+02 0.  0.
          5    1    3    3  502    0  0.11625842832E+03 -0.20592830931E+02  0.21327104461E+02  0.12005167481E+03  0.41800000000E+01 0.  1.
         -5    1    3    3    0  502  0.13336580588E+02  0.62118631919E+02 -0.12973128775E+02  0.64979714400E+02  0.41800000000E+01 0.  1.
        -11    1    4    4    0    0  0.35372770370E+01 -0.31958526047E+02  0.42535071317E+02  0.53320652733E+02  0.00000000000E+00 0. -1.
         11    1    4    4    0    0 -0.13313228594E+03 -0.95672749417E+01  0.19415969350E+03  0.23561350744E+03  0.00000000000E+00 0.  1.
</event>
<event>
 8    1  0.6906553E-009  0.1475068E+03  0.7561462E-02  0.1203571E+00
          2   -1    0    0  501    0  0.00000000000E+00  0.00000000000E+00  0.44550518020E+03  0.44550518020E+03  0.00000000000E+00 0. -1.
         -2   -1    0    0    0  501 -0.00000000000E+00 -0.00000000000E+00 -0.63809806635E+02  0.63809806635E+02  0.00000000000E+00 0.  1.
         25    2    1    2    0    0  0.86371547916E+02 -0.88935836159E+02  0.25434536007E+03  0.30936619691E+03  0.12508498854E+03 0.  0.
         23    2    1    2    0    0 -0.86371547916E+02  0.88935836159E+02  0.12735001349E+03  0.19994878992E+03  0.91607125342E+02 0.  0.
          5    1    3    3  502    0 -0.22449344322E+02 -0.93066109675E+01  0.39956645058E+01  0.24980468431E+02  0.41800000000E+01 0. -1.
         -5    1    3    3    0  502  0.10882089224E+03 -0.79629225191E+02  0.25034969557E+03  0.28438572848E+03  0.41800000000E+01 0. -1.
        -11    1    4    4    0    0 -0.60293423180E+00  0.33097461694E+02  0.81186203165E+02  0.87675567204E+02  0.00000000000E+00 0. -1.
         11    1    4    4    0    0 -0.85768613684E+02  0.55838374465E+02  0.46163810327E+02  0.11227322272E+03  0.00000000000E+00 0.  1.
</event>
<event>
 8    1  0.6906553E-009  0.7777199E+02  0.7561462E-02  0.1335496E+00
         -2   -1    0    0    0  501 -0.00000000000E+00  0.00000000000E+00  0.61429330607E+02  0.61429330607E+02  0.00000000000E+00 0.  1.
          2   -1    0    0  501    0  0.00000000000E+00 -0.00000000000E+00 -0.20447712701E+03  0.20447712701E+03  0.00000000000E+00 0. -1.
         25    2    1    2    0    0 -0.21542043623E+02 -0.99433335304E+01 -0.99577974489E+02  0.16163800459E+03  0.12509253374E+03 0.  0.
         23    2    1    2    0    0  0.21542043623E+02  0.99433335304E+01 -0.43469821915E+02  0.10426845303E+03  0.91757045261E+02 0.  0.
          5    1    3    3  502    0 -0.73421378688E+02 -0.96087034514E+01 -0.68843452300E+02  0.10119248665E+03  0.41800000000E+01 0.  1.
         -5    1    3    3    0  502  0.51879335065E+02 -0.33463007904E+00 -0.30734522189E+02  0.60445517934E+02  0.41800000000E+01 0.  1.
        -11    1    4    4    0    0  0.74032416960E+01  0.12911256796E+02  0.27808500067E+02  0.31540786541E+02  0.00000000000E+00 0.  1.
         11    1    4    4    0    0  0.14138801927E+02 -0.29679232655E+01 -0.71278321983E+02  0.72727666490E+02  0.00000000000E+00 0. -1.
</event>
<event>
 8    1  0.6906553E-009  0.2295139E+03  0.7561462E-02  0.1126982E+00
         -2   -1    0    0    0  501 -0.00000000000E+00  0.00000000000E+00  0.91593397284E+02  0.91593397284E+02  0.00000000000E+00 0. -1.
          2   -1    0    0  501    0  0.00000000000E+00 -0.00000000000E+00 -0.66080152741E+03  0.66080152741E+03  0.00000000000E+00 0.  1.
         25    2    1    2    0    0  0.19829982921E+03 -0.88591429762E+02 -0.25347502041E+03  0.35646908891E+03  0.12509740878E+03 0.  0.
         23    2    1    2    0    0 -0.19829982921E+03  0.88591429762E+02 -0.31573310971E+03  0.39592583578E+03  0.99491744271E+02 0.  0.
          5    1    3    3  502    0  0.27639211373E+02  0.22485707663E+02 -0.84610305688E+02  0.91901628294E+02  0.41800000000E+01 0. -1.
         -5    1    3    3    0  502  0.17066061784E+03 -0.11107713742E+03 -0.16886471472E+03  0.26456746062E+03  0.41800000000E+01 0. -1.
        -11    1    4    4    0    0 -0.16896340208E+03  0.62274484984E+02 -0.18009487389E+03  0.25467804444E+03  0.00000000000E+00 0. -1.
         11    1    4    4    0    0 -0.29336427132E+02  0.26316944778E+02 -0.13563823583E+03  0.14124779134E+03  0.00000000000E+00 0.  1.
</event>
<event>
 8    1  0.6906553E-009  0.1164133E+03  0.7561462E-02  0.1249134E+00
          2   -1    0    0  501    0  0.00000000000E+00  0.00000000000E+00  0.59709974836E+03  0.59709974836E+03  0.00000000000E+00 0. -1.
         -2   -1    0    0    0  501 -0.00000000000E+00 -0.00000000000E+00 -0.28729637171E+02  0.28729637171E+02  0.00000000000E+00 0.  1.
         25    2    1    2    0    0 -0.43527193118E+02 -0.43394370968E+02  0.22512643805E+03  0.26477714076E+03  0.12508930084E+03 0.  0.
         23    2    1    2    0    0  0.43527193118E+02  0.43394370968E+02  0.34324367314E+03  0.36105224478E+03  0.93620597809E+02 0.  0.
          5    1    3    3  502    0  0.26596010419E+02 -0.50712838173E+02  0.15480945033E+03  0.16511383358E+03  0.41800000000E+01 0.  1.
         -5    1    3    3    0  502 -0.70123203537E+02  0.73184672055E+01  0.70316987717E+02  0.99663307181E+02  0.41800000000E+01 0.  1.
        -11    1    4    4    0    0  0.34938393312E+02  0.69235522796E+02  0.18683541136E+03  0.20229117599E+03  0.00000000000E+00 0. -1.
         11    1    4    4    0    0  0.85887998067E+01 -0.25841151828E+02  0.15640826178E+03  0.15876106878E+03  0.00000000000E+00 0.  1.
</event>
<event>
 8    1  0.6906553E-009  0.8783080E+02  0.7561462E-02  0.1308191E+00
         -1   -1    0    0    0  501 -0.00000000000E+00  0.00000000000E+00  0.46385182219E+02  0.46385182219E+02  0.00000000000E+00 0.  1.
          1   -1    0    0  501    0  0.00000000000E+00 -0.00000000000E+00 -0.33250196623E+03  0.33250196623E+03  0.00000000000E+00 0. -1.
         25    2    1    2    0    0 -0.26349445893E+02 -0.50011554746E+02 -0.18956512371E+03  0.23404758417E+03  0.12509151300E+03 0.  0.
         23    2    1    2    0    0  0.26349445893E+02  0.50011554746E+02 -0.96551660304E+02  0.14483956428E+03  0.91982755806E+02 0.  0.
          5    1    3    3  502    0  0.78200367225E+01  0.56681112701E+00 -0.16939351971E+03  0.16962638701E+03  0.41800000000E+01 0.  1.
         -5    1    3    3    0  502 -0.34169482616E+02 -0.50578365873E+02 -0.20171604000E+02  0.64421197168E+02  0.41800000000E+01 0.  1.
        -11    1    4    4    0    0  0.38454191278E+02 -0.13640585212E+02 -0.23071882987E+02  0.46873256515E+02  0.00000000000E+00 0.  1.
         11    1    4    4    0    0 -0.12104745385E+02  0.63652139958E+02 -0.73479777317E+02  0.97966307762E+02  0.00000000000E+00 0. -1.
</event>
<event>
 8    1  0.6906553E-009  0.3098775E+03  0.7561462E-02  0.1080405E+00
          1   -1    0    0  501    0  0.00000000000E+00  0.00000000000E+00  0.28592773605E+04  0.28592773605E+04  0.00000000000E+00 0. -1.
         -1   -1    0    0    0  501 -0.00000000000E+00 -0.00000000000E+00 -0.36037471629E+02  0.36037471629E+02  0.00000000000E+00 0.  1.
         25    2    1    2    0    0 -0.20979759066E+03  0.21030185220E+03  0.16325336844E+04  0.16640480611E+04  0.12509124923E+03 0.  0.
         23    2    1    2    0    0  0.20979759066E+03 -0.21030185220E+03  0.11907062044E+04  0.12312667710E+04  0.99973487280E+02 0.  0.
          5    1    3    3  502    0 -0.20613113168E+03  0.15179650622E+03  0.14454994862E+04  0.14679981130E+04  0.41800000000E+01 0. -1.
         -5    1    3    3    0  502 -0.36664589816E+01  0.58505345975E+02  0.18703419823E+03  0.19604994806E+03  0.41800000000E+01 0. -1.
        -11    1    4    4    0    0  0.61613842154E+02 -0.10980980559E+03  0.35708091368E+03  0.37863074078E+03  0.00000000000E+00 0. -1.
         11    1    4    4    0    0  0.14818374851E+03 -0.10049204661E+03  0.83362529070E+03  0.85263603023E+03  0.00000000000E+00 0.  1.
</event>
<event>
 8    1  0.6906553E-009  0.7818287E+02  0.7561462E-02  0.1334289E+00
         -1   -1    0    0    0  501 -0.00000000000E+00  0.00000000000E+00  0.16965800505E+03  0.16965800505E+03  0.00000000000E+00 0.  1.
          1   -1    0    0  501    0  0.00000000000E+00 -0.00000000000E+00 -0.78530169323E+02  0.78530169323E+02  0.00000000000E+00 0. -1.
         25    2    1    2    0    0 -0.17583531433E+02 -0.11108953008E+02  0.14473318985E+02  0.12763418494E+03  0.12509364008E+03 0.  0.
         23    2    1    2    0    0  0.17583531433E+02  0.11108953008E+02  0.76654516738E+02  0.12055398942E+03  0.90690462647E+02 0.  0.
          5    1    3    3  502    0 -0.38156923954E+02  0.25284218265E+01 -0.47307543858E+02  0.60973927776E+02  0.41800000000E+01 0. -1.
         -5    1    3    3    0  502  0.20573392521E+02 -0.13637374835E+02  0.61780862843E+02  0.66660257169E+02  0.41800000000E+01 0. -1.
        -11    1    4    4    0    0 -0.14203070360E+02  0.44529769996E+02  0.34814830256E+02  0.58281215063E+02  0.00000000000E+00 0. -1.
         11    1    4    4    0    0  0.31786601793E+02 -0.33420816987E+02  0.41839686482E+02  0.62272774361E+02  0.00000000000E+00 0.  1.
</event>
<event>
 8    1  0.6906553E-009  0.8561707E+02  0.7561462E-02  0.1313827E+00
          1   -1    0    0  501    0  0.00000000000E+00  0.00000000000E+00  0.89702791383E+02  0.89702791383E+02  0.00000000000E+00 0. -1.
         -1   -1    0    0    0  501 -0.00000000000E+00 -0.00000000000E+00 -0.19494356697E+03  0.19494356697E+03  0.00000000000E+00 0.  1.
         25    2    1    2    0    0  0.71867644026E+01 -0.79797812704E+02 -0.74986409400E+02  0.16640228262E+03  0.12508963815E+03 0.  0.
         23    2    1    2    0    0 -0.71867644026E+01  0.79797812704E+02 -0.30254366186E+02  0.11824407573E+03  0.81529100800E+02 0.  0.
          5    1    3    3  502    0 -0.29529475360E+01 -0.74287711814E+02  0.14682280439E+02  0.75897468895E+02  0.41800000000E+01 0.  1.
         -5    1    3    3    0  502  0.10139711939E+02 -0.55101008896E+01 -0.89668689839E+02  0.90504813725E+02  0.41800000000E+01 0.  1.
        -11    1    4    4    0    0  0.74583257472E+01  0.56416007392E+02  0.20490896926E+02  0.60483628941E+02  0.00000000000E+00 0. -1.
         11    1    4    4    0    0 -0.14645090150E+02  0.23381805312E+02 -0.50745263112E+02  0.57760446791E+02  0.00000000000E+00 0.  1.
</event>
<event>
 8    1  0.6906553E-009  0.1710835E+03  0.7561462E-02  0.1176723E+00
         -1   -1    0    0    0  501 -0.00000000000E+00  0.00000000000E+00  0.49910195383E+02  0.49910195383E+02  0.00000000000E+00 0.  1.
          1   -1    0    0  501    0  0.00000000000E+00 -0.00000000000E+00 -0.85249456546E+03  0.85249456546E+03  0.00000000000E+00 0. -1.
         25    2    1    2    0    0  0.15241318008E+03 -0.28358454179E+01 -0.23127324131E+03  0.30392843679E+03  0.12508942026E+03 0.  0.
         23    2    1    2    0    0 -0.15241318008E+03  0.28358454179E+01 -0.57131112877E+03  0.59847632405E+03  0.92410416717E+02 0.  0.
          5    1    3    3  502    0  0.16916284456E+03  0.78742826747E+01 -0.17260813664E+03  0.24184522642E+03  0.41800000000E+01 0.  1.
         -5    1    3    3    0  502 -0.16749664477E+02 -0.10710128093E+02 -0.58665104671E+02  0.62083210371E+02  0.41800000000E+01 0.  1.
        -11    1    4    4    0    0 -0.96798770686E+02  0.80410558207E+00 -0.49294611059E+03  0.50236094249E+03  0.00000000000E+00 0.  1.
         11    1    4    4    0    0 -0.55614409399E+02  0.20317398358E+01 -0.78365018173E+02  0.96115381562E+02  0.00000000000E+00 0. -1.
</event>
<event>
 8    1  0.6906553E-009  0.7235080E+02  0.7561462E-02  0.1352277E+00
          2   -1    0    0  501    0  0.00000000000E+00  0.00000000000E+00  0.38655784178E+03  0.38655784178E+03  0.00000000000E+00 0. -1.
         -2   -1    0    0    0  501 -0.00000000000E+00 -0.00000000000E+00 -0.43257278591E+02  0.43257278591E+02  0.00000000000E+00 0.  1.
         25    2    1    2    0    0 -0.16051444936E+02 -0.17207057858E+02  0.30457778045E+03  0.33010411496E+03  0.12508945058E+03 0.  0.
         23    2    1    2    0    0  0.16051444936E+02  0.17207057858E+02  0.38722782739E+02  0.99711005405E+02  0.88820599926E+02 0.  0.
          5    1    3    3  502    0  0.39377672757E+02  0.19656424790E+02  0.49131344576E+02  0.66093400329E+02  0.41800000000E+01 0.  1.
         -5    1    3    3    0  502 -0.55429117693E+02 -0.36863482648E+02  0.25544643587E+03  0.26401071463E+03  0.41800000000E+01 0.  1.
        -11    1    4    4    0    0  0.32519024462E+01  0.20354363253E+02  0.66146724492E+02  0.69283938499E+02  0.00000000000E+00 0. -1.
         11    1    4    4    0    0  0.12799542490E+02 -0.31473053947E+01 -0.27423941754E+02  0.30427066906E+02  0.00000000000E+00 0.  1.
</event>
<event>
 8    1  0.6906553E-009  0.9562418E+02  0.7561462E-02  0.1289776E+00
          3   -1    0    0  501    0  0.00000000000E+00  0.00000000000E+00  0.38007162081E+03  0.38007162081E+03  0.00000000000E+00 0. -1.
         -3   -1    0    0    0  501 -0.00000000000E+00 -0.00000000000E+00 -0.42870101072E+02  0.42870101072E+02  0.00000000000E+00 0.  1.
         25    2    1    2    0    0 -0.11163653462E+02  0.51548720561E+02  0.11911116297E+03  0.18060181781E+03  0.12509056600E+03 0.  0.
         23    2    1    2    0    0  0.11163653462E+02 -0.51548720561E+02  0.21809035677E+03  0.24233990407E+03  0.91560513535E+02 0.  0.
          5    1    3    3  502    0 -0.45865323565E+02  0.16006043079E+02  0.12127109517E+03  0.13070567029E+03  0.41800000000E+01 0. -1.
         -5    1    3    3    0  502  0.34701670104E+02  0.35542677482E+02 -0.21599322061E+01  0.49896147524E+02  0.41800000000E+01 0. -1.
        -11    1    4    4    0    0  0.15780814731E+02 -0.70957465921E+02  0.10626452192E+03  0.12874837748E+03  0.00000000000E+00 0.  1.
         11    1    4    4    0    0 -0.46171612689E+01  0.19408745360E+02  0.11182583485E+03  0.11359152659E+03  0.00000000000E+00 0. -1.
</event>
<event>
 8    1  0.6906553E-009  0.8687243E+02  0.7561462E-02  0.1310607E+00
          3   -1    0    0  501    0  0.00000000000E+00  0.00000000000E+00  0.11369727833E+03  0.11369727833E+03  0.00000000000E+00 0. -1.
         -3   -1    0    0    0  501 -0.00000000000E+00 -0.00000000000E+00 -0.17155448068E+03  0.17155448068E+03  0.00000000000E+00 0.  1.
         25    2    1    2    0    0 -0.39722163876E+02  0.22327678792E+02  0.45649246915E+02  0.14074127754E+03  0.12509147819E+03 0.  0.
         23    2    1    2    0    0  0.39722163876E+02 -0.22327678792E+02 -0.10350644927E+03  0.14451048147E+03  0.89962873848E+02 0.  0.
          5    1    3    3  502    0 -0.52891673837E+02  0.41425331432E+02  0.76511344076E+02  0.10190704302E+03  0.41800000000E+01 0. -1.
         -5    1    3    3    0  502  0.13169509961E+02 -0.19097652639E+02 -0.30862097162E+02  0.38834234512E+02  0.41800000000E+01 0. -1.
        -11    1    4    4    0    0 -0.13013543359E+02 -0.26944480110E+02 -0.82145819616E+02  0.87425928645E+02  0.00000000000E+00 0. -1.
         11    1    4    4    0    0  0.52735707235E+02  0.46168013173E+01 -0.21360629653E+02  0.57084552824E+02  0.00000000000E+00 0.  1.
</event>
<event>
 8    1  0.6906553E-009  0.1112534E+03  0.7561462E-02  0.1258266E+00
          2   -1    0    0  501    0  0.00000000000E+00  0.00000000000E+00  0.44947475615E+02  0.44947475615E+02  0.00000000000E+00 0. -1.
         -2   -1    0    0    0  501 -0.00000000000E+00 -0.00000000000E+00 -0.42306308666E+03  0.42306308666E+03  0.00000000000E+00 0.  1.
         25    2    1    2    0    0  0.61589825901E+02  0.53078339422E+02 -0.24836916205E+03  0.28973349615E+03  0.12509053268E+03 0.  0.
         23    2    1    2    0    0 -0.61589825901E+02 -0.53078339422E+02 -0.12974644900E+03  0.17827706612E+03  0.91312400626E+02 0.  0.
          5    1    3    3  502    0  0.84249798595E+02  0.64455737325E+02 -0.12630672307E+03  0.16499524639E+03  0.41800000000E+01 0. -1.
         -5    1    3    3    0  502 -0.22659972694E+02 -0.11377397903E+02 -0.12206243898E+03  0.12473824977E+03  0.41800000000E+01 0. -1.
        -11    1    4    4    0    0 -0.19857727827E+02 -0.43518767531E+02 -0.12661486543E+03  0.13534968279E+03  0.00000000000E+00 0.  1.
         11    1    4    4    0    0 -0.41732098074E+02 -0.95595718907E+01 -0.31315835624E+01  0.42927383335E+02  0.00000000000E+00 0. -1.
</event>
<event>
 8    1  0.6906553E-009  0.1290278E+03  0.7561462E-02  0.1228905E+00
         -4   -1    0    0    0  501 -0.00000000000E+00  0.00000000000E+00  0.51509812471E+03  0.51509812471E+03  0.00000000000E+00 0. -1.
          4   -1    0    0  501    0  0.00000000000E+00 -0.00000000000E+00 -0.36715485805E+02  0.36715485805E+02  0.00000000000E+00 0.  1.
         25    2    1    2    0    0  0.20260332601E+02  0.72197127609E+02  0.33437533446E+03  0.36479747119E+03  0.12508966535E+03 0.  0.
         23    2    1    2    0    0 -0.20260332601E+02 -0.72197127609E+02  0.14400730445E+03  0.18701613933E+03  0.92811779012E+02 0.  0.
          5    1    3    3  502    0 -0.44412198800E+02  0.64646176523E+02  0.15183659545E+03  0.17094851757E+03  0.41800000000E+01 0.  1.
         -5    1    3    3    0  502  0.64672531401E+02  0.75509510865E+01  0.18253873900E+03  0.19384895361E+03  0.41800000000E+01 0.  1.
        -11    1    4    4    0    0  0.74015718302E+01  0.18244758252E+02  0.49683697250E+02  0.53442719258E+02  0.00000000000E+00 0. -1.
         11    1    4    4    0    0 -0.27661904431E+02 -0.90441885861E+02  0.94323607198E+02  0.13357342007E+03  0.00000000000E+00 0.  1.
</event>
<event>
 8    1  0.6906553E-009  0.9428001E+02  0.7561462E-02  0.1292806E+00
         -3   -1    0    0    0  501 -0.00000000000E+00  0.00000000000E+00  0.45172876713E+02  0.45172876713E+02  0.00000000000E+00 0.  1.
          3   -1    0    0  501    0  0.00000000000E+00 -0.00000000000E+00 -0.33390126186E+03  0.33390126186E+03  0.00000000000E+00 0. -1.
         25    2    1    2    0    0  0.47095398659E+02  0.26547595412E+02 -0.15841934079E+03  0.20896368091E+03  0.12508549478E+03 0.  0.
         23    2    1    2    0    0 -0.47095398659E+02 -0.26547595412E+02 -0.13030904435E+03  0.17011045766E+03  0.95049299674E+02 0.  0.
          5    1    3    3  502    0  0.21300461960E+02  0.44784042219E+02 -0.16837741428E+03  0.17557831916E+03  0.41800000000E+01 0.  1.
         -5    1    3    3    0  502  0.25794936699E+02 -0.18236446807E+02  0.99580734945E+01  0.33385361750E+02  0.41800000000E+01 0.  1.
        -11    1    4    4    0    0  0.20040346809E+02 -0.33909620234E+02 -0.31552298200E+02  0.50468062835E+02  0.00000000000E+00 0.  1.
         11    1    4    4    0    0 -0.67135745468E+02  0.73620248217E+01 -0.98756746153E+02  0.11964239483E+03  0.00000000000E+00 0. -1.
</event>
<event>
 8    1  0.6906553E-009  0.9283892E+02  0.7561462E-02  0.1296119E+00
          1   -1    0    0  501    0  0.00000000000E+00  0.00000000000E+00  0.11777084258E+04  0.11777084258E+04  0.00000000000E+00 0. -1.
         -1   -1    0    0    0  501 -0.00000000000E+00 -0.00000000000E+00 -0.13416791095E+02  0.13416791095E+02  0.00000000000E+00 0.  1.
         25    2    1    2    0    0 -0.19007342133E+02  0.49786246286E+02  0.81142449149E+03  0.82273713787E+03  0.12508694279E+03 0.  0.
         23    2    1    2    0    0  0.19007342133E+02 -0.49786246286E+02  0.35286714326E+03  0.36838807908E+03  0.91403537344E+02 0.  0.
          5    1    3    3  502    0 -0.25153675824E+02 -0.38624267820E+01  0.68134031177E+03  0.68182821780E+03  0.41800000000E+01 0.  1.
         -5    1    3    3    0  502  0.61463336902E+01  0.53648673068E+02  0.13008417972E+03  0.14090892006E+03  0.41800000000E+01 0.  1.
        -11    1    4    4    0    0  0.16281849617E+02  0.25574302890E+02  0.10765594724E+03  0.11184340200E+03  0.00000000000E+00 0. -1.
         11    1    4    4    0    0  0.27254925162E+01 -0.75360549176E+02  0.24521119602E+03  0.25654467708E+03  0.00000000000E+00 0.  1.
</event>
<event>
 8    1  0.6906553E-009  0.1313911E+03  0.7561462E-02  0.1225406E+00
          2   -1    0    0  501    0  0.00000000000E+00  0.00000000000E+00  0.55752041539E+03  0.55752041539E+03  0.00000000000E+00 0. -1.
         -2   -1    0    0    0  501 -0.00000000000E+00 -0.00000000000E+00 -0.51205960539E+02  0.51205960539E+02  0.00000000000E+00 0.  1.
         25    2    1    2    0    0  0.12662616675E+03  0.23533972957E+02  0.25905422514E+03  0.31518657175E+03  0.12508177110E+03 0.  0.
         23    2    1    2    0    0 -0.12662616675E+03 -0.23533972957E+02  0.24726022971E+03  0.29353980418E+03  0.91869262822E+02 0.  0.
          5    1    3    3  502    0  0.28740695854E+02  0.16000370019E+02 -0.49147573275E+01  0.33521137786E+02  0.41800000000E+01 0. -1.
         -5    1    3    3    0  502  0.97885470895E+02  0.75336029388E+01  0.26396898247E+03  0.28166543397E+03  0.41800000000E+01 0. -1.
        -11    1    4    4    0    0 -0.42672097231E+02  0.43564143630E+01  0.15735087242E+02  0.45688939567E+02  0.00000000000E+00 0.  1.
         11    1    4    4    0    0 -0.83954069518E+02 -0.27890387320E+02  0.23152514247E+03  0.24785086461E+03  0.00000000000E+00 0. -1.
</event>
<event>
 8    1  0.6906553E-009  0.1250812E+03  0.7561462E-02  0.1234942E+00
         -4   -1    0    0    0  501 -0.00000000000E+00  0.00000000000E+00  0.50023426631E+03  0.50023426631E+03  0.00000000000E+00 0.  1.
          4   -1    0    0  501    0  0.00000000000E+00 -0.00000000000E+00 -0.53519735862E+02  0.53519735862E+02  0.00000000000E+00 0. -1.
         25    2    1    2    0    0  0.11327628382E+03  0.45081924106E+02  0.25561856362E+03  0.30959742109E+03  0.12508323916E+03 0.  0.
         23    2    1    2    0    0 -0.11327628382E+03 -0.45081924106E+02  0.19109596683E+03  0.24415658109E+03  0.90724148886E+02 0.  0.
          5    1    3    3  502    0  0.11523832452E+03  0.44318336348E+02  0.11461821733E+03  0.16851941882E+03  0.41800000000E+01 0. -1.
         -5    1    3    3    0  502 -0.19620407008E+01  0.76358775818E+00  0.14100034629E+03  0.14107800227E+03  0.41800000000E+01 0. -1.
        -11    1    4    4    0    0 -0.71468412155E+02 -0.29779930599E+02  0.18327043046E+03  0.19895383606E+03  0.00000000000E+00 0.  1.
         11    1    4    4    0    0 -0.41807871666E+02 -0.15301993507E+02  0.78255363756E+01  0.45202745029E+02  0.00000000000E+00 0. -1.
</event>
<event>
 8    1  0.6906553E-009  0.1091943E+03  0.7561462E-02  0.1262069E+00
          2   -1    0    0  501    0  0.00000000000E+00  0.00000000000E+00  0.44298218823E+03  0.44298218823E+03  0.00000000000E+00 0.  1.
         -2   -1    0    0    0  501 -0.00000000000E+00 -0.00000000000E+00 -0.35135093455E+02  0.35135093455E+02  0.00000000000E+00 0. -1.
         25    2    1    2    0    0  0.31987827381E+02  0.51693547818E+02  0.21117156223E+03  0.25285583728E+03  0.12508877554E+03 0.  0.
         23    2    1    2    0    0 -0.31987827381E+02 -0.51693547818E+02  0.19667553255E+03  0.22526144441E+03  0.91465891159E+02 0.  0.
          5    1    3    3  502    0 -0.17438068837E+02  0.72460621621E+02  0.72230933941E+02  0.10387207588E+03  0.41800000000E+01 0. -1.
         -5    1    3    3    0  502  0.49425896218E+02 -0.20767073802E+02  0.13894062829E+03  0.14898376140E+03  0.41800000000E+01 0. -1.
        -11    1    4    4    0    0 -0.26665758236E+02 -0.67879539696E+02  0.19493938489E+03  0.20813471203E+03  0.00000000000E+00 0.  1.
         11    1    4    4    0    0 -0.53220691454E+01  0.16185991877E+02  0.17361476575E+01  0.17126732372E+02  0.00000000000E+00 0. -1.
</event>
<event>
 8    1  0.6906553E-009  0.9348699E+02  0.7561462E-02  0.1294621E+00
          4   -1    0    0  501    0  0.00000000000E+00  0.00000000000E+00  0.18894368376E+02  0.18894368376E+02  0.00000000000E+00 0. -1.
         -4   -1    0    0    0  501 -0.00000000000E+00 -0.00000000000E+00 -0.81432977077E+03  0.81432977077E+03  0.00000000000E+00 0.  1.
         25    2    1    2    0    0 -0.62661151521E+02 -0.12288297757E+02 -0.43242147968E+03  0.45465729382E+03  0.12508995388E+03 0.  0.
         23    2    1    2    0    0  0.62661151521E+02  0.12288297757E+02 -0.36301392271E+03  0.37856684533E+03  0.86350020992E+02 0.  0.
          5    1    3    3  502    0 -0.21909293314E+02  0.20291358937E+02 -0.14478036345E+02  0.33449100398E+02  0.41800000000E+01 0.  1.
         -5    1    3    3    0  502 -0.40751858207E+02 -0.32579656694E+02 -0.41794344334E+03  0.42120819342E+03  0.41800000000E+01 0.  1.
        -11    1    4    4    0    0  0.56780422496E+02 -0.28317354685E+02 -0.26121499128E+03  0.26881064084E+03  0.00000000000E+00 0.  1.
         11    1    4    4    0    0  0.58807290256E+01  0.40605652442E+02 -0.10179893143E+03  0.10975620449E+03  0.00000000000E+00 0. -1.
</event>
<event>
 8    1  0.6906553E-009  0.1327196E+03  0.7561462E-02  0.1223475E+00
         -1   -1    0    0    0  501 -0.00000000000E+00  0.00000000000E+00  0.30026978707E+02  0.30026978707E+02  0.00000000000E+00 0.  1.
          1   -1    0    0  501    0  0.00000000000E+00 -0.00000000000E+00 -0.89601078055E+03  0.89601078055E+03  0.00000000000E+00 0. -1.
         25    2    1    2    0    0  0.11972008807E+03  0.23756832346E+02 -0.42542976883E+03  0.45993131058E+03  0.12509610577E+03 0.  0.
         23    2    1    2    0    0 -0.11972008807E+03 -0.23756832346E+02 -0.44055403302E+03  0.46610644867E+03  0.90939974258E+02 0.  0.
          5    1    3    3  502    0  0.54386140455E+02  0.36664229366E+02 -0.36182531133E+03  0.36774603506E+03  0.41800000000E+01 0.  1.
         -5    1    3    3    0  502  0.65333947614E+02 -0.12907397020E+02 -0.63604457501E+02  0.92185275519E+02  0.41800000000E+01 0.  1.
        -11    1    4    4    0    0 -0.25541747990E+02  0.16668915398E+02 -0.29368539079E+02  0.42340816225E+02  0.00000000000E+00 0.  1.
         11    1    4    4    0    0 -0.94178340078E+02 -0.40425747744E+02 -0.41118549394E+03  0.42376563245E+03  0.00000000000E+00 0. -1.
</event>
<event>
 8    1  0.6906553E-009  0.1004497E+03  0.7561462E-02  0.1279353E+00
          1   -1    0    0  501    0  0.00000000000E+00  0.00000000000E+00  0.10806452509E+02  0.10806452509E+02  0.00000000000E+00 0. -1.
         -1   -1    0    0    0  501 -0.00000000000E+00 -0.00000000000E+00 -0.20393254956E+04  0.20393254956E+04  0.00000000000E+00 0.  1.
         25    2    1    2    0    0  0.20692026592E+02 -0.59032972835E+01 -0.17794228857E+04  0.17839436923E+04  0.12508509955E+03 0.  0.
         23    2    1    2    0    0 -0.20692026592E+02  0.59032972835E+01 -0.24909615735E+03  0.26618825580E+03  0.91347047236E+02 0.  0.
          5    1    3    3  502    0  0.63321577948E+02 -0.20132941123E+02 -0.60468655252E+03  0.60834057629E+03  0.41800000000E+01 0. -1.
         -5    1    3    3    0  502 -0.42629551356E+02  0.14229643840E+02 -0.11747363332E+04  0.11756031160E+04  0.41800000000E+01 0. -1.
        -11    1    4    4    0    0 -0.50310257266E+01 -0.40191184826E+02 -0.72973099334E+02  0.83460863786E+02  0.00000000000E+00 0. -1.
         11    1    4    4    0    0 -0.15661000865E+02  0.46094482109E+02 -0.17612305802E+03  0.18272739202E+03  0.00000000000E+00 0.  1.
</event>
<event>
 8    1  0.6906553E-009  0.1948056E+03  0.7561462E-02  0.1154197E+00
         -2   -1    0    0    0  501 -0.00000000000E+00  0.00000000000E+00  0.23752315532E+03  0.23752315532E+03  0.00000000000E+00 0. -1.
          2   -1    0    0  501    0  0.00000000000E+00 -0.00000000000E+00 -0.22451005451E+03  0.22451005451E+03  0.00000000000E+00 0.  1.
         25    2    1    2    0    0 -0.14507010073E+03  0.76133817075E+02 -0.11437526911E+03  0.23573477593E+03  0.12508992833E+03 0.  0.
         23    2    1    2    0    0  0.14507010073E+03 -0.76133817075E+02  0.12738836991E+03  0.22629843389E+03  0.90230217573E+02 0.  0.
          5    1    3    3  502    0 -0.97679237560E+02 -0.17827650386E+02 -0.41701704229E+02  0.10777552182E+03  0.41800000000E+01 0.  1.
         -5    1    3    3    0  502 -0.47390863175E+02  0.93961467461E+02 -0.72673564878E+02  0.12795925411E+03  0.41800000000E+01 0.  1.
        -11    1    4    4    0    0  0.10609445056E+03 -0.94267307835E+02  0.82563997883E+02  0.16419248312E+03  0.00000000000E+00 0. -1.
         11    1    4    4    0    0  0.38975650176E+02  0.18133490759E+02  0.44824372031E+02  0.62105950775E+02  0.00000000000E+00 0.  1.
</event>
<event>
 8    1  0.6906553E-009  0.9042064E+02  0.7561462E-02  0.1301836E+00
         -2   -1    0    0    0  501 -0.00000000000E+00  0.00000000000E+00  0.62375383349E+03  0.62375383349E+03  0.00000000000E+00 0.  1.
          2   -1    0    0  501    0  0.00000000000E+00 -0.00000000000E+00 -0.35444769490E+02  0.35444769490E+02  0.00000000000E+00 0. -1.
         25    2    1    2    0    0  0.93118451764E+01 -0.81724219855E+02  0.44657078661E+03  0.47099797078E+03  0.12509221580E+03 0.  0.
         23    2    1    2    0    0 -0.93118451764E+01  0.81724219855E+02  0.14173827739E+03  0.18820063220E+03  0.92542855540E+02 0.  0.
          5    1    3    3  502    0  0.19599698414E+01 -0.46772016420E+02  0.42791073088E+03  0.43048406359E+03  0.41800000000E+01 0. -1.
         -5    1    3    3    0  502  0.73518753350E+01 -0.34952203435E+02  0.18660055725E+02  0.40513907187E+02  0.41800000000E+01 0. -1.
        -11    1    4    4    0    0  0.20754760199E+02  0.50182077856E+02  0.13313323777E+03  0.14378268327E+03  0.00000000000E+00 0.  1.
         11    1    4    4    0    0 -0.30066605375E+02  0.31542142000E+02  0.86050396251E+01  0.44417948936E+02  0.00000000000E+00 0. -1.
</event>
<event>
 8    1  0.6906553E-009  0.8850956E+02  0.7561462E-02  0.1306502E+00
          4   -1    0    0  501    0  0.00000000000E+00  0.00000000000E+00  0.29651962223E+03  0.29651962223E+03  0.00000000000E+00 0. -1.
         -4   -1    0    0    0  501 -0.00000000000E+00 -0.00000000000E+00 -0.41607127666E+02  0.41607127666E+02  0.00000000000E+00 0.  1.
         25    2    1    2    0    0 -0.93675814239E+00 -0.29031879579E+02  0.15088533502E+03  0.19813430718E+03  0.12508833603E+03 0.  0.
         23    2    1    2    0    0  0.93675814239E+00  0.29031879579E+02  0.10402715955E+03  0.13999244272E+03  0.89064620058E+02 0.  0.
          5    1    3    3  502    0  0.12720510333E+02 -0.62564427470E+02  0.14839668076E+03  0.16160187570E+03  0.41800000000E+01 0. -1.
         -5    1    3    3    0  502 -0.13657268475E+02  0.33532547891E+02  0.24886542563E+01  0.36532431486E+02  0.41800000000E+01 0. -1.
        -11    1    4    4    0    0  0.85016626568E+01  0.51854429613E+02  0.26555962797E+02  0.58875965372E+02  0.00000000000E+00 0.  1.
         11    1    4    4    0    0 -0.75649045144E+01 -0.22822550034E+02  0.77471196754E+02  0.81116477345E+02  0.00000000000E+00 0. -1.
</event>
<event>
 8    1  0.6906553E-009  0.9112622E+02  0.7561462E-02  0.1300147E+00
          2   -1    0    0  501    0  0.00000000000E+00  0.00000000000E+00  0.22520886448E+02  0.22520886448E+02  0.00000000000E+00 0. -1.
         -2   -1    0    0    0  501 -0.00000000000E+00 -0.00000000000E+00 -0.55808046873E+03  0.55808046873E+03  0.00000000000E+00 0.  1.
         25    2    1    2    0    0  0.24770712777E+02 -0.17242583760E+02 -0.30374586959E+03  0.32987740387E+03  0.12508658354E+03 0.  0.
         23    2    1    2    0    0 -0.24770712777E+02  0.17242583760E+02 -0.23181371269E+03  0.25072395131E+03  0.90631161656E+02 0.  0.
          5    1    3    3  502    0  0.27781032572E+02 -0.48281032315E+02 -0.29036154620E+03  0.29568588699E+03  0.41800000000E+01 0. -1.
         -5    1    3    3    0  502 -0.30103197950E+01  0.31038448555E+02 -0.13384323394E+02  0.34191516882E+02  0.41800000000E+01 0. -1.
        -11    1    4    4    0    0  0.15198839328E+02  0.44185919761E+02 -0.12809228261E+03  0.13634893870E+03  0.00000000000E+00 0.  1.
         11    1    4    4    0    0 -0.39969552105E+02 -0.26943336001E+02 -0.10372143008E+03  0.11437501261E+03  0.00000000000E+00 0. -1.
</event>
<event>
 8    1  0.6906553E-009  0.3062790E+03  0.7561462E-02  0.1082143E+00
         -1   -1    0    0    0  501 -0.00000000000E+00  0.00000000000E+00  0.10967841292E+03  0.10967841292E+03  0.00000000000E+00 0.  1.
          1   -1    0    0  501    0  0.00000000000E+00 -0.00000000000E+00 -0.95031437256E+03  0.95031437256E+03  0.00000000000E+00 0. -1.
         25    2    1    2    0    0  0.26980480124E+03 -0.13208949734E+03 -0.50654090389E+03  0.60205853975E+03  0.12509409217E+03 0.  0.
         23    2    1    2    0    0 -0.26980480124E+03  0.13208949734E+03 -0.33409505576E+03  0.45793424573E+03  0.88555073560E+02 0.  0.
          5    1    3    3  502    0  0.72235544815E+02 -0.30679462616E+02 -0.25329527609E+03  0.26520779146E+03  0.41800000000E+01 0.  1.
         -5    1    3    3    0  502  0.19756925642E+03 -0.10141003472E+03 -0.25324562780E+03  0.33685074829E+03  0.41800000000E+01 0.  1.
        -11    1    4    4    0    0 -0.15941662831E+03  0.12250026638E+03 -0.23518472569E+03  0.30940561055E+03  0.00000000000E+00 0.  1.
         11    1    4    4    0    0 -0.11038817293E+03  0.95892309533E+01 -0.98910330074E+02  0.14852863518E+03  0.00000000000E+00 0. -1.
</event>
<event>
 8    1  0.6906553E-009  0.1182145E+03  0.7561462E-02  0.1246072E+00
         -1   -1    0    0    0  501 -0.00000000000E+00  0.00000000000E+00  0.17314291275E+03  0.17314291275E+03  0.00000000000E+00 0.  1.
          1   -1    0    0  501    0  0.00000000000E+00 -0.00000000000E+00 -0.14021946824E+03  0.14021946824E+03  0.00000000000E+00 0. -1.
         25    2    1    2    0    0  0.62078209639E+02  0.78318836181E+02 -0.30582304750E+02  0.16300463159E+03  0.12509072045E+03 0.  0.
         23    2    1    2    0    0 -0.62078209639E+02 -0.78318836181E+02  0.63505749255E+02  0.15035774940E+03  0.92665680835E+02 0.  0.
          5    1    3    3  502    0  0.20508112767E+02  0.36953062390E+02  0.48497474657E+02  0.64463857761E+02  0.41800000000E+01 0. -1.
         -5    1    3    3    0  502  0.41570096872E+02  0.41365773791E+02 -0.79079779407E+02  0.98540773826E+02  0.41800000000E+01 0. -1.
        -11    1    4    4    0    0 -0.42242001615E+02  0.11017241136E+02  0.11683755291E+02  0.45191552755E+02  0.00000000000E+00 0.  1.
         11    1    4    4    0    0 -0.19836208024E+02 -0.89336077317E+02  0.51821993964E+02  0.10516619665E+03  0.00000000000E+00 0. -1.
</event>
<event>
 8    1  0.6906553E-009  0.1302390E+03  0.7561462E-02  0.1227102E+00
         -1   -1    0    0    0  501 -0.00000000000E+00  0.00000000000E+00  0.54557466990E+03  0.54557466990E+03  0.00000000000E+00 0.  1.
          1   -1    0    0  501    0  0.00000000000E+00 -0.00000000000E+00 -0.50087020597E+02  0.50087020597E+02  0.00000000000E+00 0. -1.
         25    2    1    2    0    0 -0.25176260712E+02 -0.10964978493E+03  0.35975991156E+03  0.39715551625E+03  0.12509352774E+03 0.  0.
         23    2    1    2    0    0  0.25176260712E+02  0.10964978493E+03  0.13572773774E+03  0.19850617425E+03  0.91245618978E+02 0.  0.
          5    1    3    3  502    0 -0.20192283088E+02  0.28659684817E+01  0.20311711737E+03  0.20418123772E+03  0.41800000000E+01 0.  1.
         -5    1    3    3    0  502 -0.49839776238E+01 -0.11251575341E+03  0.15664279419E+03  0.19297427852E+03  0.41800000000E+01 0.  1.
        -11    1    4    4    0    0  0.40182414680E+02  0.43892000635E+02  0.11232303182E+03  0.12711253929E+03  0.00000000000E+00 0.  1.
         11    1    4    4    0    0 -0.15006153968E+02  0.65757784296E+02  0.23404705927E+02  0.71393634954E+02  0.00000000000E+00 0. -1.
</event>
<event>
 8    1  0.6906553E-009  0.1305649E+03  0.7561462E-02  0.1226620E+00
          1   -1    0    0  501    0  0.00000000000E+00  0.00000000000E+00  0.81726373285E+03  0.81726373285E+03  0.00000000000E+00 0. -1.
         -1   -1    0    0    0  501 -0.00000000000E+00 -0.00000000000E+00 -0.27631878997E+02  0.27631878997E+02  0.00000000000E+00 0.  1.
         25    2    1    2    0    0  0.83680642032E+02 -0.34288215759E+02  0.56858678856E+03  0.58916583288E+03  0.12508921183E+03 0.  0.
         23    2    1    2    0    0 -0.83680642032E+02  0.34288215759E+02  0.22104506529E+03  0.25572977897E+03  0.91425747851E+02 0.  0.
          5    1    3    3  502    0  0.33801822788E+02  0.47375399253E+02  0.23085342990E+03  0.23811293576E+03  0.41800000000E+01 0. -1.
         -5    1    3    3    0  502  0.49878819244E+02 -0.81663615012E+02  0.33773335866E+03  0.35105289712E+03  0.41800000000E+01 0. -1.
        -11    1    4    4    0    0 -0.72606845606E+02  0.17494412783E+01  0.20559379031E+03  0.21804499808E+03  0.00000000000E+00 0. -1.
         11    1    4    4    0    0 -0.11073796426E+02  0.32538774480E+02  0.15451274982E+02  0.37684780887E+02  0.00000000000E+00 0.  1.
</event>
<event>
 8    1  0.6906553E-009  0.1799292E+03  0.7561462E-02  0.1167872E+00
          2   -1    0    0  501    0  0.00000000000E+00  0.00000000000E+00  0.21479209330E+03  0.21479209330E+03  0.00000000000E+00 0. -1.
         -2   -1    0    0    0  501 -0.00000000000E+00 -0.00000000000E+00 -0.19942624124E+03  0.19942624124E+03  0.00000000000E+00 0.  1.
         25    2    1    2    0    0  0.74995210844E+02  0.15280143216E+03  0.51794506625E+02  0.21749227691E+03  0.12509060828E+03 0.  0.
         23    2    1    2    0    0 -0.74995210844E+02 -0.15280143216E+03 -0.36428654566E+02  0.19672605763E+03  0.91659890669E+02 0.  0.
          5    1    3    3  502    0  0.18358551259E+02  0.75363708811E+02 -0.37592645889E+02  0.86298345494E+02  0.41800000000E+01 0.  1.
         -5    1    3    3    0  502  0.56636659585E+02  0.77437723345E+02  0.89387152514E+02  0.13119393142E+03  0.41800000000E+01 0.  1.
        -11    1    4    4    0    0 -0.89412794653E+02 -0.11485549407E+03 -0.50032520041E+02  0.15391453936E+03  0.00000000000E+00 0.  1.
         11    1    4    4    0    0  0.14417583810E+02 -0.37945938088E+02  0.13603865475E+02  0.42811518265E+02  0.00000000000E+00 0. -1.
</event>
<event>
 8    1  0.6906553E-009  0.9152632E+02  0.7561462E-02  0.1299197E+00
         -1   -1    0    0    0  501 -0.00000000000E+00  0.00000000000E+00  0.10717398374E+03  0.10717398374E+03  0.00000000000E+00 0.  1.
          1   -1    0    0  501    0  0.00000000000E+00 -0.00000000000E+00 -0.14212670121E+03  0.14212670121E+03  0.00000000000E+00 0. -1.
         25    2    1    2    0    0 -0.26574780241E+02 -0.38692015043E+02 -0.54191447287E+02  0.14417493082E+03  0.12508559767E+03 0.  0.
         23    2    1    2    0    0  0.26574780241E+02  0.38692015043E+02  0.19238729826E+02  0.10512575413E+03  0.92076079868E+02 0.  0.
          5    1    3    3  502    0 -0.46269930563E+02 -0.37637507383E+02 -0.87060683398E+02  0.10561497730E+03  0.41800000000E+01 0.  1.
         -5    1    3    3    0  502  0.19695150322E+02 -0.10545076603E+01  0.32869236112E+02  0.38559953516E+02  0.41800000000E+01 0.  1.
        -11    1    4    4    0    0  0.16178786919E+02  0.69097651626E+02  0.98381076728E+01  0.71645146164E+02  0.00000000000E+00 0. -1.
         11    1    4    4    0    0  0.10395993322E+02 -0.30405636582E+02  0.94006221528E+01  0.33480607969E+02  0.00000000000E+00 0.  1.
</event>
<event>
 8    1  0.6906553E-009  0.1823016E+03  0.7561462E-02  0.1165594E+00
          1   -1    0    0  501    0  0.00000000000E+00  0.00000000000E+00  0.18505194641E+03  0.18505194641E+03  0.00000000000E+00 0. -1.
         -1   -1    0    0    0  501 -0.00000000000E+00 -0.00000000000E+00 -0.21204877995E+03  0.21204877995E+03  0.00000000000E+00 0.  1.
         25    2    1    2    0    0  0.11385050724E+03 -0.99918473115E+02 -0.72231234232E+02  0.20931075529E+03  0.12509197340E+03 0.  0.
         23    2    1    2    0    0 -0.11385050724E+03  0.99918473115E+02  0.45234400693E+02  0.18778997107E+03  0.10135720478E+03 0.  0.
          5    1    3    3  502    0  0.11881283342E+03 -0.42970696245E+02 -0.82678443107E+02  0.15105021508E+03  0.41800000000E+01 0.  1.
         -5    1    3    3    0  502 -0.49623261778E+01 -0.56947776870E+02  0.10447208875E+02  0.58260540203E+02  0.41800000000E+01 0.  1.
        -11    1    4    4    0    0 -0.12808438994E+03  0.10514125202E+03  0.34639672503E+02  0.16929323889E+03  0.00000000000E+00 0.  1.
         11    1    4    4    0    0  0.14233882693E+02 -0.52227789094E+01  0.10594728189E+02  0.18496732184E+02  0.00000000000E+00 0. -1.
</event>
<event>
 8    1  0.6906553E-009  0.2030088E+03  0.7561462E-02  0.1147225E+00
         -3   -1    0    0    0  501 -0.00000000000E+00  0.00000000000E+00  0.60449537377E+03  0.60449537377E+03  0.00000000000E+00 0.  1.
          3   -1    0    0  501    0  0.00000000000E+00 -0.00000000000E+00 -0.10824749890E+03  0.10824749890E+03  0.00000000000E+00 0. -1.
         25    2    1    2    0    0  0.42017127073E+02 -0.17854466576E+03  0.45187960243E+03  0.50347454300E+03  0.12509118159E+03 0.  0.
         23    2    1    2    0    0 -0.42017127073E+02  0.17854466576E+03  0.44368272436E+02  0.20926832968E+03  0.90449176730E+02 0.  0.
          5    1    3    3  502    0 -0.41869651691E+02 -0.31319983364E+02  0.10171894657E+03  0.11444747958E+03  0.41800000000E+01 0.  1.
         -5    1    3    3    0  502  0.83886778764E+02 -0.14722468239E+03  0.35016065586E+03  0.38902706342E+03  0.41800000000E+01 0.  1.
        -11    1    4    4    0    0 -0.15467673188E+02  0.99141776174E+02  0.69259098959E+02  0.12192277673E+03  0.00000000000E+00 0.  1.
         11    1    4    4    0    0 -0.26549453885E+02  0.79402889581E+02 -0.24890826522E+02  0.87345552951E+02  0.00000000000E+00 0. -1.
</event>
<event>
 8    1  0.6906553E-009  0.1229415E+03  0.7561462E-02  0.1238322E+00
         -1   -1    0    0    0  501 -0.00000000000E+00  0.00000000000E+00  0.45251332963E+03  0.45251332963E+03  0.00000000000E+00 0.  1.
          1   -1    0    0  501    0  0.00000000000E+00 -0.00000000000E+00 -0.42965445973E+02  0.42965445973E+02  0.00000000000E+00 0. -1.
         25    2    1    2    0    0  0.26488343129E+02 -0.63402513725E+02  0.12675748608E+03  0.19088566473E+03  0.12509342770E+03 0.  0.
         23    2    1    2    0    0 -0.26488343129E+02  0.63402513725E+02  0.28279039758E+03  0.30459311087E+03  0.89916868053E+02 0.  0.
          5    1    3    3  502    0  0.64027774859E+02 -0.20138850011E+01  0.88359888659E+02  0.10921791982E+03  0.41800000000E+01 0.  1.
         -5    1    3    3    0  502 -0.37539431730E+02 -0.61388628724E+02  0.38397597421E+02  0.81667744911E+02  0.41800000000E+01 0.  1.
        -11    1    4    4    0    0 -0.56302938716E+02  0.26670840548E+02  0.12198990186E+03  0.13697770183E+03  0.00000000000E+00 0.  1.
         11    1    4    4    0    0  0.29814595587E+02  0.36731673176E+02  0.16080049572E+03  0.16761540904E+03  0.00000000000E+00 0. -1.
</event>
<event>
 8    1  0.6906553E-009  0.1390632E+03  0.7561462E-02  0.1214595E+00
          2   -1    0    0  501    0  0.00000000000E+00  0.00000000000E+00  0.20208585650E+03  0.20208585650E+03  0.00000000000E+00 0. -1.
         -2   -1    0    0    0  501 -0.00000000000E+00 -0.00000000000E+00 -0.11317340023E+03  0.11317340023E+03  0.00000000000E+00 0.  1.
         25    2    1    2    0    0  0.35332491330E+02  0.93291961954E+02  0.18200806623E+02  0.16103105613E+03  0.12509179256E+03 0.  0.
         23    2    1    2    0    0 -0.35332491330E+02 -0.93291961954E+02  0.70711649645E+02  0.15422820061E+03  0.93991623880E+02 0.  0.
          5    1    3    3  502    0  0.66555677762E+02  0.86237652378E+02  0.46102973329E+02  0.11836193425E+03  0.41800000000E+01 0.  1.
         -5    1    3    3    0  502 -0.31223186432E+02  0.70543095760E+01 -0.27902166707E+02  0.42669121874E+02  0.41800000000E+01 0.  1.
        -11    1    4    4    0    0 -0.60747009205E+02 -0.28240318143E+02  0.39110131950E+02  0.77571367896E+02  0.00000000000E+00 0. -1.
         11    1    4    4    0    0  0.25414517875E+02 -0.65051643811E+02  0.31601517695E+02  0.76656832715E+02  0.00000000000E+00 0.  1.
</event>
<event>
 8    1  0.6906553E-009  0.8920728E+02  0.7561462E-02  0.1304783E+00
          2   -1    0    0  501    0  0.00000000000E+00  0.00000000000E+00  0.49490600136E+03  0.49490600136E+03  0.00000000000E+00 0.  1.
         -2   -1    0    0    0  501 -0.00000000000E+00 -0.00000000000E+00 -0.29144906782E+02  0.29144906782E+02  0.00000000000E+00 0. -1.
         25    2    1    2    0    0  0.11482852073E+02 -0.51065844224E+02  0.25478836799E+03  0.28862423714E+03  0.12508901416E+03 0.  0.
         23    2    1    2    0    0 -0.11482852073E+02  0.51065844224E+02  0.21097272659E+03  0.23542667100E+03  0.90424829098E+02 0.  0.
          5    1    3    3  502    0 -0.18402478722E+02 -0.58213284788E+01  0.22643107901E+03  0.22729066199E+03  0.41800000000E+01 0.  1.
         -5    1    3    3    0  502  0.29885330795E+02 -0.45244515745E+02  0.28357288979E+02  0.61333575145E+02  0.41800000000E+01 0.  1.
        -11    1    4    4    0    0  0.12513042967E+02 -0.23132156736E+02  0.59723355840E+02  0.65257583102E+02  0.00000000000E+00 0. -1.
         11    1    4    4    0    0 -0.23995895040E+02  0.74198000960E+02  0.15124937075E+03  0.17016908790E+03  0.00000000000E+00 0.  1.
</event>
<event>
 8    1  0.6906553E-009  0.7880775E+02  0.7561462E-02  0.1332469E+00
          1   -1    0    0  501    0  0.00000000000E+00  0.00000000000E+00  0.87289703438E+02  0.87289703438E+02  0.00000000000E+00 0. -1.
         -1   -1    0    0    0  501 -0.00000000000E+00 -0.00000000000E+00 -0.17775490755E+03  0.17775490755E+03  0.00000000000E+00 0.  1.
         25    2    1    2    0    0 -0.11799504627E+02  0.35251340543E+02 -0.10060539402E+03  0.16476952748E+03  0.12508263892E+03 0.  0.
         23    2    1    2    0    0  0.11799504627E+02 -0.35251340543E+02  0.10140189909E+02  0.10027508352E+03  0.92576366333E+02 0.  0.
          5    1    3    3  502    0  0.41545710485E+02 -0.68832326093E+01  0.11387697037E+01  0.42334314065E+02  0.41800000000E+01 0.  1.
         -5    1    3    3    0  502 -0.53345215112E+02  0.42134573152E+02 -0.10174416373E+03  0.12243521341E+03  0.41800000000E+01 0.  1.
        -11    1    4    4    0    0  0.21582612354E+02 -0.23799906062E+02 -0.38041860878E+02  0.49793853673E+02  0.00000000000E+00 0.  1.
         11    1    4    4    0    0 -0.97831077274E+01 -0.11451434481E+02  0.48182050787E+02  0.50481229843E+02  0.00000000000E+00 0. -1.
</event>
<event>
 8    1  0.6906553E-009  0.1038078E+03  0.7561462E-02  0.1272486E+00
         -1   -1    0    0    0  501 -0.00000000000E+00  0.00000000000E+00  0.71170455507E+02  0.71170455507E+02  0.00000000000E+00 0.  1.
          1   -1    0    0  501    0  0.00000000000E+00 -0.00000000000E+00 -0.24478465498E+03  0.24478465498E+03  0.00000000000E+00 0. -1.
         25    2    1    2    0    0 -0.70185855971E+02  0.17049987163E+02 -0.79927395075E+02  0.16508470132E+03  0.12509122145E+03 0.  0.
         23    2    1    2    0    0  0.70185855971E+02 -0.17049987163E+02 -0.93686804403E+02  0.15087040917E+03  0.93637100578E+02 0.  0.
          5    1    3    3  502    0 -0.72399863336E+02  0.28087575711E+02 -0.10884462036E+03  0.13377322566E+03  0.41800000000E+01 0.  1.
         -5    1    3    3    0  502  0.22140073652E+01 -0.11037588548E+02  0.28917225289E+02  0.31311475660E+02  0.41800000000E+01 0.  1.
        -11    1    4    4    0    0  0.29302107431E+02 -0.54831196063E+02 -0.43072759645E+02  0.75632904116E+02  0.00000000000E+00 0. -1.
         11    1    4    4    0    0  0.40883748540E+02  0.37781208900E+02 -0.50614044758E+02  0.75237505059E+02  0.00000000000E+00 0.  1.
</event>
<event>
 8    1  0.6906553E-009  0.8516559E+02  0.7561462E-02  0.1315000E+00
          2   -1    0    0  501    0  0.00000000000E+00  0.00000000000E+00  0.13607583381E+04  0.13607583381E+04  0.00000000000E+00 0. -1.
         -2   -1    0    0    0  501 -0.00000000000E+00 -0.00000000000E+00 -0.10323418827E+02  0.10323418827E+02  0.00000000000E+00 0.  1.
         25    2    1    2    0    0  0.26854428134E+02  0.17867715074E+02  0.97152528913E+03  0.98007615420E+03  0.12508982795E+03 0.  0.
         23    2    1    2    0    0 -0.26854428134E+02 -0.17867715074E+02  0.37890963014E+03  0.39100560273E+03  0.90953053808E+02 0.  0.
          5    1    3    3  502    0  0.50323715468E+02 -0.14659759607E+01  0.90920631054E+03  0.91060870463E+03  0.41800000000E+01 0. -1.
         -5    1    3    3    0  502 -0.23469287334E+02  0.19333691035E+02  0.62318978593E+02  0.69467449571E+02  0.41800000000E+01 0. -1.
        -11    1    4    4    0    0 -0.38796644045E+02  0.23974570099E+02  0.11826830308E+03  0.12675705548E+03  0.00000000000E+00 0.  1.
         11    1    4    4    0    0  0.11942215911E+02 -0.41842285173E+02  0.26064132707E+03  0.26424854725E+03  0.00000000000E+00 0. -1.
</event>
<event>
 8    1  0.6906553E-009  0.1502489E+03  0.7561462E-02  0.1200168E+00
         -2   -1    0    0    0  501 -0.00000000000E+00  0.00000000000E+00  0.39812251285E+02  0.39812251285E+02  0.00000000000E+00 0. -1.
          2   -1    0    0  501    0  0.00000000000E+00 -0.00000000000E+00 -0.61924510675E+03  0.61924510675E+03  0.00000000000E+00 0.  1.
         25    2    1    2    0    0 -0.79484059490E+02 -0.75391309722E+02 -0.24576148601E+03  0.29672864346E+03  0.12509042550E+03 0.  0.
         23    2    1    2    0    0  0.79484059490E+02  0.75391309722E+02 -0.33367136946E+03  0.36232871458E+03  0.89128835482E+02 0.  0.
          5    1    3    3  502    0  0.12257322327E+02 -0.73276730737E+02 -0.11136021712E+03  0.13393390749E+03  0.41800000000E+01 0. -1.
         -5    1    3    3    0  502 -0.91741381817E+02 -0.21145789846E+01 -0.13440126888E+03  0.16279473597E+03  0.41800000000E+01 0. -1.
        -11    1    4    4    0    0  0.63927598642E+00  0.51970860829E+02 -0.18787946033E+03  0.19493606815E+03  0.00000000000E+00 0.  1.
         11    1    4    4    0    0  0.78844783503E+02  0.23420448892E+02 -0.14579190913E+03  0.16739264643E+03  0.00000000000E+00 0. -1.
</event>
<event>
 8    1  0.6906553E-009  0.1553840E+03  0.7561462E-02  0.1194009E+00
          1   -1    0    0  501    0  0.00000000000E+00  0.00000000000E+00  0.16437288757E+02  0.16437288757E+02  0.00000000000E+00 0. -1.
         -1   -1    0    0    0  501 -0.00000000000E+00 -0.00000000000E+00 -0.14847128714E+04  0.14847128714E+04  0.00000000000E+00 0.  1.
         25    2    1    2    0    0  0.62767513552E+02 -0.91388134063E+02 -0.78628445392E+03  0.80385489092E+03  0.12509153198E+03 0.  0.
         23    2    1    2    0    0 -0.62767513552E+02  0.91388134063E+02 -0.68199112873E+03  0.69729526925E+03  0.93900165289E+02 0.  0.
          5    1    3    3  502    0  0.35019685814E+00  0.30095565587E+02 -0.15516122708E+03  0.15810864776E+03  0.41800000000E+01 0. -1.
         -5    1    3    3    0  502  0.62417316693E+02 -0.12148369965E+03 -0.63112322683E+03  0.64574624316E+03  0.41800000000E+01 0. -1.
        -11    1    4    4    0    0 -0.44642259950E+02 -0.56702395899E+01 -0.26343609312E+03  0.26725204985E+03  0.00000000000E+00 0.  1.
         11    1    4    4    0    0 -0.18125253601E+02  0.97058373653E+02 -0.41855503562E+03  0.43004321940E+03  0.00000000000E+00 0. -1.
</event>
<event>
 8    1  0.6906553E-009  0.8932323E+02  0.7561462E-02  0.1304499E+00
         -2   -1    0    0    0  501 -0.00000000000E+00  0.00000000000E+00  0.25946635980E+02  0.25946635980E+02  0.00000000000E+00 0.  1.
          2   -1    0    0  501    0  0.00000000000E+00 -0.00000000000E+00 -0.76235610695E+03  0.76235610695E+03  0.00000000000E+00 0. -1.
         25    2    1    2    0    0 -0.29919416093E+02 -0.36219059303E+02 -0.61726489277E+03  0.63156212275E+03  0.12509106813E+03 0.  0.
         23    2    1    2    0    0  0.29919416093E+02  0.36219059303E+02 -0.11914457820E+03  0.15674062019E+03  0.90361495036E+02 0.  0.
          5    1    3    3  502    0 -0.34283521198E+02 -0.79661451173E+02 -0.34336693784E+03  0.35417457988E+03  0.41800000000E+01 0.  1.
         -5    1    3    3    0  502  0.43641051048E+01  0.43442391870E+02 -0.27389795493E+03  0.27738754287E+03  0.41800000000E+01 0.  1.
        -11    1    4    4    0    0  0.12605519970E+02  0.82498939442E+01  0.13407873189E+02  0.20167571675E+02  0.00000000000E+00 0.  1.
         11    1    4    4    0    0  0.17313896123E+02  0.27969165358E+02 -0.13255245139E+03  0.13657304851E+03  0.00000000000E+00 0. -1.
</event>
<event>
 8    1  0.6906553E-009  0.1067534E+03  0.7561462E-02  0.1266703E+00
          4   -1    0    0  501    0  0.00000000000E+00  0.00000000000E+00  0.60734215202E+03  0.60734215202E+03  0.00000000000E+00 0.  1.
         -4   -1    0    0    0  501 -0.00000000000E+00 -0.00000000000E+00 -0.28277920644E+02  0.28277920644E+02  0.00000000000E+00 0. -1.
         25    2    1    2    0    0 -0.27398076074E+02 -0.68280744563E+02  0.31250685199E+03  0.34455930941E+03  0.12509064919E+03 0.  0.
         23    2    1    2    0    0  0.27398076074E+02  0.68280744563E+02  0.26655737940E+03  0.29106076326E+03  0.90832905637E+02 0.  0.
          5    1    3    3  502    0 -0.33361289044E+02  0.16155470133E+02  0.20136864986E+03  0.20479448325E+03  0.41800000000E+01 0.  1.
         -5    1    3    3    0  502  0.59632129701E+01 -0.84436214696E+02  0.11113820212E+03  0.13976482616E+03  0.41800000000E+01 0.  1.
        -11    1    4    4    0    0  0.38457606111E+02  0.22928791245E+02  0.40955880257E+02  0.60680318583E+02  0.00000000000E+00 0. -1.
         11    1    4    4    0    0 -0.11059530036E+02  0.45351953318E+02  0.22560149914E+03  0.23038044467E+03  0.00000000000E+00 0.  1.
</event>
<event>
 8    1  0.6906553E-009  0.9400531E+02  0.7561462E-02  0.1293432E+00
         -2   -1    0    0    0  501 -0.00000000000E+00  0.00000000000E+00  0.43077509871E+03  0.43077509871E+03  0.00000000000E+00 0.  1.
          2   -1    0    0  501    0  0.00000000000E+00 -0.00000000000E+00 -0.31764457110E+02  0.31764457110E+02  0.00000000000E+00 0. -1.
         25    2    1    2    0    0 -0.65043417373E+01  0.28221716417E+02  0.29551346256E+03  0.32220414918E+03  0.12509410639E+03 0.  0.
         23    2    1    2    0    0  0.65043417373E+01 -0.28221716417E+02  0.10349717903E+03  0.14033540663E+03  0.90241833695E+02 0.  0.
          5    1    3    3  502    0  0.11123052008E+02  0.65625200454E+02  0.87172227072E+02  0.10975818326E+03  0.41800000000E+01 0.  1.
         -5    1    3    3    0  502 -0.17627393746E+02 -0.37403484037E+02  0.20834123549E+03  0.21244596592E+03  0.41800000000E+01 0.  1.
        -11    1    4    4    0    0 -0.29311703024E+02  0.63361299493E+01  0.79727159382E+02  0.85180645807E+02  0.00000000000E+00 0.  1.
         11    1    4    4    0    0  0.35816044761E+02 -0.34557846367E+02  0.23770019650E+02  0.55154760828E+02  0.00000000000E+00 0. -1.
</event>
<event>
 8    1  0.6906553E-009  0.9636171E+02  0.7561462E-02  0.1288138E+00
          1   -1    0    0  501    0  0.00000000000E+00  0.00000000000E+00  0.27244651219E+03  0.27244651219E+03  0.00000000000E+00 0. -1.
         -1   -1    0    0    0  501 -0.00000000000E+00 -0.00000000000E+00 -0.41318574179E+02  0.41318574179E+02  0.00000000000E+00 0.  1.
         25    2    1    2    0    0 -0.15167814901E+02 -0.15799158551E+02  0.12662626177E+03  0.17933837388E+03  0.12509342970E+03 0.  0.
         23    2    1    2    0    0  0.15167814901E+02  0.15799158551E+02  0.10450167624E+03  0.13442671249E+03  0.81671688329E+02 0.  0.
          5    1    3    3  502    0 -0.45236563109E+02 -0.58808466628E+02  0.71887957534E+02  0.10339310048E+03  0.41800000000E+01 0. -1.
         -5    1    3    3    0  502  0.30068748207E+02  0.43009308077E+02  0.54738304239E+02  0.75945273394E+02  0.41800000000E+01 0. -1.
        -11    1    4    4    0    0  0.39074096681E+02  0.45223470531E+01  0.10020293421E+03  0.10764694458E+03  0.00000000000E+00 0. -1.
         11    1    4    4    0    0 -0.23906281780E+02  0.11276811497E+02  0.42987420302E+01  0.26779767907E+02  0.00000000000E+00 0.  1.
</event>
<event>
 8    1  0.6906553E-009  0.1403350E+03  0.7561462E-02  0.1212879E+00
          2   -1    0    0  501    0  0.00000000000E+00  0.00000000000E+00  0.44665706665E+03  0.44665706665E+03  0.00000000000E+00 0. -1.
         -2   -1    0    0    0  501 -0.00000000000E+00 -0.00000000000E+00 -0.50779484689E+02  0.50779484689E+02  0.00000000000E+00 0.  1.
         25    2    1    2    0    0 -0.52605315640E+02  0.77173032685E+02  0.28952073184E+03  0.32892677072E+03  0.12509024792E+03 0.  0.
         23    2    1    2    0    0  0.52605315640E+02 -0.77173032685E+02  0.10635685012E+03  0.16850978062E+03  0.91437248365E+02 0.  0.
          5    1    3    3  502    0 -0.71278466980E+02 -0.51983878741E+00  0.17697760475E+03  0.19083876721E+03  0.41800000000E+01 0. -1.
         -5    1    3    3    0  502  0.18673151339E+02  0.77692871472E+02  0.11254312709E+03  0.13808800351E+03  0.41800000000E+01 0. -1.
        -11    1    4    4    0    0  0.77000170117E+02 -0.69370507405E+02  0.94620751039E+02  0.14033666671E+03  0.00000000000E+00 0. -1.
         11    1    4    4    0    0 -0.24394854477E+02 -0.78025252805E+01  0.11736099085E+02  0.28173113911E+02  0.00000000000E+00 0.  1.
</event>
<event>
 8    1  0.6906553E-009  0.3428193E+03  0.7561462E-02  0.1065601E+00
         -2   -1    0    0    0  501 -0.00000000000E+00  0.00000000000E+00  0.14766015018E+04  0.14766015018E+04  0.00000000000E+00 0.  1.
          2   -1    0    0  501    0  0.00000000000E+00 -0.00000000000E+00 -0.87464332252E+02  0.87464332252E+02  0.00000000000E+00 0. -1.
         25    2    1    2    0    0 -0.33008546725E+03  0.55907280521E+02  0.54818073729E+03  0.65439415767E+03  0.12509018007E+03 0.  0.
         23    2    1    2    0    0  0.33008546725E+03 -0.55907280521E+02  0.84095643226E+03  0.90967167639E+03  0.90624489766E+02 0.  0.
          5    1    3    3  502    0 -0.32061571722E+03  0.73910435918E+02  0.53940666473E+03  0.63184983423E+03  0.41800000000E+01 0.  1.
         -5    1    3    3    0  502 -0.94697500327E+01 -0.18003155397E+02  0.87740725604E+01  0.22544323437E+02  0.41800000000E+01 0.  1.
        -11    1    4    4    0    0  0.17737708237E+03 -0.16714275581E+02  0.55806528004E+03  0.58581469182E+03  0.00000000000E+00 0.  1.
         11    1    4    4    0    0  0.15270838488E+03 -0.39193004940E+02  0.28289115222E+03  0.32385698457E+03  0.00000000000E+00 0. -1.
</event>
<event>
 8    1  0.6906553E-009  0.1590502E+03  0.7561462E-02  0.1189773E+00
          1   -1    0    0  501    0  0.00000000000E+00  0.00000000000E+00  0.47804537543E+03  0.47804537543E+03  0.00000000000E+00 0. -1.
         -1   -1    0    0    0  501 -0.00000000000E+00 -0.00000000000E+00 -0.54062458249E+02  0.54062458249E+02  0.00000000000E+00 0.  1.
         25    2    1    2    0    0 -0.93152260201E+02 -0.72548736902E+02  0.22010379125E+03  0.27934491667E+03  0.12508893133E+03 0.  0.
         23    2    1    2    0    0  0.93152260201E+02  0.72548736902E+02  0.20387912593E+03  0.25276291701E+03  0.91551796358E+02 0.  0.
          5    1    3    3  502    0 -0.11789471128E+03 -0.81215933354E+02  0.16721393581E+03  0.22016621790E+03  0.41800000000E+01 0. -1.
         -5    1    3    3    0  502  0.24742451074E+02  0.86671964522E+01  0.52889855440E+02  0.59178698769E+02  0.41800000000E+01 0. -1.
        -11    1    4    4    0    0 -0.17399089628E+02  0.28212740029E+01  0.15445074059E+02  0.23435831958E+02  0.00000000000E+00 0.  1.
         11    1    4    4    0    0  0.11055134983E+03  0.69727462899E+02  0.18843405188E+03  0.22932708505E+03  0.00000000000E+00 0. -1.
</event>
<event>
 8    1  0.6906553E-009  0.1558395E+03  0.7561462E-02  0.1193476E+00
         -2   -1    0    0    0  501 -0.00000000000E+00  0.00000000000E+00  0.29607844656E+02  0.29607844656E+02  0.00000000000E+00 0.  1.
          2   -1    0    0  501    0  0.00000000000E+00 -0.00000000000E+00 -0.83971266722E+03  0.83971266722E+03  0.00000000000E+00 0. -1.
         25    2    1    2    0    0 -0.51260500804E+01 -0.11226867533E+03 -0.38538158065E+03  0.42047329738E+03  0.12509316229E+03 0.  0.
         23    2    1    2    0    0  0.51260500804E+01  0.11226867533E+03 -0.42472324191E+03  0.44884721450E+03  0.91888290297E+02 0.  0.
          5    1    3    3  502    0  0.58007605775E+02 -0.71370631480E+02 -0.23161284340E+03  0.24924010711E+03  0.41800000000E+01 0. -1.
         -5    1    3    3    0  502 -0.63133655855E+02 -0.40898043850E+02 -0.15376873726E+03  0.17123319027E+03  0.41800000000E+01 0. -1.
        -11    1    4    4    0    0  0.45108949807E+02  0.34360152864E+02 -0.14317941371E+03  0.15399929210E+03  0.00000000000E+00 0.  1.
         11    1    4    4    0    0 -0.39982899727E+02  0.77908522466E+02 -0.28154382821E+03  0.29484792240E+03  0.00000000000E+00 0. -1.
</event>
<event>
 8    1  0.6906553E-009  0.1068025E+03  0.7561462E-02  0.1266608E+00
          2   -1    0    0  501    0  0.00000000000E+00  0.00000000000E+00  0.53480124733E+02  0.53480124733E+02  0.00000000000E+00 0.  1.
         -2   -1    0    0    0  501 -0.00000000000E+00 -0.00000000000E+00 -0.27397378323E+03  0.27397378323E+03  0.00000000000E+00 0. -1.
         25    2    1    2    0    0  0.39754261677E+01  0.51504532617E+02 -0.15005462636E+03  0.20206818818E+03  0.12508653361E+03 0.  0.
         23    2    1    2    0    0 -0.39754261677E+01 -0.51504532617E+02 -0.70439032133E+02  0.12538571978E+03  0.89952212777E+02 0.  0.
          5    1    3    3  502    0  0.42385740772E+02  0.77045396021E+02 -0.86421257554E+02  0.12336389353E+03  0.41800000000E+01 0. -1.
         -5    1    3    3    0  502 -0.38410314604E+02 -0.25540863404E+02 -0.63633368807E+02  0.78704294655E+02  0.41800000000E+01 0. -1.
        -11    1    4    4    0    0 -0.18627872030E+02 -0.59649757570E+02 -0.83386575583E+02  0.10420370522E+03  0.00000000000E+00 0. -1.
         11    1    4    4    0    0  0.14652445862E+02  0.81452249534E+01  0.12947543450E+02  0.21182014557E+02  0.00000000000E+00 0.  1.
</event>
<event>
 8    1  0.6906553E-009  0.1941700E+03  0.7561462E-02  0.1154753E+00
         -1   -1    0    0    0  501 -0.00000000000E+00  0.00000000000E+00  0.13600192096E+03  0.13600192096E+03  0.00000000000E+00 0.  1.
          1   -1    0    0  501    0  0.00000000000E+00 -0.00000000000E+00 -0.33377995310E+03  0.33377995310E+03  0.00000000000E+00 0. -1.
         25    2    1    2    0    0  0.14414997289E+03  0.11288290101E+03 -0.11131210995E+03  0.24810475593E+03  0.12507525762E+03 0.  0.
         23    2    1    2    0    0 -0.14414997289E+03 -0.11288290101E+03 -0.86465922187E+02  0.22167711813E+03  0.90236494710E+02 0.  0.
          5    1    3    3  502    0  0.10081306831E+03  0.12406739475E+03 -0.12289527757E+03  0.20168469161E+03  0.41800000000E+01 0. -1.
         -5    1    3    3    0  502  0.43336904587E+02 -0.11184493736E+02  0.11583167620E+02  0.46420064319E+02  0.41800000000E+01 0. -1.
        -11    1    4    4    0    0 -0.76072093881E+02 -0.52058613248E+02  0.51740270315E+01  0.92324607968E+02  0.00000000000E+00 0.  1.
         11    1    4    4    0    0 -0.68077879012E+02 -0.60824287765E+02 -0.91639949219E+02  0.12935251016E+03  0.00000000000E+00 0. -1.
</event>
<event>
 8    1  0.6906553E-009  0.3243117E+03  0.7561462E-02  0.1073682E+00
          1   -1    0    0  501    0  0.00000000000E+00  0.00000000000E+00  0.15137983766E+04  0.15137983766E+04  0.00000000000E+00 0. -1.
         -1   -1    0    0    0  501 -0.00000000000E+00 -0.00000000000E+00 -0.81351402465E+02  0.81351402465E+02  0.00000000000E+00 0.  1.
         25    2    1    2    0    0  0.31625588616E+03  0.31463529852E+02  0.50074394903E+03  0.60613485690E+03  0.12508886046E+03 0.  0.
         23    2    1    2    0    0 -0.31625588616E+03 -0.31463529852E+02  0.93170302512E+03  0.98901492218E+03  0.95248359784E+02 0.  0.
          5    1    3    3  502    0  0.31741683278E+03  0.35562484772E+02  0.43272018412E+03  0.53784976173E+03  0.41800000000E+01 0.  1.
         -5    1    3    3    0  502 -0.11609466147E+01 -0.40989549197E+01  0.68023764915E+02  0.68285095165E+02  0.41800000000E+01 0.  1.
        -11    1    4    4    0    0 -0.21255248089E+03 -0.48799454324E+02  0.51541076161E+03  0.55965006661E+03  0.00000000000E+00 0. -1.
         11    1    4    4    0    0 -0.10370340527E+03  0.17335924472E+02  0.41629226351E+03  0.42936485557E+03  0.00000000000E+00 0.  1.
</event>
<event>
 8    1  0.6906553E-009  0.7635949E+02  0.7561462E-02  0.1339712E+00
          1   -1    0    0  501    0  0.00000000000E+00  0.00000000000E+00  0.20508272953E+03  0.20508272953E+03  0.00000000000E+00 0. -1.
         -1   -1    0    0    0  501 -0.00000000000E+00 -0.00000000000E+00 -0.65708637297E+02  0.65708637297E+02  0.00000000000E+00 0.  1.
         25    2    1    2    0    0  0.85592187714E+01  0.40121700019E+02  0.56109401455E+02  0.14312142186E+03  0.12510981347E+03 0.  0.
         23    2    1    2    0    0 -0.85592187714E+01 -0.40121700019E+02  0.83264690777E+02  0.12766994496E+03  0.87656118313E+02 0.  0.
          5    1    3    3  502    0 -0.24924925337E+02  0.64958844001E+02  0.70190302412E+02  0.98919433226E+02  0.41800000000E+01 0. -1.
         -5    1    3    3    0  502  0.33484144108E+02 -0.24837143982E+02 -0.14080900957E+02  0.44201988639E+02  0.41800000000E+01 0. -1.
        -11    1    4    4    0    0 -0.52883466806E+01 -0.30504700161E+02  0.10187086272E+03  0.10647147981E+03  0.00000000000E+00 0. -1.
         11    1    4    4    0    0 -0.32708720908E+01 -0.96169998587E+01 -0.18606171939E+02  0.21198465150E+02  0.00000000000E+00 0.  1.
</event>
<event>
 8    1  0.6906553E-009  0.9416252E+02  0.7561462E-02  0.1293074E+00
         -2   -1    0    0    0  501 -0.00000000000E+00  0.00000000000E+00  0.15852452758E+02  0.15852452758E+02  0.00000000000E+00 0.  1.
          2   -1    0    0  501    0  0.00000000000E+00 -0.00000000000E+00 -0.89899522459E+03  0.89899522459E+03  0.00000000000E+00 0. -1.
         25    2    1    2    0    0  0.30928375001E+02  0.40020326513E+02 -0.53881607675E+03  0.55545443456E+03  0.12509465774E+03 0.  0.
         23    2    1    2    0    0 -0.30928375001E+02 -0.40020326513E+02 -0.34432669509E+03  0.35939324279E+03  0.89690797184E+02 0.  0.
          5    1    3    3  502    0 -0.38479881238E+02  0.62696070145E+01 -0.33817544336E+03  0.34044105529E+03  0.41800000000E+01 0.  1.
         -5    1    3    3    0  502  0.69408256239E+02  0.33750719499E+02 -0.20064063339E+03  0.21501337927E+03  0.41800000000E+01 0.  1.
        -11    1    4    4    0    0 -0.45967478946E+01  0.12364689923E+02 -0.36207734218E+01  0.13679387715E+02  0.00000000000E+00 0.  1.
         11    1    4    4    0    0 -0.26331627106E+02 -0.52385016436E+02 -0.34070592166E+03  0.34571385507E+03  0.00000000000E+00 0. -1.
</event>
<event>
 8    1  0.6906553E-009  0.8004457E+02  0.7561462E-02  0.1328925E+00
          1   -1    0    0  501    0  0.00000000000E+00  0.00000000000E+00  0.25277545415E+03  0.25277545415E+03  0.00000000000E+00 0.  1.
         -1   -1    0    0    0  501 -0.00000000000E+00 -0.00000000000E+00 -0.47408003983E+02  0.47408003983E+02  0.00000000000E+00 0. -1.
         25    2    1    2    0    0  0.32067778277E+01 -0.14414658511E+02  0.13394912419E+03  0.18387419714E+03  0.12509710907E+03 0.  0.
         23    2    1    2    0    0 -0.32067778277E+01  0.14414658511E+02  0.71418325974E+02  0.11630926100E+03  0.90604641737E+02 0.  0.
          5    1    3    3  502    0 -0.55356178496E+01 -0.42033205391E+02  0.14609892425E+03  0.15218344682E+03  0.41800000000E+01 0.  1.
         -5    1    3    3    0  502  0.87423956773E+01  0.27618546879E+02 -0.12149800058E+02  0.31690750313E+02  0.41800000000E+01 0.  1.
        -11    1    4    4    0    0  0.41910796092E+02  0.65067936024E+01  0.18365695406E+02  0.46218523989E+02  0.00000000000E+00 0. -1.
         11    1    4    4    0    0 -0.45117573919E+02  0.79078649086E+01  0.53052630568E+02  0.70090737006E+02  0.00000000000E+00 0.  1.
</event>
<event>
 8    1  0.6906553E-009  0.9980651E+02  0.7561462E-02  0.1280703E+00
          2   -1    0    0  501    0  0.00000000000E+00  0.00000000000E+00  0.12894100381E+03  0.12894100381E+03  0.00000000000E+00 0. -1.
         -2   -1    0    0    0  501 -0.00000000000E+00 -0.00000000000E+00 -0.12428893113E+03  0.12428893113E+03  0.00000000000E+00 0.  1.
         25    2    1    2    0    0 -0.29494936053E+02 -0.50701804469E+02 -0.28166270938E+02  0.14100125914E+03  0.12508953606E+03 0.  0.
         23    2    1    2    0    0  0.29494936053E+02  0.50701804469E+02  0.32818343621E+02  0.11222867580E+03  0.89875512599E+02 0.  0.
          5    1    3    3  502    0 -0.36776206818E+02  0.11504729304E+02  0.34801354151E+02  0.52090832543E+02  0.41800000000E+01 0.  1.
         -5    1    3    3    0  502  0.72812707657E+01 -0.62206533773E+02 -0.62967625089E+02  0.88910426595E+02  0.41800000000E+01 0.  1.
        -11    1    4    4    0    0  0.55369547154E+02  0.22381273020E+02  0.41717055162E+02  0.72849302161E+02  0.00000000000E+00 0. -1.
         11    1    4    4    0    0 -0.25874611101E+02  0.28320531450E+02 -0.88987115408E+01  0.39379373640E+02  0.00000000000E+00 0.  1.
</event>
<event>
 8    1  0.6906553E-009  0.1010599E+03  0.7561462E-02  0.1278083E+00
          2   -1    0    0  501    0  0.00000000000E+00  0.00000000000E+00  0.21018795985E+03  0.21018795985E+03  0.00000000000E+00 0. -1.
         -2   -1    0    0    0  501 -0.00000000000E+00 -0.00000000000E+00 -0.60915261931E+02  0.60915261931E+02  0.00000000000E+00 0.  1.
         25    2    1    2    0    0  0.23863131028E+02  0.23263389935E+02  0.91565968783E+02  0.15856351770E+03  0.12508968052E+03 0.  0.
         23    2    1    2    0    0 -0.23863131028E+02 -0.23263389935E+02  0.57706729141E+02  0.11253970408E+03  0.90688941294E+02 0.  0.
          5    1    3    3  502    0 -0.46761061548E+02 -0.13819290145E+02  0.42519970051E+02  0.64830470539E+02  0.41800000000E+01 0. -1.
         -5    1    3    3    0  502  0.70624192576E+02  0.37082680080E+02  0.49045998732E+02  0.93733047164E+02  0.41800000000E+01 0. -1.
        -11    1    4    4    0    0 -0.46508022463E+02 -0.12100082409E+02  0.69642299330E+02  0.84613580492E+02  0.00000000000E+00 0. -1.
         11    1    4    4    0    0  0.22644891434E+02 -0.11163307526E+02 -0.11935570190E+02  0.27926123590E+02  0.00000000000E+00 0.  1.
</event>
<event>
 8    1  0.6906553E-009  0.1379559E+03  0.7561462E-02  0.1216106E+00
         -1   -1    0    0    0  501 -0.00000000000E+00  0.00000000000E+00  0.16505690940E+02  0.16505690940E+02  0.00000000000E+00 0.  1.
          1   -1    0    0  501    0  0.00000000000E+00 -0.00000000000E+00 -0.14380011225E+04  0.14380011225E+04  0.00000000000E+00 0. -1.
         25    2    1    2    0    0  0.42688060207E+02 -0.96391013067E+02 -0.90476186149E+03  0.91943046873E+03  0.12507942654E+03 0.  0.
         23    2    1    2    0    0 -0.42688060207E+02  0.96391013067E+02 -0.51673357003E+03  0.53507634467E+03  0.90441220367E+02 0.  0.
          5    1    3    3  502    0 -0.67702713948E+00  0.23713852311E+02 -0.31845124660E+03  0.31936104024E+03  0.41800000000E+01 0. -1.
         -5    1    3    3    0  502  0.43365087346E+02 -0.12010486538E+03 -0.58631061489E+03  0.60006942850E+03  0.41800000000E+01 0. -1.
        -11    1    4    4    0    0  0.15962430517E+02  0.38380751885E+02 -0.75397432385E+02  0.86096771795E+02  0.00000000000E+00 0.  1.
         11    1    4    4    0    0 -0.58650490724E+02  0.58010261183E+02 -0.44133613765E+03  0.44897957288E+03  0.00000000000E+00 0. -1.
</event>
<event>
 8    1  0.6906553E-009  0.1115709E+03  0.7561462E-02  0.1257688E+00
         -1   -1    0    0    0  501 -0.00000000000E+00  0.00000000000E+00  0.84975651401E+02  0.84975651401E+02  0.00000000000E+00 0.  1.
          1   -1    0    0  501    0  0.00000000000E+00 -0.00000000000E+00 -0.15726906410E+03  0.15726906410E+03  0.00000000000E+00 0. -1.
         25    2    1    2    0    0 -0.10527283246E+02  0.38944943016E+02 -0.43010934051E+02  0.13829434803E+03  0.12509138248E+03 0.  0.
         23    2    1    2    0    0  0.10527283246E+02 -0.38944943016E+02 -0.29282478647E+02  0.10395036747E+03  0.91217778215E+02 0.  0.
          5    1    3    3  502    0 -0.25227585519E+02  0.77674779952E+02 -0.50186794784E+01  0.81929616473E+02  0.41800000000E+01 0.  1.
         -5    1    3    3    0  502  0.14700302273E+02 -0.38729836936E+02 -0.37992254573E+02  0.56364731558E+02  0.41800000000E+01 0.  1.
        -11    1    4    4    0    0 -0.29534901816E+02 -0.50087552336E+02 -0.17828684032E+02  0.60818872882E+02  0.00000000000E+00 0. -1.
         11    1    4    4    0    0  0.40062185062E+02  0.11142609320E+02 -0.11453794614E+02  0.43131494589E+02  0.00000000000E+00 0.  1.
</event>
<event>
 8    1  0.6906553E-009  0.3450281E+03  0.7561462E-02  0.1064674E+00
         -1   -1    0    0    0  501 -0.00000000000E+00  0.00000000000E+00  0.19926772319E+03  0.19926772319E+03  0.00000000000E+00 0.  1.
          1   -1    0    0  501    0  0.00000000000E+00 -0.00000000000E+00 -0.61623147856E+03  0.61623147856E+03  0.00000000000E+00 0. -1.
         25    2    1    2    0    0 -0.33319624585E+03  0.16506722061E+02 -0.21479217988E+03  0.41602265909E+03  0.12508781803E+03 0.  0.
         23    2    1    2    0    0  0.33319624585E+03 -0.16506722061E+02 -0.20217157548E+03  0.39947654265E+03  0.86115922295E+02 0.  0.
          5    1    3    3  502    0 -0.27046548308E+03  0.63416235131E+02 -0.16887023893E+03  0.32512740028E+03  0.41800000000E+01 0.  1.
         -5    1    3    3    0  502 -0.62730762766E+02 -0.46909513070E+02 -0.45921940958E+02  0.90895258815E+02  0.41800000000E+01 0.  1.
        -11    1    4    4    0    0  0.23339201725E+03 -0.16549294081E+02 -0.93608425080E+02  0.25200843259E+03  0.00000000000E+00 0. -1.
         11    1    4    4    0    0  0.99804228595E+02  0.42572019328E-01 -0.10856315040E+03  0.14746811006E+03  0.00000000000E+00 0.  1.
</event>
<event>
 8    1  0.6906553E-009  0.1253584E+03  0.7561462E-02  0.1234510E+00
         -2   -1    0    0    0  501 -0.00000000000E+00  0.00000000000E+00  0.38424476237E+02  0.38424476237E+02  0.00000000000E+00 0.  1.
          2   -1    0    0  501    0  0.00000000000E+00 -0.00000000000E+00 -0.49462205357E+03  0.49462205357E+03  0.00000000000E+00 0. -1.
         25    2    1    2    0    0 -0.39673251164E+02  0.65245864912E+02 -0.17858290537E+03  0.23102003516E+03  0.12508961911E+03 0.  0.
         23    2    1    2    0    0  0.39673251164E+02 -0.65245864912E+02 -0.27761467196E+03  0.30202649465E+03  0.91209142270E+02 0.  0.
          5    1    3    3  502    0 -0.77696410029E+02  0.73291563700E+02 -0.13949496628E+03  0.17574044344E+03  0.41800000000E+01 0. -1.
         -5    1    3    3    0  502  0.38023158866E+02 -0.80456987881E+01 -0.39087939088E+02  0.55279591725E+02  0.41800000000E+01 0. -1.
        -11    1    4    4    0    0  0.59807223106E+02 -0.58071189124E+02 -0.26360059849E+03  0.27646779644E+03  0.00000000000E+00 0. -1.
         11    1    4    4    0    0 -0.20133971942E+02 -0.71746757874E+01 -0.14014073468E+02  0.25558698207E+02  0.00000000000E+00 0.  1.
</event>
<event>
 8    1  0.6906553E-009  0.1262326E+03  0.7561462E-02  0.1233155E+00
         -1   -1    0    0    0  501 -0.00000000000E+00  0.00000000000E+00  0.93524769294E+03  0.93524769294E+03  0.00000000000E+00 0.  1.
          1   -1    0    0  501    0  0.00000000000E+00 -0.00000000000E+00 -0.19416242682E+02  0.19416242682E+02  0.00000000000E+00 0. -1.
         25    2    1    2    0    0  0.28810848685E+02 -0.77724009919E+02  0.51848715652E+03  0.53976644944E+03  0.12509117375E+03 0.  0.
         23    2    1    2    0    0 -0.28810848685E+02  0.77724009919E+02  0.39734429374E+03  0.41489748618E+03  0.85943874424E+02 0.  0.
          5    1    3    3  502    0  0.68239770648E+02 -0.36414410305E+02  0.17277431288E+03  0.18934389657E+03  0.41800000000E+01 0.  1.
         -5    1    3    3    0  502 -0.39428921963E+02 -0.41309599613E+02  0.34571284363E+03  0.35042255287E+03  0.41800000000E+01 0.  1.
        -11    1    4    4    0    0 -0.58428295318E+02  0.46162466003E+02  0.21656922635E+03  0.22901325019E+03  0.00000000000E+00 0.  1.
         11    1    4    4    0    0  0.29617446633E+02  0.31561543915E+02  0.18077506739E+03  0.18588423599E+03  0.00000000000E+00 0. -1.
</event>
<event>
 8    1  0.6906553E-009  0.9872318E+02  0.7561462E-02  0.1283004E+00
          2   -1    0    0  501    0  0.00000000000E+00  0.00000000000E+00  0.54717702327E+03  0.54717702327E+03  0.00000000000E+00 0. -1.
         -2   -1    0    0    0  501 -0.00000000000E+00 -0.00000000000E+00 -0.25420403211E+02  0.25420403211E+02  0.00000000000E+00 0.  1.
         25    2    1    2    0    0 -0.18590291064E+02  0.38741718448E+02  0.32196690822E+03  0.34807595592E+03  0.12509061288E+03 0.  0.
         23    2    1    2    0    0  0.18590291064E+02 -0.38741718448E+02  0.19978971183E+03  0.22452147056E+03  0.92991623899E+02 0.  0.
          5    1    3    3  502    0 -0.51841861208E+02  0.60575383130E+01  0.28109928057E+03  0.28593452097E+03  0.41800000000E+01 0.  1.
         -5    1    3    3    0  502  0.33251570144E+02  0.32684180135E+02  0.40867627646E+02  0.62141434949E+02  0.41800000000E+01 0.  1.
        -11    1    4    4    0    0  0.31651410487E+02  0.20432656258E+02  0.47557631394E+02  0.60671521585E+02  0.00000000000E+00 0.  1.
         11    1    4    4    0    0 -0.13061119423E+02 -0.59174374707E+02  0.15223208044E+03  0.16384994897E+03  0.00000000000E+00 0. -1.
</event>
<event>
 8    1  0.6906553E-009  0.3427339E+03  0.7561462E-02  0.1065637E+00
          1   -1    0    0  501    0  0.00000000000E+00  0.00000000000E+00  0.47601542146E+03  0.47601542146E+03  0.00000000000E+00 0. -1.
         -1   -1    0    0    0  501 -0.00000000000E+00 -0.00000000000E+00 -0.27432988842E+03  0.27432988842E+03  0.00000000000E+00 0.  1.
         25    2    1    2    0    0  0.32999793703E+03  0.63302373085E+01  0.44367392057E+00  0.35296769136E+03  0.12508910404E+03 0.  0.
         23    2    1    2    0    0 -0.32999793703E+03 -0.63302373085E+01  0.20124185912E+03  0.39737761851E+03  0.92043334798E+02 0.  0.
          5    1    3    3  502    0  0.10272653507E+03  0.45480308985E+02  0.39235439706E+02  0.11907179196E+03  0.41800000000E+01 0.  1.
         -5    1    3    3    0  502  0.22727140197E+03 -0.39150071677E+02 -0.38791765785E+02  0.23389589940E+03  0.41800000000E+01 0.  1.
        -11    1    4    4    0    0 -0.90984759673E+02  0.39213933887E+02  0.51235112145E+02  0.11153921203E+03  0.00000000000E+00 0.  1.
         11    1    4    4    0    0 -0.23901317736E+03 -0.45544171196E+02  0.15000674698E+03  0.28583840648E+03  0.00000000000E+00 0. -1.
</event>
<event>
 8    1  0.6906553E-009  0.1213536E+03  0.7561462E-02  0.1240881E+00
         -3   -1    0    0    0  501 -0.00000000000E+00  0.00000000000E+00  0.43350932362E+03  0.43350932362E+03  0.00000000000E+00 0.  1.
          3   -1    0    0  501    0  0.00000000000E+00 -0.00000000000E+00 -0.60698013474E+02  0.60698013474E+02  0.00000000000E+00 0. -1.
         25    2    1    2    0    0 -0.29989787695E+02 -0.10598832752E+03  0.27298650081E+03  0.31985034158E+03  0.12509875479E+03 0.  0.
         23    2    1    2    0    0  0.29989787695E+02  0.10598832752E+03  0.99824809338E+02  0.17435699551E+03  0.91117815972E+02 0.  0.
          5    1    3    3  502    0 -0.12970716870E+02  0.20600438057E+01  0.16672992948E+03  0.16729861046E+03  0.41800000000E+01 0. -1.
         -5    1    3    3    0  502 -0.17019070824E+02 -0.10804837133E+03  0.10625657133E+03  0.15255173112E+03  0.41800000000E+01 0. -1.
        -11    1    4    4    0    0 -0.12563875004E+02  0.23706892222E+02 -0.11792140226E+02  0.29307375608E+02  0.00000000000E+00 0. -1.
         11    1    4    4    0    0  0.42553662698E+02  0.82281435301E+02  0.11161694956E+03  0.14504961990E+03  0.00000000000E+00 0.  1.
</event>
<event>
 8    1  0.6906553E-009  0.1078076E+03  0.7561462E-02  0.1264685E+00
          1   -1    0    0  501    0  0.00000000000E+00  0.00000000000E+00  0.45389513278E+03  0.45389513278E+03  0.00000000000E+00 0. -1.
         -1   -1    0    0    0  501 -0.00000000000E+00 -0.00000000000E+00 -0.50555486368E+02  0.50555486368E+02  0.00000000000E+00 0.  1.
         25    2    1    2    0    0  0.92985202470E+02 -0.38878113472E+02  0.16455913980E+03  0.22997112377E+03  0.12509696915E+03 0.  0.
         23    2    1    2    0    0 -0.92985202470E+02  0.38878113472E+02  0.23878050662E+03  0.27447949538E+03  0.90360984171E+02 0.  0.
          5    1    3    3  502    0  0.39622890129E+02  0.10363207979E+02  0.15032569958E+03  0.15586102097E+03  0.41800000000E+01 0. -1.
         -5    1    3    3    0  502  0.53362312341E+02 -0.49241321451E+02  0.14233440215E+02  0.74110102800E+02  0.41800000000E+01 0. -1.
        -11    1    4    4    0    0 -0.16885062035E+02  0.13092077972E+02 -0.12050754490E+01  0.21400000757E+02  0.00000000000E+00 0.  1.
         11    1    4    4    0    0 -0.76100140435E+02  0.25786035500E+02  0.23998558207E+03  0.25307949463E+03  0.00000000000E+00 0. -1.
</event>
<event>
 8    1  0.6906553E-009  0.1222941E+03  0.7561462E-02  0.1239360E+00
          2   -1    0    0  501    0  0.00000000000E+00  0.00000000000E+00  0.33517420121E+03  0.33517420121E+03  0.00000000000E+00 0. -1.
         -2   -1    0    0    0  501 -0.00000000000E+00 -0.00000000000E+00 -0.73198261215E+02  0.73198261215E+02  0.00000000000E+00 0.  1.
         25    2    1    2    0    0 -0.29414483558E+02  0.10844305064E+03  0.13478641763E+03  0.21549833745E+03  0.12508816089E+03 0.  0.
         23    2    1    2    0    0  0.29414483558E+02 -0.10844305064E+03  0.12718952237E+03  0.19287412497E+03  0.91641401176E+02 0.  0.
          5    1    3    3  502    0  0.15940168832E+02  0.62982988972E+01  0.95259677117E+02  0.96879492339E+02  0.41800000000E+01 0. -1.
         -5    1    3    3    0  502 -0.45354652391E+02  0.10214475174E+03  0.39526740511E+02  0.11861884512E+03  0.41800000000E+01 0. -1.
        -11    1    4    4    0    0  0.13907928027E+02 -0.15277690196E+02  0.88382739079E+02  0.90765339457E+02  0.00000000000E+00 0. -1.
         11    1    4    4    0    0  0.15506555532E+02 -0.93165360439E+02  0.38806783292E+02  0.10210878552E+03  0.00000000000E+00 0.  1.
</event>
<event>
 8    1  0.6906553E-009  0.8517489E+02  0.7561462E-02  0.1314976E+00
          2   -1    0    0  501    0  0.00000000000E+00  0.00000000000E+00  0.40764706745E+03  0.40764706745E+03  0.00000000000E+00 0. -1.
         -2   -1    0    0    0  501 -0.00000000000E+00 -0.00000000000E+00 -0.49575809474E+02  0.49575809474E+02  0.00000000000E+00 0.  1.
         25    2    1    2    0    0  0.44067323289E+02  0.34715224228E+02  0.31504283314E+03  0.34357839920E+03  0.12508818454E+03 0.  0.
         23    2    1    2    0    0 -0.44067323289E+02 -0.34715224228E+02  0.43028424840E+02  0.11364447772E+03  0.88974975122E+02 0.  0.
          5    1    3    3  502    0  0.57996690989E+02  0.33138877646E+02  0.32091199170E+03  0.32781668688E+03  0.41800000000E+01 0.  1.
         -5    1    3    3    0  502 -0.13929367700E+02  0.15763465823E+01 -0.58691585654E+01  0.15761712323E+02  0.41800000000E+01 0.  1.
        -11    1    4    4    0    0  0.18249955890E+02 -0.14407114239E+02  0.42101208622E+02  0.48095089127E+02  0.00000000000E+00 0. -1.
         11    1    4    4    0    0 -0.62317279179E+02 -0.20308109989E+02  0.92721621865E+00  0.65549388597E+02  0.00000000000E+00 0.  1.
</event>
<event>
 8    1  0.6906553E-009  0.1263084E+03  0.7561462E-02  0.1233039E+00
         -1   -1    0    0    0  501 -0.00000000000E+00  0.00000000000E+00  0.97204573514E+02  0.97204573514E+02  0.00000000000E+00 0.  1.
          1   -1    0    0  501    0  0.00000000000E+00 -0.00000000000E+00 -0.28954489122E+03  0.28954489122E+03  0.00000000000E+00 0. -1.
         25    2    1    2    0    0 -0.96081747075E+02  0.72528864389E+02 -0.52798239931E+02  0.18146403474E+03  0.12509757582E+03 0.  0.
         23    2    1    2    0    0  0.96081747075E+02 -0.72528864389E+02 -0.13954207777E+03  0.20528542999E+03  0.90432173513E+02 0.  0.
          5    1    3    3  502    0 -0.53464367251E+02  0.73975074090E+01 -0.81973105853E+02  0.98235554483E+02  0.41800000000E+01 0.  1.
         -5    1    3    3    0  502 -0.42617379824E+02  0.65131356980E+02  0.29174865921E+02  0.83228480261E+02  0.41800000000E+01 0.  1.
        -11    1    4    4    0    0  0.40056917249E+02 -0.26542447432E+02 -0.12111923171E-01  0.48052661548E+02  0.00000000000E+00 0.  1.
         11    1    4    4    0    0  0.56024829826E+02 -0.45986416957E+02 -0.13952996585E+03  0.15723276844E+03  0.00000000000E+00 0. -1.
</event>
<event>
 8    1  0.6906553E-009  0.1304219E+03  0.7561462E-02  0.1226831E+00
          2   -1    0    0  501    0  0.00000000000E+00  0.00000000000E+00  0.31949031782E+03  0.31949031782E+03  0.00000000000E+00 0. -1.
         -2   -1    0    0    0  501 -0.00000000000E+00 -0.00000000000E+00 -0.76506954229E+02  0.76506954229E+02  0.00000000000E+00 0.  1.
         25    2    1    2    0    0  0.92775690524E+02 -0.63611024966E+02  0.15246449298E+03  0.22703490709E+03  0.12508291716E+03 0.  0.
         23    2    1    2    0    0 -0.92775690524E+02  0.63611024966E+02  0.90518870604E+02  0.16896236496E+03  0.87754906343E+02 0.  0.
          5    1    3    3  502    0  0.73015377903E+02 -0.22489374228E+02  0.16296437714E+03  0.18003299136E+03  0.41800000000E+01 0.  1.
         -5    1    3    3    0  502  0.19760312622E+02 -0.41121650738E+02 -0.10499884156E+02  0.47001915723E+02  0.41800000000E+01 0.  1.
        -11    1    4    4    0    0 -0.72960780145E+02  0.83194820647E+02  0.87242118244E+02  0.14091075480E+03  0.00000000000E+00 0. -1.
         11    1    4    4    0    0 -0.19814910379E+02 -0.19583795680E+02  0.32767523598E+01  0.28051610161E+02  0.00000000000E+00 0.  1.
</event>
<event>
 8    1  0.6906553E-009  0.1112871E+03  0.7561462E-02  0.1258205E+00
          2   -1    0    0  501    0  0.00000000000E+00  0.00000000000E+00  0.37818440247E+03  0.37818440247E+03  0.00000000000E+00 0.  1.
         -2   -1    0    0    0  501 -0.00000000000E+00 -0.00000000000E+00 -0.41239853217E+02  0.41239853217E+02  0.00000000000E+00 0. -1.
         25    2    1    2    0    0  0.54834702620E+02 -0.17858414747E+02  0.21059586817E+03  0.25164217409E+03  0.12508955394E+03 0.  0.
         23    2    1    2    0    0 -0.54834702620E+02  0.17858414747E+02  0.12634868109E+03  0.16778208160E+03  0.94133257159E+02 0.  0.
          5    1    3    3  502    0  0.22401015233E+02  0.41231356838E+02  0.16127490854E+03  0.16801457911E+03  0.41800000000E+01 0. -1.
         -5    1    3    3    0  502  0.32433687387E+02 -0.59089771586E+02  0.49320959631E+02  0.83627594982E+02  0.41800000000E+01 0. -1.
        -11    1    4    4    0    0 -0.64047725435E+01 -0.35382127589E+02  0.26361337438E+02  0.44585156449E+02  0.00000000000E+00 0.  1.
         11    1    4    4    0    0 -0.48429930077E+02  0.53240542336E+02  0.99987343649E+02  0.12319692515E+03  0.00000000000E+00 0. -1.
</event>
<event>
 8    1  0.6906553E-009  0.1005763E+03  0.7561462E-02  0.1279089E+00
         -2   -1    0    0    0  501 -0.00000000000E+00  0.00000000000E+00  0.76079121953E+02  0.76079121953E+02  0.00000000000E+00 0.  1.
          2   -1    0    0  501    0  0.00000000000E+00 -0.00000000000E+00 -0.55475244205E+03  0.55475244205E+03  0.00000000000E+00 0. -1.
         25    2    1    2    0    0 -0.18957683556E+02 -0.52776362206E+02 -0.50232703836E+03  0.52069622540E+03  0.12508943804E+03 0.  0.
         23    2    1    2    0    0  0.18957683556E+02  0.52776362206E+02  0.23653718260E+02  0.11013533860E+03  0.91790828779E+02 0.  0.
          5    1    3    3  502    0 -0.10721752415E+01  0.27067500448E+02 -0.27406584107E+02  0.38760706814E+02  0.41800000000E+01 0. -1.
         -5    1    3    3    0  502 -0.17885508314E+02 -0.79843862655E+02 -0.47492045425E+03  0.48193551859E+03  0.41800000000E+01 0. -1.
        -11    1    4    4    0    0 -0.23982269052E+02  0.40645677295E+02  0.40749619172E+02  0.62351838580E+02  0.00000000000E+00 0.  1.
         11    1    4    4    0    0  0.42939952608E+02  0.12130684911E+02 -0.17095900912E+02  0.47783500022E+02  0.00000000000E+00 0. -1.
</event>
<event>
 8    1  0.6906553E-009  0.1654370E+03  0.7561462E-02  0.1182692E+00
         -1   -1    0    0    0  501 -0.00000000000E+00  0.00000000000E+00  0.93502288919E+03  0.93502288919E+03  0.00000000000E+00 0.  1.
          1   -1    0    0  501    0  0.00000000000E+00 -0.00000000000E+00 -0.34729995833E+02  0.34729995833E+02  0.00000000000E+00 0. -1.
         25    2    1    2    0    0  0.12319101831E+03  0.33936452983E+02  0.30371517339E+03  0.35244729534E+03  0.12509388321E+03 0.  0.
         23    2    1    2    0    0 -0.12319101831E+03 -0.33936452983E+02  0.59657771997E+03  0.61730558968E+03  0.93986729138E+02 0.  0.
          5    1    3    3  502    0  0.19238359444E+01 -0.33971023607E+02  0.10072778115E+03  0.10640155020E+03  0.41800000000E+01 0. -1.
         -5    1    3    3    0  502  0.12126718236E+03  0.67907476590E+02  0.20298739224E+03  0.24604574515E+03  0.41800000000E+01 0. -1.
        -11    1    4    4    0    0 -0.13154953475E+03 -0.97002803773E+01  0.52345210059E+03  0.53981615124E+03  0.00000000000E+00 0.  1.
         11    1    4    4    0    0  0.83585164387E+01 -0.24236172605E+02  0.73125619377E+02  0.77489438434E+02  0.00000000000E+00 0. -1.
</event>
<event>
 8    1  0.6906553E-009  0.1507293E+03  0.7561462E-02  0.1199580E+00
         -2   -1    0    0    0  501 -0.00000000000E+00  0.00000000000E+00  0.47178142718E+02  0.47178142718E+02  0.00000000000E+00 0.  1.
          2   -1    0    0  501    0  0.00000000000E+00 -0.00000000000E+00 -0.94776566610E+03  0.94776566610E+03  0.00000000000E+00 0. -1.
         25    2    1    2    0    0 -0.14226792532E+03 -0.21743157298E+02 -0.72614629372E+03  0.75076568272E+03  0.12509093890E+03 0.  0.
         23    2    1    2    0    0  0.14226792532E+03  0.21743157298E+02 -0.17444122966E+03  0.24417812610E+03  0.92088474830E+02 0.  0.
          5    1    3    3  502    0 -0.24085681760E+02 -0.29742914053E+02 -0.43090027529E+03  0.43261678267E+03  0.41800000000E+01 0. -1.
         -5    1    3    3    0  502 -0.11818224356E+03  0.79997567551E+01 -0.29524601843E+03  0.31814890005E+03  0.41800000000E+01 0. -1.
        -11    1    4    4    0    0  0.91895490307E+02  0.19904630420E+02 -0.42978884782E+02  0.10338355763E+03  0.00000000000E+00 0.  1.
         11    1    4    4    0    0  0.50372435014E+02  0.18385268777E+01 -0.13146234488E+03  0.14079456847E+03  0.00000000000E+00 0. -1.
</event>
<event>
 8    1  0.6906553E-009  0.2424492E+03  0.7561462E-02  0.1118172E+00
          2   -1    0    0  501    0  0.00000000000E+00  0.00000000000E+00  0.10913780219E+04  0.10913780219E+04  0.00000000000E+00 0.  1.
         -2   -1    0    0    0  501 -0.00000000000E+00 -0.00000000000E+00 -0.66042827633E+02  0.66042827633E+02  0.00000000000E+00 0. -1.
         25    2    1    2    0    0 -0.33040486712E+02  0.22870838611E+03  0.70732023509E+03  0.75455094714E+03  0.12508404062E+03 0.  0.
         23    2    1    2    0    0  0.33040486712E+02 -0.22870838611E+03  0.31801495914E+03  0.40286990236E+03  0.88155795887E+02 0.  0.
          5    1    3    3  502    0  0.16774385030E+02  0.46880246235E+02  0.31871887701E+03  0.32261173637E+03  0.41800000000E+01 0.  1.
         -5    1    3    3    0  502 -0.49814871741E+02  0.18182813988E+03  0.38860135807E+03  0.43193921076E+03  0.41800000000E+01 0.  1.
        -11    1    4    4    0    0  0.58846226076E+02 -0.10870619361E+03  0.17738058704E+03  0.21620311633E+03  0.00000000000E+00 0.  1.
         11    1    4    4    0    0 -0.25805739364E+02 -0.12000219250E+03  0.14063437210E+03  0.18666678603E+03  0.00000000000E+00 0. -1.
</event>
<event>
 8    1  0.6906553E-009  0.1598392E+03  0.7561462E-02  0.1188878E+00
         -2   -1    0    0    0  501 -0.00000000000E+00  0.00000000000E+00  0.97875710886E+02  0.97875710886E+02  0.00000000000E+00 0.  1.
          2   -1    0    0  501    0  0.00000000000E+00 -0.00000000000E+00 -0.35545625870E+03  0.35545625870E+03  0.00000000000E+00 0. -1.
         25    2    1    2    0    0  0.10885520451E+03  0.10048010064E+03 -0.17416462682E+03  0.26062167297E+03  0.12507850738E+03 0.  0.
         23    2    1    2    0    0 -0.10885520451E+03 -0.10048010064E+03 -0.83415920988E+02  0.19271029662E+03  0.90737734002E+02 0.  0.
          5    1    3    3  502    0  0.55712652570E+02  0.47854016033E+02 -0.28169781102E+01  0.73615991962E+02  0.41800000000E+01 0. -1.
         -5    1    3    3    0  502  0.53142551944E+02  0.52626084612E+02 -0.17134764871E+03  0.18700568100E+03  0.41800000000E+01 0. -1.
        -11    1    4    4    0    0 -0.63230739135E+02 -0.26767881384E+01 -0.15367814205E+02  0.65126502131E+02  0.00000000000E+00 0.  1.
         11    1    4    4    0    0 -0.45624465379E+02 -0.97803312506E+02 -0.68048106783E+02  0.12758379448E+03  0.00000000000E+00 0. -1.
</event>
<event>
 8    1  0.6906553E-009  0.6522195E+02  0.7561462E-02  0.1377139E+00
          2   -1    0    0  501    0  0.00000000000E+00  0.00000000000E+00  0.32697016747E+03  0.32697016747E+03  0.00000000000E+00 0. -1.
         -2   -1    0    0    0  501 -0.00000000000E+00 -0.00000000000E+00 -0.48926160960E+02  0.48926160960E+02  0.00000000000E+00 0.  1.
         25    2    1    2    0    0  0.80702707478E+01 -0.24597704728E+02  0.23148261620E+03  0.26439099244E+03  0.12509284125E+03 0.  0.
         23    2    1    2    0    0 -0.80702707478E+01  0.24597704728E+02  0.46561390314E+02  0.11150533599E+03  0.97955604941E+02 0.  0.
          5    1    3    3  502    0  0.26561254643E+02  0.18655897882E+02  0.20995471653E+03  0.21248999545E+03  0.41800000000E+01 0. -1.
         -5    1    3    3    0  502 -0.18490983895E+02 -0.43253602610E+02  0.21527899670E+02  0.51900996988E+02  0.41800000000E+01 0. -1.
        -11    1    4    4    0    0 -0.13870107876E+02  0.35516246736E+02 -0.20516271918E+02  0.43297818514E+02  0.00000000000E+00 0.  1.
         11    1    4    4    0    0  0.57998371286E+01 -0.10918542008E+02  0.67077662232E+02  0.68207517480E+02  0.00000000000E+00 0. -1.
</event>
<event>
 8    1  0.6906553E-009  0.1024936E+03  0.7561462E-02  0.1275138E+00
         -1   -1    0    0    0  501 -0.00000000000E+00  0.00000000000E+00  0.33734796332E+02  0.33734796332E+02  0.00000000000E+00 0.  1.
          1   -1    0    0  501    0  0.00000000000E+00 -0.00000000000E+00 -0.60176658595E+03  0.60176658595E+03  0.00000000000E+00 0. -1.
         25    2    1    2    0    0 -0.64143684415E+02 -0.53219433639E+02 -0.39530792832E+03  0.42291968543E+03  0.12508389889E+03 0.  0.
         23    2    1    2    0    0  0.64143684415E+02  0.53219433639E+02 -0.17272386130E+03  0.21258169686E+03  0.91710006045E+02 0.  0.
          5    1    3    3  502    0 -0.61218219800E+02 -0.12788768914E+01 -0.34504651673E+03  0.35046237611E+03  0.41800000000E+01 0.  1.
         -5    1    3    3    0  502 -0.29254646152E+01 -0.51940556747E+02 -0.50261411588E+02  0.72457309316E+02  0.41800000000E+01 0.  1.
        -11    1    4    4    0    0  0.32345795517E+02  0.36776048997E+01 -0.14295419504E+03  0.14661404143E+03  0.00000000000E+00 0. -1.
         11    1    4    4    0    0  0.31797888899E+02  0.49541828739E+02 -0.29769666264E+02  0.65967655428E+02  0.00000000000E+00 0.  1.
</event>
<event>
 8    1  0.6906553E-009  0.1874665E+03  0.7561462E-02  0.1160766E+00
          2   -1    0    0  501    0  0.00000000000E+00  0.00000000000E+00  0.14616912770E+04  0.14616912770E+04  0.00000000000E+00 0. -1.
         -2   -1    0    0    0  501 -0.00000000000E+00 -0.00000000000E+00 -0.35632492448E+02  0.35632492448E+02  0.00000000000E+00 0.  1.
         25    2    1    2    0    0  0.16744517103E+03  0.11455880445E+02  0.10976931062E+04  0.11174733343E+04  0.12508946845E+03 0.  0.
         23    2    1    2    0    0 -0.16744517103E+03 -0.11455880445E+02  0.32836567844E+03  0.37985043517E+03  0.91067073216E+02 0.  0.
          5    1    3    3  502    0  0.14510944521E+03 -0.38240594119E+02  0.69055035493E+03  0.70667981379E+03  0.41800000000E+01 0.  1.
         -5    1    3    3    0  502  0.22335725823E+02  0.49696474564E+02  0.40714275122E+03  0.41079352053E+03  0.41800000000E+01 0.  1.
        -11    1    4    4    0    0 -0.14633933185E+03 -0.19389663407E+02  0.19490083686E+03  0.24449436660E+03  0.00000000000E+00 0.  1.
         11    1    4    4    0    0 -0.21105839185E+02  0.79337829622E+01  0.13346484159E+03  0.13535606857E+03  0.00000000000E+00 0. -1.
</event>
<event>
 8    1  0.6906553E-009  0.1061097E+03  0.7561462E-02  0.1267949E+00
         -2   -1    0    0    0  501 -0.00000000000E+00  0.00000000000E+00  0.32803991099E+02  0.32803991099E+02  0.00000000000E+00 0.  1.
          2   -1    0    0  501    0  0.00000000000E+00 -0.00000000000E+00 -0.42302544071E+03  0.42302544071E+03  0.00000000000E+00 0. -1.
         25    2    1    2    0    0 -0.16464812238E+02 -0.39264939141E+02 -0.25634051290E+03  0.28839658039E+03  0.12509717637E+03 0.  0.
         23    2    1    2    0    0  0.16464812238E+02  0.39264939141E+02 -0.13388093671E+03  0.16743285142E+03  0.91086931188E+02 0.  0.
          5    1    3    3  502    0  0.43449343031E+01 -0.73322705401E+02 -0.84989413818E+02  0.11240894289E+03  0.41800000000E+01 0.  1.
         -5    1    3    3    0  502 -0.20809746541E+02  0.34057766260E+02 -0.17135109908E+03  0.17598763749E+03  0.41800000000E+01 0.  1.
        -11    1    4    4    0    0 -0.34566927685E+02  0.31752299314E+02 -0.47199095318E+02  0.66564522083E+02  0.00000000000E+00 0.  1.
         11    1    4    4    0    0  0.51031739922E+02  0.75126398267E+01 -0.86681841391E+02  0.10086832934E+03  0.00000000000E+00 0. -1.
</event>
<event>
 8    1  0.6906553E-009  0.1469702E+03  0.7561462E-02  0.1204246E+00
         -1   -1    0    0    0  501 -0.00000000000E+00  0.00000000000E+00  0.82808123120E+02  0.82808123120E+02  0.00000000000E+00 0.  1.
          1   -1    0    0  501    0  0.00000000000E+00 -0.00000000000E+00 -0.26303119925E+03  0.26303119925E+03  0.00000000000E+00 0. -1.
         25    2    1    2    0    0 -0.57461968567E+01 -0.99486609613E+02 -0.95441200245E+02  0.18624562023E+03  0.12509118306E+03 0.  0.
         23    2    1    2    0    0  0.57461968567E+01  0.99486609613E+02 -0.84781875888E+02  0.15959370215E+03  0.91386973990E+02 0.  0.
          5    1    3    3  502    0  0.49966089662E+02 -0.90255842561E+02 -0.59228525645E+02  0.11903032337E+03  0.41800000000E+01 0. -1.
         -5    1    3    3    0  502 -0.55712286518E+02 -0.92307670522E+01 -0.36212674600E+02  0.67215296854E+02  0.41800000000E+01 0. -1.
        -11    1    4    4    0    0 -0.39273059157E+02  0.23565892004E+02 -0.39032617190E+02  0.60176986018E+02  0.00000000000E+00 0. -1.
         11    1    4    4    0    0  0.45019256014E+02  0.75920717608E+02 -0.45749258698E+02  0.99416716128E+02  0.00000000000E+00 0.  1.
</event>
<event>
 8    1  0.6906553E-009  0.1241140E+03  0.7561462E-02  0.1236460E+00
          2   -1    0    0  501    0  0.00000000000E+00  0.00000000000E+00  0.74724799525E+02  0.74724799525E+02  0.00000000000E+00 0. -1.
         -2   -1    0    0    0  501 -0.00000000000E+00 -0.00000000000E+00 -0.26036618747E+03  0.26036618747E+03  0.00000000000E+00 0.  1.
         25    2    1    2    0    0 -0.60927503305E+02 -0.28225290985E+02 -0.33904062060E+02  0.14596344840E+03  0.12508802955E+03 0.  0.
         23    2    1    2    0    0  0.60927503305E+02  0.28225290985E+02 -0.15173732588E+03  0.18912753859E+03  0.90753413581E+02 0.  0.
          5    1    3    3  502    0 -0.78871575721E+02  0.26141173714E+02 -0.29954397693E+02  0.88424118661E+02  0.41800000000E+01 0. -1.
         -5    1    3    3    0  502  0.17944072416E+02 -0.54366464699E+02 -0.39496643669E+01  0.57539329743E+02  0.41800000000E+01 0. -1.
        -11    1    4    4    0    0  0.21995668774E+02 -0.30236025484E+02 -0.82130884443E+02  0.90241392173E+02  0.00000000000E+00 0.  1.
         11    1    4    4    0    0  0.38931834531E+02  0.58461316468E+02 -0.69606441438E+02  0.98886146415E+02  0.00000000000E+00 0. -1.
</event>
<event>
 8    1  0.6906553E-009  0.8536797E+02  0.7561462E-02  0.1314473E+00
         -2   -1    0    0    0  501 -0.00000000000E+00  0.00000000000E+00  0.41984386184E+02  0.41984386184E+02  0.00000000000E+00 0.  1.
          2   -1    0    0  501    0  0.00000000000E+00 -0.00000000000E+00 -0.38963316852E+03  0.38963316852E+03  0.00000000000E+00 0. -1.
         25    2    1    2    0    0  0.34838915144E+02  0.60982582867E+02 -0.17479435652E+03  0.22612778887E+03  0.12509230353E+03 0.  0.
         23    2    1    2    0    0 -0.34838915144E+02 -0.60982582867E+02 -0.17285442581E+03  0.20548976584E+03  0.86109035065E+02 0.  0.
          5    1    3    3  502    0  0.53135537239E+02  0.40078178781E+02 -0.21185391904E+02  0.69970986574E+02  0.41800000000E+01 0.  1.
         -5    1    3    3    0  502 -0.18296622095E+02  0.20904404087E+02 -0.15360896462E+03  0.15615680229E+03  0.41800000000E+01 0.  1.
        -11    1    4    4    0    0 -0.27488962901E+02 -0.19196400142E+02 -0.15644811687E+03  0.16000049416E+03  0.00000000000E+00 0. -1.
         11    1    4    4    0    0 -0.73499522432E+01 -0.41786182725E+02 -0.16406308945E+02  0.45489271679E+02  0.00000000000E+00 0.  1.
</event>
<event>
 8    1  0.6906553E-009  0.1486371E+03  0.7561462E-02  0.1202158E+00
          2   -1    0    0  501    0  0.00000000000E+00  0.00000000000E+00  0.52667373547E+03  0.52667373547E+03  0.00000000000E+00 0. -1.
         -2   -1    0    0    0  501 -0.00000000000E+00 -0.00000000000E+00 -0.10762632218E+03  0.10762632218E+03  0.00000000000E+00 0.  1.
         25    2    1    2    0    0 -0.75381814639E+01 -0.11076300533E+03 -0.23666066087E+02  0.16891638910E+03  0.12508955310E+03 0.  0.
         23    2    1    2    0    0  0.75381814639E+01  0.11076300533E+03  0.44271347938E+03  0.46538366855E+03  0.90892610247E+02 0.  0.
          5    1    3    3  502    0  0.42369833280E+02 -0.13439898505E+02  0.22654107757E+02  0.50065104037E+02  0.41800000000E+01 0.  1.
         -5    1    3    3    0  502 -0.49908014744E+02 -0.97323106820E+02 -0.46320173844E+02  0.11885128507E+03  0.41800000000E+01 0.  1.
        -11    1    4    4    0    0 -0.37146947676E+02  0.20432506948E+02  0.14536275702E+03  0.15141900208E+03  0.00000000000E+00 0. -1.
         11    1    4    4    0    0  0.44685129140E+02  0.90330498377E+02  0.29735072236E+03  0.31396466647E+03  0.00000000000E+00 0.  1.
</event>
<event>
 8    1  0.6906553E-009  0.1506457E+03  0.7561462E-02  0.1199682E+00
         -2   -1    0    0    0  501 -0.00000000000E+00  0.00000000000E+00  0.69395648913E+02  0.69395648913E+02  0.00000000000E+00 0.  1.
          2   -1    0    0  501    0  0.00000000000E+00 -0.00000000000E+00 -0.58240487493E+03  0.58240487493E+03  0.00000000000E+00 0. -1.
         25    2    1    2    0    0  0.34519600267E+02  0.11738307641E+03 -0.45528441663E+03  0.48775142107E+03  0.12508860579E+03 0.  0.
         23    2    1    2    0    0 -0.34519600267E+02 -0.11738307641E+03 -0.57724809384E+02  0.16404910277E+03  0.92787742030E+02 0.  0.
          5    1    3    3  502    0  0.13240437688E+02 -0.25440859953E+02 -0.10294076748E+03  0.10694307156E+03  0.41800000000E+01 0.  1.
         -5    1    3    3    0  502  0.21279162579E+02  0.14282393637E+03 -0.35234364915E+03  0.38080834951E+03  0.41800000000E+01 0.  1.
        -11    1    4    4    0    0 -0.56963544590E+01 -0.82057375784E+02  0.95214894973E+01  0.82804107005E+02  0.00000000000E+00 0.  1.
         11    1    4    4    0    0 -0.28823245808E+02 -0.35325700629E+02 -0.67246298881E+02  0.81244995767E+02  0.00000000000E+00 0. -1.
</event>
<event>
 8    1  0.6906553E-009  0.2840281E+03  0.7561462E-02  0.1093509E+00
         -2   -1    0    0    0  501 -0.00000000000E+00  0.00000000000E+00  0.56449512860E+02  0.56449512860E+02  0.00000000000E+00 0.  1.
          2   -1    0    0  501    0  0.00000000000E+00 -0.00000000000E+00 -0.16683255219E+04  0.16683255219E+04  0.00000000000E+00 0. -1.
         25    2    1    2    0    0 -0.12735269805E+03 -0.24665999016E+03 -0.10262785672E+04  0.10704949643E+04  0.12510759649E+03 0.  0.
         23    2    1    2    0    0  0.12735269805E+03  0.24665999016E+03 -0.58559744193E+03  0.65428007052E+03  0.89989923004E+02 0.  0.
          5    1    3    3  502    0 -0.62562927961E+02 -0.20222820436E+03 -0.58224720037E+03  0.61954793304E+03  0.41800000000E+01 0. -1.
         -5    1    3    3    0  502 -0.64789770085E+02 -0.44431785808E+02 -0.44403136679E+03  0.45094703124E+03  0.41800000000E+01 0. -1.
        -11    1    4    4    0    0  0.29493513880E+02  0.51901904185E+02 -0.57129053943E+02  0.82628105530E+02  0.00000000000E+00 0.  1.
         11    1    4    4    0    0  0.97859184166E+02  0.19475808598E+03 -0.52846838798E+03  0.57165196499E+03  0.00000000000E+00 0. -1.
</event>
<event>
 8    1  0.6906553E-009  0.1563606E+03  0.7561462E-02  0.1192868E+00
         -1   -1    0    0    0  501 -0.00000000000E+00  0.00000000000E+00  0.85165566014E+02  0.85165566014E+02  0.00000000000E+00 0.  1.
          1   -1    0    0  501    0  0.00000000000E+00 -0.00000000000E+00 -0.59396784838E+03  0.59396784838E+03  0.00000000000E+00 0. -1.
         25    2    1    2    0    0  0.84099496099E+02 -0.82357808535E+02 -0.50351300088E+03  0.53200464515E+03  0.12509223211E+03 0.  0.
         23    2    1    2    0    0 -0.84099496099E+02  0.82357808535E+02 -0.52892814896E+01  0.14712876925E+03  0.88109956138E+02 0.  0.
          5    1    3    3  502    0 -0.28277926217E+02 -0.40952477398E+02 -0.11363476964E+03  0.12412525846E+03  0.41800000000E+01 0.  1.
         -5    1    3    3    0  502  0.11237742232E+03 -0.41405331137E+02 -0.38987823124E+03  0.40787938669E+03  0.41800000000E+01 0.  1.
        -11    1    4    4    0    0 -0.39516563975E+02  0.89459344526E+02  0.12522799652E+02  0.98596925219E+02  0.00000000000E+00 0.  1.
         11    1    4    4    0    0 -0.44582932123E+02 -0.71015359912E+01 -0.17812081141E+02  0.48531844028E+02  0.00000000000E+00 0. -1.
</event>
<event>
 8    1  0.6906553E-009  0.1080171E+03  0.7561462E-02  0.1264287E+00
         -1   -1    0    0    0  501 -0.00000000000E+00  0.00000000000E+00  0.40055020251E+02  0.40055020251E+02  0.00000000000E+00 0.  1.
          1   -1    0    0  501    0  0.00000000000E+00 -0.00000000000E+00 -0.32718817846E+03  0.32718817846E+03  0.00000000000E+00 0. -1.
         25    2    1    2    0    0 -0.30068172039E+02 -0.44008843053E+01 -0.15228958023E+03  0.19940703715E+03  0.12509031725E+03 0.  0.
         23    2    1    2    0    0  0.30068172039E+02  0.44008843053E+01 -0.13484357798E+03  0.16783616156E+03  0.95198339538E+02 0.  0.
          5    1    3    3  502    0 -0.33498196410E+02 -0.62040783376E+02 -0.89266595470E+02  0.11382963336E+03  0.41800000000E+01 0. -1.
         -5    1    3    3    0  502  0.34300243714E+01  0.57639899071E+02 -0.63022984756E+02  0.85577403791E+02  0.41800000000E+01 0. -1.
        -11    1    4    4    0    0 -0.74245305858E+01 -0.33432297684E+02 -0.16407953686E+02  0.37974506277E+02  0.00000000000E+00 0.  1.
         11    1    4    4    0    0  0.37492702625E+02  0.37833181989E+02 -0.11843562430E+03  0.12986165528E+03  0.00000000000E+00 0. -1.
</event>
<event>
 8    1  0.6906553E-009  0.1545840E+03  0.7561462E-02  0.1194951E+00
         -4   -1    0    0    0  501 -0.00000000000E+00  0.00000000000E+00  0.31753523495E+02  0.31753523495E+02  0.00000000000E+00 0.  1.
          4   -1    0    0  501    0  0.00000000000E+00 -0.00000000000E+00 -0.88555529270E+03  0.88555529270E+03  0.00000000000E+00 0. -1.
         25    2    1    2    0    0  0.83648568344E+02 -0.93051250993E+02 -0.38590628592E+03  0.42453128641E+03  0.12509010087E+03 0.  0.
         23    2    1    2    0    0 -0.83648568344E+02  0.93051250993E+02 -0.46789548328E+03  0.49277752978E+03  0.90817907269E+02 0.  0.
          5    1    3    3  502    0  0.19343861838E+02  0.21635508116E+02 -0.19470123684E+02  0.35197135090E+02  0.41800000000E+01 0. -1.
         -5    1    3    3    0  502  0.64304706506E+02 -0.11468675911E+03 -0.36643616224E+03  0.38933415132E+03  0.41800000000E+01 0. -1.
        -11    1    4    4    0    0 -0.97258728209E+02  0.64603909555E+02 -0.41578220056E+03  0.43186544623E+03  0.00000000000E+00 0. -1.
         11    1    4    4    0    0  0.13610159864E+02  0.28447341438E+02 -0.52113282725E+02  0.60912083554E+02  0.00000000000E+00 0.  1.
</event>
<event>
 8    1  0.6906553E-009  0.8305882E+02  0.7561462E-02  0.1320588E+00
         -2   -1    0    0    0  501 -0.00000000000E+00  0.00000000000E+00  0.22465811056E+02  0.22465811056E+02  0.00000000000E+00 0.  1.
          2   -1    0    0  501    0  0.00000000000E+00 -0.00000000000E+00 -0.72622476082E+03  0.72622476082E+03  0.00000000000E+00 0. -1.
         25    2    1    2    0    0  0.56064822753E+02  0.26018105940E+02 -0.46796727018E+03  0.48832538774E+03  0.12509241451E+03 0.  0.
         23    2    1    2    0    0 -0.56064822753E+02 -0.26018105940E+02 -0.23579167959E+03  0.26036518414E+03  0.91499217267E+02 0.  0.
          5    1    3    3  502    0  0.12062199644E+02 -0.32302695878E+01  0.37089547103E+01  0.13680644974E+02  0.41800000000E+01 0. -1.
         -5    1    3    3    0  502  0.44002623109E+02  0.29248375528E+02 -0.47167622489E+03  0.47464474277E+03  0.41800000000E+01 0. -1.
        -11    1    4    4    0    0  0.59852798707E+01 -0.36526924792E+02 -0.39057392743E+02  0.53810033802E+02  0.00000000000E+00 0.  1.
         11    1    4    4    0    0 -0.62050102624E+02  0.10508818852E+02 -0.19673428685E+03  0.20655515034E+03  0.00000000000E+00 0. -1.
</event>
<event>
 8    1  0.6906553E-009  0.7156378E+02  0.7561462E-02  0.1354855E+00
          1   -1    0    0  501    0  0.00000000000E+00  0.00000000000E+00  0.75764213518E+03  0.75764213518E+03  0.00000000000E+00 0. -1.
         -1   -1    0    0    0  501 -0.00000000000E+00 -0.00000000000E+00 -0.19358552089E+02  0.19358552089E+02  0.00000000000E+00 0.  1.
         25    2    1    2    0    0 -0.10246308657E+02 -0.28319881679E+02  0.27088611219E+03  0.29988287812E+03  0.12507378731E+03 0.  0.
         23    2    1    2    0    0  0.10246308657E+02  0.28319881679E+02  0.46739747091E+03  0.47711780916E+03  0.90961560355E+02 0.  0.
          5    1    3    3  502    0  0.14370277134E+02 -0.12444158442E+02  0.26956290224E+03  0.27026467141E+03  0.41800000000E+01 0. -1.
         -5    1    3    3    0  502 -0.24616585790E+02 -0.15875723237E+02  0.13232099429E+01  0.29618206711E+02  0.41800000000E+01 0. -1.
        -11    1    4    4    0    0  0.47879602738E+02  0.29829894205E+02  0.32300485602E+03  0.32789390961E+03  0.00000000000E+00 0. -1.
         11    1    4    4    0    0 -0.37633294082E+02 -0.15100125266E+01  0.14439261489E+03  0.14922389955E+03  0.00000000000E+00 0.  1.
</event>
<event>
 8    1  0.6906553E-009  0.1044801E+03  0.7561462E-02  0.1271147E+00
         -1   -1    0    0    0  501 -0.00000000000E+00  0.00000000000E+00  0.85044460617E+02  0.85044460617E+02  0.00000000000E+00 0.  1.
          1   -1    0    0  501    0  0.00000000000E+00 -0.00000000000E+00 -0.27697092765E+03  0.27697092765E+03  0.00000000000E+00 0. -1.
         25    2    1    2    0    0 -0.91617620634E+02 -0.48734259272E+02 -0.10909972576E+03  0.19575234993E+03  0.12508963148E+03 0.  0.
         23    2    1    2    0    0  0.91617620634E+02  0.48734259272E+02 -0.82826741266E+02  0.16626303833E+03  0.10007153646E+03 0.  0.
          5    1    3    3  502    0 -0.79354009477E+02 -0.45748149115E+02 -0.13699603818E+03  0.16484944296E+03  0.41800000000E+01 0. -1.
         -5    1    3    3    0  502 -0.12263611157E+02 -0.29861101574E+01  0.27896312420E+02  0.30902906969E+02  0.41800000000E+01 0. -1.
        -11    1    4    4    0    0  0.72168126588E+02  0.41300738246E+02 -0.24002919043E+01  0.83185039978E+02  0.00000000000E+00 0.  1.
         11    1    4    4    0    0  0.19449494046E+02  0.74335210257E+01 -0.80426449362E+02  0.83077998354E+02  0.00000000000E+00 0. -1.
</event>
<event>
 8    1  0.6906553E-009  0.1185771E+03  0.7561462E-02  0.1245463E+00
         -2   -1    0    0    0  501 -0.00000000000E+00  0.00000000000E+00  0.48761149045E+02  0.48761149045E+02  0.00000000000E+00 0.  1.
          2   -1    0    0  501    0  0.00000000000E+00 -0.00000000000E+00 -0.46577979973E+03  0.46577979973E+03  0.00000000000E+00 0. -1.
         25    2    1    2    0    0 -0.62009283423E+02 -0.81757970406E+02 -0.20559990598E+03  0.26162532639E+03  0.12508786158E+03 0.  0.
         23    2    1    2    0    0  0.62009283423E+02  0.81757970406E+02 -0.21141874471E+03  0.25291562239E+03  0.93482134538E+02 0.  0.
          5    1    3    3  502    0  0.33591120250E+01  0.98151759440E+00  0.15609272307E+02  0.16533868040E+02  0.41800000000E+01 0. -1.
         -5    1    3    3    0  502 -0.65368395448E+02 -0.82739488000E+02 -0.22120917829E+03  0.24509145835E+03  0.41800000000E+01 0. -1.
        -11    1    4    4    0    0  0.75336761828E+02  0.83805714979E+02 -0.13750767609E+03  0.17778466337E+03  0.00000000000E+00 0.  1.
         11    1    4    4    0    0 -0.13327478405E+02 -0.20477445726E+01 -0.73911068620E+02  0.75130959019E+02  0.00000000000E+00 0. -1.
</event>
<event>
 8    1  0.6906553E-009  0.1033841E+03  0.7561462E-02  0.1273336E+00
         -2   -1    0    0    0  501 -0.00000000000E+00  0.00000000000E+00  0.10049761666E+03  0.10049761666E+03  0.00000000000E+00 0. -1.
          2   -1    0    0  501    0  0.00000000000E+00 -0.00000000000E+00 -0.21109288676E+03  0.21109288676E+03  0.00000000000E+00 0.  1.
         25    2    1    2    0    0 -0.53147550705E+02  0.59481565062E+02 -0.11768882021E+03  0.18937213538E+03  0.12509367901E+03 0.  0.
         23    2    1    2    0    0  0.53147550705E+02 -0.59481565062E+02  0.70935501069E+01  0.12221836804E+03  0.92327094100E+02 0.  0.
          5    1    3    3  502    0 -0.20022599737E+02  0.55081412294E+02  0.79557030897E+01  0.59292765934E+02  0.41800000000E+01 0. -1.
         -5    1    3    3    0  502 -0.33124950968E+02  0.44001527680E+01 -0.12564452330E+03  0.13007936944E+03  0.41800000000E+01 0. -1.
        -11    1    4    4    0    0  0.41162856848E+02  0.11188364404E+02 -0.17965670874E+02  0.46285263442E+02  0.00000000000E+00 0.  1.
         11    1    4    4    0    0  0.11984693857E+02 -0.70669929466E+02  0.25059220981E+02  0.75933104597E+02  0.00000000000E+00 0. -1.
</event>
<event>
 8    1  0.6906553E-009  0.1075650E+03  0.7561462E-02  0.1265147E+00
         -1   -1    0    0    0  501 -0.00000000000E+00  0.00000000000E+00  0.35189766370E+03  0.35189766370E+03  0.00000000000E+00 0.  1.
          1   -1    0    0  501    0  0.00000000000E+00 -0.00000000000E+00 -0.43070221741E+02  0.43070221741E+02  0.00000000000E+00 0. -1.
         25    2    1    2    0    0 -0.18277180857E+02  0.31513574744E+02  0.97866612793E+02  0.16294600409E+03  0.12508543327E+03 0.  0.
         23    2    1    2    0    0  0.18277180857E+02 -0.31513574744E+02  0.21096082917E+03  0.23202188135E+03  0.89456812204E+02 0.  0.
          5    1    3    3  502    0 -0.67207455060E+02  0.40077296342E+02  0.45351684882E+02  0.90538828242E+02  0.41800000000E+01 0.  1.
         -5    1    3    3    0  502  0.48930274203E+02 -0.85637215980E+01  0.52514927911E+02  0.72407175851E+02  0.41800000000E+01 0.  1.
        -11    1    4    4    0    0  0.49443671950E+02 -0.15118772275E+02  0.17153846195E+03  0.17916109483E+03  0.00000000000E+00 0.  1.
         11    1    4    4    0    0 -0.31166491093E+02 -0.16394802469E+02  0.39422367213E+02  0.52860786522E+02  0.00000000000E+00 0. -1.
</event>
<event>
 8    1  0.6906553E-009  0.1050895E+03  0.7561462E-02  0.1269943E+00
         -1   -1    0    0    0  501 -0.00000000000E+00  0.00000000000E+00  0.55607485640E+03  0.55607485640E+03  0.00000000000E+00 0.  1.
          1   -1    0    0  501    0  0.00000000000E+00 -0.00000000000E+00 -0.23963619954E+02  0.23963619954E+02  0.00000000000E+00 0. -1.
         25    2    1    2    0    0 -0.87383667710E+01  0.24853764596E+02  0.37010347924E+03  0.39155765892E+03  0.12508695472E+03 0.  0.
         23    2    1    2    0    0  0.87383667710E+01 -0.24853764596E+02  0.16200775721E+03  0.18848081744E+03  0.92652234078E+02 0.  0.
          5    1    3    3  502    0  0.50853025187E+02  0.17076879825E+02  0.26505780501E+03  0.27046397614E+03  0.41800000000E+01 0.  1.
         -5    1    3    3    0  502 -0.59591391958E+02  0.77768847705E+01  0.10504567423E+03  0.12109368277E+03  0.41800000000E+01 0.  1.
        -11    1    4    4    0    0  0.11358807966E+02  0.34703923555E+02  0.67423314484E+02  0.76676516382E+02  0.00000000000E+00 0.  1.
         11    1    4    4    0    0 -0.26204411951E+01 -0.59557688151E+02  0.94584442722E+02  0.11180430106E+03  0.00000000000E+00 0. -1.
</event>
<event>
 8    1  0.6906553E-009  0.1525835E+03  0.7561462E-02  0.1197334E+00
          1   -1    0    0  501    0  0.00000000000E+00  0.00000000000E+00  0.10189845949E+04  0.10189845949E+04  0.00000000000E+00 0. -1.
         -1   -1    0    0    0  501 -0.00000000000E+00 -0.00000000000E+00 -0.27102602131E+02  0.27102602131E+02  0.00000000000E+00 0.  1.
         25    2    1    2    0    0 -0.12759442260E+02 -0.12227302656E+03  0.54433188306E+03  0.57188836257E+03  0.12508238860E+03 0.  0.
         23    2    1    2    0    0  0.12759442260E+02  0.12227302656E+03  0.44755010967E+03  0.47419883442E+03  0.97210789054E+02 0.  0.
          5    1    3    3  502    0  0.40055253164E+02 -0.36460278645E+02  0.79807884950E+02  0.96542975535E+02  0.41800000000E+01 0. -1.
         -5    1    3    3    0  502 -0.52814695425E+02 -0.85812747914E+02  0.46452399811E+03  0.47534538704E+03  0.41800000000E+01 0. -1.
        -11    1    4    4    0    0  0.34907508934E+02  0.11093932762E+02  0.17887615049E+03  0.18258775079E+03  0.00000000000E+00 0. -1.
         11    1    4    4    0    0 -0.22148066674E+02  0.11117909380E+03  0.26867395919E+03  0.29161108364E+03  0.00000000000E+00 0.  1.
</event>
<event>
 8    1  0.6906553E-009  0.1212840E+03  0.7561462E-02  0.1240994E+00
          2   -1    0    0  501    0  0.00000000000E+00  0.00000000000E+00  0.44689467519E+03  0.44689467519E+03  0.00000000000E+00 0. -1.
         -2   -1    0    0    0  501 -0.00000000000E+00 -0.00000000000E+00 -0.53082676083E+02  0.53082676083E+02  0.00000000000E+00 0.  1.
         25    2    1    2    0    0  0.27553738376E+02 -0.70176583977E+02  0.88539987805E+02  0.17079449650E+03  0.12508984434E+03 0.  0.
         23    2    1    2    0    0 -0.27553738376E+02  0.70176583977E+02  0.30527201130E+03  0.32918285478E+03  0.97398098316E+02 0.  0.
          5    1    3    3  502    0  0.58393137583E+02 -0.22737760743E+02  0.94798237541E+02  0.11371430218E+03  0.41800000000E+01 0.  1.
         -5    1    3    3    0  502 -0.30839399207E+02 -0.47438823234E+02 -0.62582497364E+01  0.57080194315E+02  0.41800000000E+01 0.  1.
        -11    1    4    4    0    0 -0.63159096558E+02  0.31920195864E+02  0.16780879024E+03  0.18212018138E+03  0.00000000000E+00 0. -1.
         11    1    4    4    0    0  0.35605358182E+02  0.38256388113E+02  0.13746322106E+03  0.14706267340E+03  0.00000000000E+00 0.  1.
</event>
<event>
 8    1  0.6906553E-009  0.9206908E+02  0.7561462E-02  0.1297917E+00
          1   -1    0    0  501    0  0.00000000000E+00  0.00000000000E+00  0.12375711587E+03  0.12375711587E+03  0.00000000000E+00 0. -1.
         -1   -1    0    0    0  501 -0.00000000000E+00 -0.00000000000E+00 -0.10601833524E+03  0.10601833524E+03  0.00000000000E+00 0.  1.
         25    2    1    2    0    0  0.30565409647E+02 -0.14091358162E+02  0.84825945666E+01  0.12981551500E+03  0.12508917972E+03 0.  0.
         23    2    1    2    0    0 -0.30565409647E+02  0.14091358162E+02  0.92561860686E+01  0.99959936109E+02  0.93666969657E+02 0.  0.
          5    1    3    3  502    0 -0.13161150792E+02  0.28377774906E+02  0.47713087574E+02  0.57205988539E+02  0.41800000000E+01 0. -1.
         -5    1    3    3    0  502  0.43726560439E+02 -0.42469133069E+02 -0.39230493008E+02  0.72609526462E+02  0.41800000000E+01 0. -1.
        -11    1    4    4    0    0  0.29011372856E+02  0.13257644488E+02  0.22359552613E+02  0.38953491312E+02  0.00000000000E+00 0. -1.
         11    1    4    4    0    0 -0.59576782503E+02  0.83371367421E+00 -0.13103366545E+02  0.61006444797E+02  0.00000000000E+00 0.  1.
</event>
<event>
 8    1  0.6906553E-009  0.1195714E+03  0.7561462E-02  0.1243806E+00
          2   -1    0    0  501    0  0.00000000000E+00  0.00000000000E+00  0.29496282520E+04  0.29496282520E+04  0.00000000000E+00 0.  1.
         -2   -1    0    0    0  501 -0.00000000000E+00 -0.00000000000E+00 -0.67222128343E+01  0.67222128343E+01  0.00000000000E+00 0. -1.
         25    2    1    2    0    0  0.24567317849E+02  0.50360176081E+02  0.23423993971E+04  0.23464062527E+04  0.12509063322E+03 0.  0.
         23    2    1    2    0    0 -0.24567317849E+02 -0.50360176081E+02  0.60050664201E+03  0.60994421212E+03  0.91016560936E+02 0.  0.
          5    1    3    3  502    0  0.65330776531E+02 -0.28762081818E+01  0.14510134144E+04  0.14524922664E+04  0.41800000000E+01 0. -1.
         -5    1    3    3    0  502 -0.40763458682E+02  0.53236384263E+02  0.89138598275E+03  0.89391398625E+03  0.41800000000E+01 0. -1.
        -11    1    4    4    0    0  0.24214946870E+02  0.12190668169E+02  0.12987052557E+03  0.13267000208E+03  0.00000000000E+00 0.  1.
         11    1    4    4    0    0 -0.48782264720E+02 -0.62550844250E+02  0.47063611644E+03  0.47727421004E+03  0.00000000000E+00 0. -1.
</event>
<event>
 8    1  0.6906553E-009  0.2140510E+03  0.7561462E-02  0.1138398E+00
          2   -1    0    0  501    0  0.00000000000E+00  0.00000000000E+00  0.35894527891E+03  0.35894527891E+03  0.00000000000E+00 0. -1.
         -2   -1    0    0    0  501 -0.00000000000E+00 -0.00000000000E+00 -0.17784852907E+03  0.17784852907E+03  0.00000000000E+00 0.  1.
         25    2    1    2    0    0 -0.17303924916E+02  0.19912131199E+03 -0.19891659789E+02  0.23662573307E+03  0.12508931496E+03 0.  0.
         23    2    1    2    0    0  0.17303924916E+02 -0.19912131199E+03  0.20098840963E+03  0.30016807491E+03  0.98771502384E+02 0.  0.
          5    1    3    3  502    0 -0.29248444565E+02  0.18088992698E+03  0.26505924357E+02  0.18519361117E+03  0.41800000000E+01 0. -1.
         -5    1    3    3    0  502  0.11944519649E+02  0.18231385013E+02 -0.46397584146E+02  0.51432121906E+02  0.41800000000E+01 0. -1.
        -11    1    4    4    0    0 -0.40047031241E+02 -0.59934383413E+02  0.72740973848E+02  0.10240675907E+03  0.00000000000E+00 0.  1.
         11    1    4    4    0    0  0.57350956157E+02 -0.13918692858E+03  0.12824743578E+03  0.19776131584E+03  0.00000000000E+00 0. -1.
</event>
<event>
 8    1  0.6906553E-009  0.1441554E+03  0.7561462E-02  0.1207844E+00
         -1   -1    0    0    0  501 -0.00000000000E+00  0.00000000000E+00  0.17341806432E+03  0.17341806432E+03  0.00000000000E+00 0.  1.
          1   -1    0    0  501    0  0.00000000000E+00 -0.00000000000E+00 -0.16568854330E+03  0.16568854330E+03  0.00000000000E+00 0. -1.
         25    2    1    2    0    0 -0.10942891285E+03 -0.62088192770E+02  0.34175333904E+02  0.18067979850E+03  0.12509038927E+03 0.  0.
         23    2    1    2    0    0  0.10942891285E+03  0.62088192770E+02 -0.26445812877E+02  0.15842680912E+03  0.92574522313E+02 0.  0.
          5    1    3    3  502    0 -0.10895024401E+03 -0.14755062762E+02  0.61315235912E+02  0.12595593714E+03  0.41800000000E+01 0. -1.
         -5    1    3    3    0  502 -0.47866883655E+00 -0.47333130008E+02 -0.27139902007E+02  0.54723861351E+02  0.41800000000E+01 0. -1.
        -11    1    4    4    0    0  0.34410697090E+02  0.39575445595E+02  0.31339397109E+02  0.61093942248E+02  0.00000000000E+00 0.  1.
         11    1    4    4    0    0  0.75018215757E+02  0.22512747175E+02 -0.57785209986E+02  0.97332866874E+02  0.00000000000E+00 0. -1.
</event>
<event>
 8    1  0.6906553E-009  0.1941438E+03  0.7561462E-02  0.1154776E+00
         -2   -1    0    0    0  501 -0.00000000000E+00  0.00000000000E+00  0.56201252991E+02  0.56201252991E+02  0.00000000000E+00 0.  1.
          2   -1    0    0  501    0  0.00000000000E+00 -0.00000000000E+00 -0.74351611625E+03  0.74351611625E+03  0.00000000000E+00 0. -1.
         25    2    1    2    0    0 -0.48787816013E+01  0.16106623171E+03 -0.48016064117E+03  0.52169727135E+03  0.12509063952E+03 0.  0.
         23    2    1    2    0    0  0.48787816013E+01 -0.16106623171E+03 -0.20715422209E+03  0.27802009790E+03  0.91739683874E+02 0.  0.
          5    1    3    3  502    0 -0.32237374747E+01 -0.20553964461E+02 -0.68946301334E+02  0.72138220147E+02  0.41800000000E+01 0.  1.
         -5    1    3    3    0  502 -0.16550441266E+01  0.18162019617E+03 -0.41121433984E+03  0.44955905120E+03  0.41800000000E+01 0.  1.
        -11    1    4    4    0    0  0.98062651046E+01 -0.17258442165E+03 -0.19445878535E+03  0.26018409758E+03  0.00000000000E+00 0. -1.
         11    1    4    4    0    0 -0.49274835033E+01  0.11518189945E+02 -0.12695436743E+02  0.17836000319E+02  0.00000000000E+00 0.  1.
</event>
<event>
 8    1  0.6906553E-009  0.1446484E+03  0.7561462E-02  0.1207208E+00
         -1   -1    0    0    0  501 -0.00000000000E+00  0.00000000000E+00  0.34308136365E+03  0.34308136365E+03  0.00000000000E+00 0.  1.
          1   -1    0    0  501    0  0.00000000000E+00 -0.00000000000E+00 -0.91203164501E+02  0.91203164501E+02  0.00000000000E+00 0. -1.
         25    2    1    2    0    0 -0.12729936719E+03 -0.18953607214E+02  0.19837107702E+03  0.26751215245E+03  0.12508916580E+03 0.  0.
         23    2    1    2    0    0  0.12729936719E+03  0.18953607214E+02  0.53507122127E+02  0.16677237570E+03  0.91573167819E+02 0.  0.
          5    1    3    3  502    0 -0.34920367788E+02 -0.30213224686E+02  0.16030991649E+03  0.16688023477E+03  0.41800000000E+01 0. -1.
         -5    1    3    3    0  502 -0.92378999400E+02  0.11259617472E+02  0.38061160532E+02  0.10063191768E+03  0.41800000000E+01 0. -1.
        -11    1    4    4    0    0  0.50416410651E+01  0.26795759571E+02 -0.96734103948E+01  0.28931051559E+02  0.00000000000E+00 0. -1.
         11    1    4    4    0    0  0.12225772612E+03 -0.78421523573E+01  0.63180532522E+02  0.13784132414E+03  0.00000000000E+00 0.  1.
</event>
<event>
 8    1  0.6906553E-009  0.1214096E+03  0.7561462E-02  0.1240790E+00
         -2   -1    0    0    0  501 -0.00000000000E+00  0.00000000000E+00  0.17388372121E+02  0.17388372121E+02  0.00000000000E+00 0.  1.
          2   -1    0    0  501    0  0.00000000000E+00 -0.00000000000E+00 -0.91617782816E+03  0.91617782816E+03  0.00000000000E+00 0. -1.
         25    2    1    2    0    0 -0.53790667119E+02  0.96076055157E+01 -0.37761146956E+03  0.40152581575E+03  0.12508723683E+03 0.  0.
         23    2    1    2    0    0  0.53790667119E+02 -0.96076055157E+01 -0.52117798648E+03  0.53204038453E+03  0.91949634199E+02 0.  0.
          5    1    3    3  502    0 -0.23412936901E+02 -0.57464946954E+02 -0.15479313782E+03  0.16681958416E+03  0.41800000000E+01 0.  1.
         -5    1    3    3    0  502 -0.30377730218E+02  0.67072552469E+02 -0.22281833174E+03  0.23470623159E+03  0.41800000000E+01 0.  1.
        -11    1    4    4    0    0  0.43192741228E+02 -0.49445410528E+02 -0.33024554230E+03  0.33670844914E+03  0.00000000000E+00 0.  1.
         11    1    4    4    0    0  0.10597925891E+02  0.39837805013E+02 -0.19093244418E+03  0.19533193539E+03  0.00000000000E+00 0. -1.
</event>
<event>
 8    1  0.6906553E-009  0.8558643E+02  0.7561462E-02  0.1313906E+00
         -2   -1    0    0    0  501 -0.00000000000E+00  0.00000000000E+00  0.58791393540E+02  0.58791393540E+02  0.00000000000E+00 0.  1.
          2   -1    0    0  501    0  0.00000000000E+00 -0.00000000000E+00 -0.26809700317E+03  0.26809700317E+03  0.00000000000E+00 0. -1.
         25    2    1    2    0    0 -0.62740826688E+01 -0.55113653146E+02 -0.75158454816E+02  0.15611867141E+03  0.12508943742E+03 0.  0.
         23    2    1    2    0    0  0.62740826688E+01  0.55113653146E+02 -0.13414715482E+03  0.17076972531E+03  0.89944210816E+02 0.  0.
          5    1    3    3  502    0  0.14860861827E+02 -0.12933276138E+02  0.32651755628E+02  0.38363060247E+02  0.41800000000E+01 0.  1.
         -5    1    3    3    0  502 -0.21134944495E+02 -0.42180377008E+02 -0.10781021044E+03  0.11775561116E+03  0.41800000000E+01 0.  1.
        -11    1    4    4    0    0  0.15328809875E+02 -0.21565208458E+02 -0.49984177399E+02  0.56554828426E+02  0.00000000000E+00 0. -1.
         11    1    4    4    0    0 -0.90547272060E+01  0.76678861603E+02 -0.84162977417E+02  0.11421489688E+03  0.00000000000E+00 0.  1.
</event>
<event>
 8    1  0.6906553E-009  0.1411812E+03  0.7561462E-02  0.1211748E+00
         -2   -1    0    0    0  501 -0.00000000000E+00  0.00000000000E+00  0.31979315208E+02  0.31979315208E+02  0.00000000000E+00 0.  1.
          2   -1    0    0  501    0  0.00000000000E+00 -0.00000000000E+00 -0.88538950987E+03  0.88538950987E+03  0.00000000000E+00 0. -1.
         25    2    1    2    0    0  0.12536080898E+03 -0.12215871517E+02 -0.39498552993E+03  0.43304251179E+03  0.12509071994E+03 0.  0.
         23    2    1    2    0    0 -0.12536080898E+03  0.12215871517E+02 -0.45842466473E+03  0.48432631329E+03  0.92489159202E+02 0.  0.
          5    1    3    3  502    0  0.11499310006E+03  0.46191859108E+01 -0.39639526133E+03  0.41278496284E+03  0.41800000000E+01 0. -1.
         -5    1    3    3    0  502  0.10367708914E+02 -0.16835057428E+02  0.14097314000E+01  0.20257548947E+02  0.41800000000E+01 0. -1.
        -11    1    4    4    0    0 -0.18310127762E+02  0.33190632584E+02 -0.20415786229E+03  0.20764708427E+03  0.00000000000E+00 0.  1.
         11    1    4    4    0    0 -0.10705068122E+03 -0.20974761067E+02 -0.25426680244E+03  0.27667922902E+03  0.00000000000E+00 0. -1.
</event>
<event>
 8    1  0.6906553E-009  0.1142917E+03  0.7561462E-02  0.1252822E+00
         -2   -1    0    0    0  501 -0.00000000000E+00  0.00000000000E+00  0.80190596682E+02  0.80190596682E+02  0.00000000000E+00 0.  1.
          2   -1    0    0  501    0  0.00000000000E+00 -0.00000000000E+00 -0.20812553803E+03  0.20812553803E+03  0.00000000000E+00 0. -1.
         25    2    1    2    0    0 -0.19986722032E+02  0.56474414244E+02 -0.10963900280E+03  0.17679696837E+03  0.12509048153E+03 0.  0.
         23    2    1    2    0    0  0.19986722032E+02 -0.56474414244E+02 -0.18295938555E+02  0.11151916634E+03  0.92265673854E+02 0.  0.
          5    1    3    3  502    0 -0.63688110064E+02  0.49408302219E+02 -0.31011432519E+02  0.86466970796E+02  0.41800000000E+01 0. -1.
         -5    1    3    3    0  502  0.43701388032E+02  0.70661120248E+01 -0.78627570276E+02  0.90329997579E+02  0.41800000000E+01 0. -1.
        -11    1    4    4    0    0  0.51261919195E+02 -0.19184695890E+02 -0.28623126867E+02  0.61766660162E+02  0.00000000000E+00 0.  1.
         11    1    4    4    0    0 -0.31275197163E+02 -0.37289718354E+02  0.10327188312E+02  0.49752506178E+02  0.00000000000E+00 0. -1.
</event>
<event>
 8    1  0.6906553E-009  0.9485830E+02  0.7561462E-02  0.1291496E+00
         -1   -1    0    0    0  501 -0.00000000000E+00  0.00000000000E+00  0.19257846769E+03  0.19257846769E+03  0.00000000000E+00 0.  1.
          1   -1    0    0  501    0  0.00000000000E+00 -0.00000000000E+00 -0.20553239190E+03  0.20553239190E+03  0.00000000000E+00 0. -1.
         25    2    1    2    0    0  0.11560591427E+02  0.49957632780E+02 -0.16531025572E+03  0.21354925982E+03  0.12508554423E+03 0.  0.
         23    2    1    2    0    0 -0.11560591427E+02 -0.49957632780E+02  0.15235633150E+03  0.18456159977E+03  0.90670392169E+02 0.  0.
          5    1    3    3  502    0  0.35066872617E+01  0.80964359889E+02 -0.16185463593E+03  0.18105778083E+03  0.41800000000E+01 0. -1.
         -5    1    3    3    0  502  0.80539041648E+01 -0.31006727109E+02 -0.34556197836E+01  0.32491478981E+02  0.41800000000E+01 0. -1.
        -11    1    4    4    0    0 -0.29531068136E+02 -0.79668151426E+01  0.59030236737E+01  0.31151241023E+02  0.00000000000E+00 0. -1.
         11    1    4    4    0    0  0.17970476710E+02 -0.41990817638E+02  0.14645330782E+03  0.15341035875E+03  0.00000000000E+00 0.  1.
</event>
<event>
 8    1  0.6906553E-009  0.1949921E+03  0.7561462E-02  0.1154034E+00
          2   -1    0    0  501    0  0.00000000000E+00  0.00000000000E+00  0.19203034332E+04  0.19203034332E+04  0.00000000000E+00 0. -1.
         -2   -1    0    0    0  501 -0.00000000000E+00 -0.00000000000E+00 -0.22470192287E+02  0.22470192287E+02  0.00000000000E+00 0.  1.
         25    2    1    2    0    0 -0.17453020330E+03 -0.25876432964E+01  0.11273604407E+04  0.11476319962E+04  0.12510055008E+03 0.  0.
         23    2    1    2    0    0  0.17453020330E+03  0.25876432964E+01  0.77047280025E+03  0.79514162935E+03  0.90301644710E+02 0.  0.
          5    1    3    3  502    0 -0.15422390998E+03 -0.37197409760E+02  0.10313600148E+04  0.10434987370E+04  0.41800000000E+01 0.  1.
         -5    1    3    3    0  502 -0.20306293311E+02  0.34609766464E+02  0.96000425912E+02  0.10413325913E+03  0.41800000000E+01 0.  1.
        -11    1    4    4    0    0  0.56076153877E+02  0.37484833565E+02  0.18830546737E+03  0.20002149090E+03  0.00000000000E+00 0.  1.
         11    1    4    4    0    0  0.11845404942E+03 -0.34897190268E+02  0.58216733288E+03  0.59512013845E+03  0.00000000000E+00 0. -1.
</event>
<event>
 8    1  0.6906553E-009  0.7782046E+02  0.7561462E-02  0.1335353E+00
          1   -1    0    0  501    0  0.00000000000E+00  0.00000000000E+00  0.67103014178E+02  0.67103014178E+02  0.00000000000E+00 0. -1.
         -1   -1    0    0    0  501 -0.00000000000E+00 -0.00000000000E+00 -0.29052378703E+03  0.29052378703E+03  0.00000000000E+00 0.  1.
         25    2    1    2    0    0 -0.45279927626E+02 -0.41727765448E+02 -0.38514401322E+02  0.14465153956E+03  0.12509688459E+03 0.  0.
         23    2    1    2    0    0  0.45279927626E+02  0.41727765448E+02 -0.18490637153E+03  0.21297526164E+03  0.85887237608E+02 0.  0.
          5    1    3    3  502    0 -0.28326955941E+02 -0.51432375188E+02  0.34990832547E+02  0.68480189929E+02  0.41800000000E+01 0. -1.
         -5    1    3    3    0  502 -0.16952971685E+02  0.97046097401E+01 -0.73505233870E+02  0.76171349636E+02  0.41800000000E+01 0. -1.
        -11    1    4    4    0    0  0.24804310513E+02 -0.54264200818E+01 -0.50135513846E+01  0.25881181434E+02  0.00000000000E+00 0. -1.
         11    1    4    4    0    0  0.20475617113E+02  0.47154185529E+02 -0.17989282014E+03  0.18709408021E+03  0.00000000000E+00 0.  1.
</event>
<event>
 8    1  0.6906553E-009  0.1156501E+03  0.7561462E-02  0.1250450E+00
         -2   -1    0    0    0  501 -0.00000000000E+00  0.00000000000E+00  0.82119774446E+02  0.82119774446E+02  0.00000000000E+00 0.  1.
          2   -1    0    0  501    0  0.00000000000E+00 -0.00000000000E+00 -0.18581948738E+03  0.18581948738E+03  0.00000000000E+00 0. -1.
         25    2    1    2    0    0 -0.82256634859E+01 -0.46478278576E+02 -0.22814872891E+02  0.13563353797E+03  0.12509215114E+03 0.  0.
         23    2    1    2    0    0  0.82256634859E+01  0.46478278576E+02 -0.80884840046E+02  0.13230572386E+03  0.93458842808E+02 0.  0.
          5    1    3    3  502    0 -0.39489019923E+02  0.30735631442E+02 -0.10824565819E+02  0.51368330319E+02  0.41800000000E+01 0. -1.
         -5    1    3    3    0  502  0.31263356437E+02 -0.77213910018E+02 -0.11990307072E+02  0.84265207646E+02  0.41800000000E+01 0. -1.
        -11    1    4    4    0    0  0.46865956825E+02  0.20740697682E+02 -0.18383976522E+02  0.54447819444E+02  0.00000000000E+00 0.  1.
         11    1    4    4    0    0 -0.38640293339E+02  0.25737580894E+02 -0.62500863523E+02  0.77857904421E+02  0.00000000000E+00 0. -1.
</event>
<event>
 8    1  0.6906553E-009  0.2431923E+03  0.7561462E-02  0.1117684E+00
         -1   -1    0    0    0  501 -0.00000000000E+00  0.00000000000E+00  0.90512693238E+02  0.90512693238E+02  0.00000000000E+00 0.  1.
          1   -1    0    0  501    0  0.00000000000E+00 -0.00000000000E+00 -0.72407271777E+03  0.72407271777E+03  0.00000000000E+00 0. -1.
         25    2    1    2    0    0 -0.20412008805E+03 -0.96806194038E+02 -0.24416102327E+03  0.35538529937E+03  0.12509059188E+03 0.  0.
         23    2    1    2    0    0  0.20412008805E+03  0.96806194038E+02 -0.38939900126E+03  0.45920011163E+03  0.90535687954E+02 0.  0.
          5    1    3    3  502    0 -0.32963440871E+02 -0.77315786893E+02 -0.61189368042E+02  0.10404773183E+03  0.41800000000E+01 0. -1.
         -5    1    3    3    0  502 -0.17115664718E+03 -0.19490407145E+02 -0.18297165523E+03  0.25133756755E+03  0.41800000000E+01 0. -1.
        -11    1    4    4    0    0  0.14125698248E+03  0.88038680097E+02 -0.34074906489E+03  0.37922851886E+03  0.00000000000E+00 0. -1.
         11    1    4    4    0    0  0.62863105563E+02  0.87675139406E+01 -0.48649936368E+02  0.79971592771E+02  0.00000000000E+00 0.  1.
</event>
<event>
 8    1  0.6906553E-009  0.1079840E+03  0.7561462E-02  0.1264349E+00
          3   -1    0    0  501    0  0.00000000000E+00  0.00000000000E+00  0.21602419804E+02  0.21602419804E+02  0.00000000000E+00 0. -1.
         -3   -1    0    0    0  501 -0.00000000000E+00 -0.00000000000E+00 -0.86063931316E+03  0.86063931316E+03  0.00000000000E+00 0.  1.
         25    2    1    2    0    0  0.73883216397E+02  0.13708740220E+02 -0.62070840041E+03  0.63763114145E+03  0.12509154641E+03 0.  0.
         23    2    1    2    0    0 -0.73883216397E+02 -0.13708740220E+02 -0.21832849294E+03  0.24461059151E+03  0.80748693022E+02 0.  0.
          5    1    3    3  502    0 -0.18624003776E+02  0.97875183346E+01 -0.36523795213E+03  0.36586730259E+03  0.41800000000E+01 0. -1.
         -5    1    3    3    0  502  0.92507220172E+02  0.39212218852E+01 -0.25547044828E+03  0.27176383886E+03  0.41800000000E+01 0. -1.
        -11    1    4    4    0    0 -0.66520125450E+01 -0.31575218834E+02 -0.30852572481E+02  0.44644427917E+02  0.00000000000E+00 0. -1.
         11    1    4    4    0    0 -0.67231203852E+02  0.17866478614E+02 -0.18747592046E+03  0.19996616359E+03  0.00000000000E+00 0.  1.
</event>
<event>
 8    1  0.6906553E-009  0.2970515E+03  0.7561462E-02  0.1086724E+00
          2   -1    0    0  501    0  0.00000000000E+00  0.00000000000E+00  0.21400177609E+04  0.21400177609E+04  0.00000000000E+00 0. -1.
         -2   -1    0    0    0  501 -0.00000000000E+00 -0.00000000000E+00 -0.44672030889E+02  0.44672030889E+02  0.00000000000E+00 0.  1.
         25    2    1    2    0    0 -0.27945759186E+03 -0.35547881773E+02  0.83815289264E+03  0.89303298468E+03  0.12508973872E+03 0.  0.
         23    2    1    2    0    0  0.27945759186E+03  0.35547881773E+02  0.12571928374E+04  0.12916568071E+04  0.92104720195E+02 0.  0.
          5    1    3    3  502    0 -0.59976555113E+02  0.39508052126E+02  0.26797154242E+03  0.27746043554E+03  0.41800000000E+01 0.  1.
         -5    1    3    3    0  502 -0.21948103674E+03 -0.75055933899E+02  0.57018135023E+03  0.61557254914E+03  0.41800000000E+01 0.  1.
        -11    1    4    4    0    0  0.88643742650E+02  0.44407414228E+02  0.56295925050E+03  0.57162299575E+03  0.00000000000E+00 0. -1.
         11    1    4    4    0    0  0.19081384921E+03 -0.88595324552E+01  0.69423358688E+03  0.72003381137E+03  0.00000000000E+00 0.  1.
</event>
<event>
 8    1  0.6906553E-009  0.1054241E+03  0.7561462E-02  0.1269286E+00
         -2   -1    0    0    0  501 -0.00000000000E+00  0.00000000000E+00  0.15223526898E+02  0.15223526898E+02  0.00000000000E+00 0.  1.
          2   -1    0    0  501    0  0.00000000000E+00 -0.00000000000E+00 -0.91585460209E+03  0.91585460209E+03  0.00000000000E+00 0. -1.
         25    2    1    2    0    0 -0.36936734836E+02  0.82398940299E+01 -0.39945238883E+03  0.42028806253E+03  0.12509047258E+03 0.  0.
         23    2    1    2    0    0  0.36936734836E+02 -0.82398940299E+01 -0.50117868636E+03  0.51079006646E+03  0.91072488129E+02 0.  0.
          5    1    3    3  502    0 -0.43117741105E+02  0.52392444439E+02 -0.12577700982E+03  0.14297355151E+03  0.41800000000E+01 0.  1.
         -5    1    3    3    0  502  0.61810062690E+01 -0.44152550409E+02 -0.27367537901E+03  0.27731451102E+03  0.41800000000E+01 0.  1.
        -11    1    4    4    0    0  0.64263495805E+02  0.10273920318E+02 -0.30651009282E+03  0.31334292290E+03  0.00000000000E+00 0.  1.
         11    1    4    4    0    0 -0.27326760970E+02 -0.18513814348E+02 -0.19466859355E+03  0.19744714356E+03  0.00000000000E+00 0. -1.
</event>
<event>
 8    1  0.6906553E-009  0.1181965E+03  0.7561462E-02  0.1246102E+00
          1   -1    0    0  501    0  0.00000000000E+00  0.00000000000E+00  0.96022989920E+03  0.96022989920E+03  0.00000000000E+00 0. -1.
         -1   -1    0    0    0  501 -0.00000000000E+00 -0.00000000000E+00 -0.15551846038E+02  0.15551846038E+02  0.00000000000E+00 0.  1.
         25    2    1    2    0    0 -0.56432339249E+02 -0.33762629011E+01  0.53605568745E+03  0.55335386097E+03  0.12509511317E+03 0.  0.
         23    2    1    2    0    0  0.56432339249E+02  0.33762629011E+01  0.40862236571E+03  0.42242788427E+03  0.90978412730E+02 0.  0.
          5    1    3    3  502    0 -0.25088623755E+02 -0.63193970277E+02  0.22819854694E+03  0.23814904188E+03  0.41800000000E+01 0.  1.
         -5    1    3    3    0  502 -0.31343715494E+02  0.59817707376E+02  0.30785714051E+03  0.31520481910E+03  0.41800000000E+01 0.  1.
        -11    1    4    4    0    0  0.74092236482E+02  0.19588831795E+02  0.36176900883E+03  0.36979750890E+03  0.00000000000E+00 0.  1.
         11    1    4    4    0    0 -0.17659897233E+02 -0.16212568894E+02  0.46853356886E+02  0.52630375373E+02  0.00000000000E+00 0. -1.
</event>
<event>
 8    1  0.6906553E-009  0.2437335E+03  0.7561462E-02  0.1117330E+00
          1   -1    0    0  501    0  0.00000000000E+00  0.00000000000E+00  0.40413678107E+03  0.40413678107E+03  0.00000000000E+00 0. -1.
         -1   -1    0    0    0  501 -0.00000000000E+00 -0.00000000000E+00 -0.18409685132E+03  0.18409685132E+03  0.00000000000E+00 0.  1.
         25    2    1    2    0    0 -0.22481346120E+03 -0.75969725199E+02  0.28009488068E+02  0.26971514799E+03  0.12509691504E+03 0.  0.
         23    2    1    2    0    0  0.22481346120E+03  0.75969725199E+02  0.19203044169E+03  0.31851848439E+03  0.90916680989E+02 0.  0.
          5    1    3    3  502    0 -0.11084284633E+02 -0.23512239302E+02  0.41547491883E+02  0.49186921479E+02  0.41800000000E+01 0.  1.
         -5    1    3    3    0  502 -0.21372917657E+03 -0.52457485897E+02 -0.13538003816E+02  0.22052822651E+03  0.41800000000E+01 0.  1.
        -11    1    4    4    0    0  0.14724627041E+02  0.17665672716E+02 -0.62290273545E+01  0.23826275743E+02  0.00000000000E+00 0.  1.
         11    1    4    4    0    0  0.21008883416E+03  0.58304052483E+02  0.19825946904E+03  0.29469220865E+03  0.00000000000E+00 0. -1.
</event>
<event>
 8    1  0.6906553E-009  0.9777720E+02  0.7561462E-02  0.1285041E+00
          1   -1    0    0  501    0  0.00000000000E+00  0.00000000000E+00  0.18920967214E+03  0.18920967214E+03  0.00000000000E+00 0. -1.
         -1   -1    0    0    0  501 -0.00000000000E+00 -0.00000000000E+00 -0.71159545289E+02  0.71159545289E+02  0.00000000000E+00 0.  1.
         25    2    1    2    0    0 -0.23811669488E+02 -0.59282842022E+01  0.11143987393E+03  0.16932019822E+03  0.12509334062E+03 0.  0.
         23    2    1    2    0    0  0.23811669488E+02  0.59282842022E+01  0.66102529222E+01  0.91049019207E+02  0.87430476937E+02 0.  0.
          5    1    3    3  502    0 -0.16729197635E+02 -0.58285032114E+02  0.20651807398E+02  0.64194864054E+02  0.41800000000E+01 0. -1.
         -5    1    3    3    0  502 -0.70824718532E+01  0.52356747912E+02  0.90788066533E+02  0.10512533417E+03  0.41800000000E+01 0. -1.
        -11    1    4    4    0    0  0.11254969804E+01 -0.34978750069E+02  0.22548227449E+02  0.41631745831E+02  0.00000000000E+00 0. -1.
         11    1    4    4    0    0  0.22686172508E+02  0.40907034271E+02 -0.15937974526E+02  0.49417273376E+02  0.00000000000E+00 0.  1.
</event>
<event>
 8    1  0.6906553E-009  0.1186554E+03  0.7561462E-02  0.1245332E+00
         -1   -1    0    0    0  501 -0.00000000000E+00  0.00000000000E+00  0.59690325462E+02  0.59690325462E+02  0.00000000000E+00 0.  1.
          1   -1    0    0  501    0  0.00000000000E+00 -0.00000000000E+00 -0.45709761670E+03  0.45709761670E+03  0.00000000000E+00 0. -1.
         25    2    1    2    0    0  0.50387875502E+02  0.62285626277E+02 -0.35931912712E+03  0.38881382887E+03  0.12509005226E+03 0.  0.
         23    2    1    2    0    0 -0.50387875502E+02 -0.62285626277E+02 -0.38088164118E+02  0.12797411328E+03  0.92240057386E+02 0.  0.
          5    1    3    3  502    0  0.33945308869E+02 -0.23258932469E+02 -0.22427780871E+03  0.22805979438E+03  0.41800000000E+01 0. -1.
         -5    1    3    3    0  502  0.16442566633E+02  0.85544558746E+02 -0.13504131841E+03  0.16075403449E+03  0.41800000000E+01 0. -1.
        -11    1    4    4    0    0 -0.50819211159E+02 -0.45726920745E+01 -0.47244118485E+02  0.69537820408E+02  0.00000000000E+00 0.  1.
         11    1    4    4    0    0  0.43133565696E+00 -0.57712934203E+02  0.91559543672E+01  0.58436292876E+02  0.00000000000E+00 0. -1.
</event>
<event>
 8    1  0.6906553E-009  0.1928655E+03  0.7561462E-02  0.1155902E+00
         -4   -1    0    0    0  501 -0.00000000000E+00  0.00000000000E+00  0.31198747843E+03  0.31198747843E+03  0.00000000000E+00 0.  1.
          4   -1    0    0  501    0  0.00000000000E+00 -0.00000000000E+00 -0.12337491678E+03  0.12337491678E+03  0.00000000000E+00 0. -1.
         25    2    1    2    0    0 -0.98691676467E+01  0.16298008048E+03  0.10062919388E+03  0.22898342747E+03  0.12508904145E+03 0.  0.
         23    2    1    2    0    0  0.98691676467E+01 -0.16298008048E+03  0.87983367774E+02  0.20637896773E+03  0.90505791039E+02 0.  0.
          5    1    3    3  502    0 -0.32191948754E+01  0.18319498808E+03  0.83741986187E+02  0.20149679780E+03  0.41800000000E+01 0. -1.
         -5    1    3    3    0  502 -0.66499727712E+01 -0.20214907597E+02  0.16887207690E+02  0.27486629670E+02  0.41800000000E+01 0. -1.
        -11    1    4    4    0    0 -0.14407629754E+02  0.15230352175E+01 -0.56426682083E+01  0.15547962436E+02  0.00000000000E+00 0. -1.
         11    1    4    4    0    0  0.24276797401E+02 -0.16450311570E+03  0.93626035982E+02  0.19083100529E+03  0.00000000000E+00 0.  1.
</event>
<event>
 8    1  0.6906553E-009  0.1244390E+03  0.7561462E-02  0.1235949E+00
         -2   -1    0    0    0  501 -0.00000000000E+00  0.00000000000E+00  0.27348640416E+02  0.27348640416E+02  0.00000000000E+00 0.  1.
          2   -1    0    0  501    0  0.00000000000E+00 -0.00000000000E+00 -0.75055138781E+03  0.75055138781E+03  0.00000000000E+00 0. -1.
         25    2    1    2    0    0 -0.48013536512E+02  0.70097376848E+02 -0.28332413037E+03  0.32115319757E+03  0.12509145266E+03 0.  0.
         23    2    1    2    0    0  0.48013536512E+02 -0.70097376848E+02 -0.43987861703E+03  0.45674683066E+03  0.88913034324E+02 0.  0.
          5    1    3    3  502    0 -0.60681164650E+02  0.67905408399E+01 -0.50014644660E+02  0.79039561415E+02  0.41800000000E+01 0. -1.
         -5    1    3    3    0  502  0.12667628139E+02  0.63306836008E+02 -0.23330948571E+03  0.24211363615E+03  0.41800000000E+01 0. -1.
        -11    1    4    4    0    0  0.42205677153E+02  0.94240684205E+01 -0.15628456807E+03  0.16215732628E+03  0.00000000000E+00 0.  1.
         11    1    4    4    0    0  0.58078593587E+01 -0.79521445269E+02 -0.28359404896E+03  0.29458950438E+03  0.00000000000E+00 0. -1.
</event>
<event>
 8    1  0.6906553E-009  0.1406582E+03  0.7561462E-02  0.1212446E+00
          2   -1    0    0  501    0  0.00000000000E+00  0.00000000000E+00  0.13468824043E+04  0.13468824043E+04  0.00000000000E+00 0. -1.
         -2   -1    0    0    0  501 -0.00000000000E+00 -0.00000000000E+00 -0.21230590703E+02  0.21230590703E+02  0.00000000000E+00 0.  1.
         25    2    1    2    0    0  0.12476066147E+03  0.18438542504E+02  0.84053794864E+03  0.85910395432E+03  0.12510139378E+03 0.  0.
         23    2    1    2    0    0 -0.12476066147E+03 -0.18438542504E+02  0.48511386498E+03  0.50900904070E+03  0.88597624258E+02 0.  0.
          5    1    3    3  502    0  0.32666814713E+02 -0.51216524416E+01  0.36390687477E+02  0.49346799716E+02  0.41800000000E+01 0. -1.
         -5    1    3    3    0  502  0.92093846758E+02  0.23560194945E+02  0.80414726117E+03  0.80975715461E+03  0.41800000000E+01 0. -1.
        -11    1    4    4    0    0 -0.11794209792E+02 -0.36568823011E+02  0.95383221130E+02  0.10283161515E+03  0.00000000000E+00 0. -1.
         11    1    4    4    0    0 -0.11296645168E+03  0.18130280507E+02  0.38973064385E+03  0.40617742556E+03  0.00000000000E+00 0.  1.
</event>
<event>
 8    1  0.6906553E-009  0.1092215E+03  0.7561462E-02  0.1262018E+00
          1   -1    0    0  501    0  0.00000000000E+00  0.00000000000E+00  0.14878375366E+03  0.14878375366E+03  0.00000000000E+00 0. -1.
         -1   -1    0    0    0  501 -0.00000000000E+00 -0.00000000000E+00 -0.19561275543E+03  0.19561275543E+03  0.00000000000E+00 0.  1.
         25    2    1    2    0    0 -0.15668268276E+02  0.12141379431E+02  0.10641537640E+03  0.16541129030E+03  0.12507499709E+03 0.  0.
         23    2    1    2    0    0  0.15668268276E+02 -0.12141379431E+02 -0.15324437818E+03  0.17898521879E+03  0.90326969276E+02 0.  0.
          5    1    3    3  502    0 -0.35741957836E+02 -0.49766406345E+02  0.52487180184E+02  0.80787122947E+02  0.41800000000E+01 0.  1.
         -5    1    3    3    0  502  0.20073689560E+02  0.61907785776E+02  0.53928196217E+02  0.84624167349E+02  0.41800000000E+01 0.  1.
        -11    1    4    4    0    0 -0.10169351641E+02  0.35874492558E+02 -0.51938994940E+02  0.63937892712E+02  0.00000000000E+00 0.  1.
         11    1    4    4    0    0  0.25837619916E+02 -0.48015871989E+02 -0.10130538324E+03  0.11504732608E+03  0.00000000000E+00 0. -1.
</event>
<event>
 8    1  0.6906553E-009  0.1049137E+03  0.7561462E-02  0.1270290E+00
         -1   -1    0    0    0  501 -0.00000000000E+00  0.00000000000E+00  0.25439970874E+02  0.25439970874E+02  0.00000000000E+00 0.  1.
          1   -1    0    0  501    0  0.00000000000E+00 -0.00000000000E+00 -0.55684463812E+03  0.55684463812E+03  0.00000000000E+00 0. -1.
         25    2    1    2    0    0  0.29054343858E+02 -0.24590389758E+02 -0.37873646862E+03  0.40067136846E+03  0.12508953062E+03 0.  0.
         23    2    1    2    0    0 -0.29054343858E+02  0.24590389758E+02 -0.15266819862E+03  0.18161324053E+03  0.90702525332E+02 0.  0.
          5    1    3    3  502    0 -0.35520931817E+02 -0.29969049653E+02 -0.63409621134E+02  0.78728222300E+02  0.41800000000E+01 0.  1.
         -5    1    3    3    0  502  0.64575275674E+02  0.53786598949E+01 -0.31532684749E+03  0.32194314616E+03  0.41800000000E+01 0.  1.
        -11    1    4    4    0    0 -0.14142199078E+02 -0.34501373709E+02 -0.53402664736E+02  0.65132105627E+02  0.00000000000E+00 0.  1.
         11    1    4    4    0    0 -0.14912144779E+02  0.59091763467E+02 -0.99265533885E+02  0.11648113491E+03  0.00000000000E+00 0. -1.
</event>
<event>
 8    1  0.6906553E-009  0.9868646E+02  0.7561462E-02  0.1283083E+00
          2   -1    0    0  501    0  0.00000000000E+00  0.00000000000E+00  0.14291647167E+04  0.14291647167E+04  0.00000000000E+00 0.  1.
         -2   -1    0    0    0  501 -0.00000000000E+00 -0.00000000000E+00 -0.12813262829E+02  0.12813262829E+02  0.00000000000E+00 0. -1.
         25    2    1    2    0    0  0.36011729369E+01 -0.62784383274E+02  0.10115201137E+04  0.10211636273E+04  0.12508943225E+03 0.  0.
         23    2    1    2    0    0 -0.36011729369E+01  0.62784383274E+02  0.40483134019E+03  0.42081435225E+03  0.96132501434E+02 0.  0.
          5    1    3    3  502    0  0.21096560117E+02 -0.33430390816E+01  0.80997302473E+03  0.81026539723E+03  0.41800000000E+01 0. -1.
         -5    1    3    3    0  502 -0.17495387180E+02 -0.59441344192E+02  0.20154708896E+03  0.21089823006E+03  0.41800000000E+01 0. -1.
        -11    1    4    4    0    0  0.24256234812E+02  0.78054407563E+02  0.26023255310E+03  0.27276700160E+03  0.00000000000E+00 0. -1.
         11    1    4    4    0    0 -0.27857407749E+02 -0.15270024289E+02  0.14459878709E+03  0.14804735065E+03  0.00000000000E+00 0.  1.
</event>
<event>
 8    1  0.6906553E-009  0.2016416E+03  0.7561462E-02  0.1148361E+00
          2   -1    0    0  501    0  0.00000000000E+00  0.00000000000E+00  0.11431406225E+04  0.11431406225E+04  0.00000000000E+00 0. -1.
         -2   -1    0    0    0  501 -0.00000000000E+00 -0.00000000000E+00 -0.38553667653E+02  0.38553667653E+02  0.00000000000E+00 0.  1.
         25    2    1    2    0    0  0.15225808331E+03  0.91602871745E+02  0.64920861637E+03  0.68461228473E+03  0.12509413572E+03 0.  0.
         23    2    1    2    0    0 -0.15225808331E+03 -0.91602871745E+02  0.45537833848E+03  0.49708200543E+03  0.90263386347E+02 0.  0.
          5    1    3    3  502    0  0.11627281406E+03  0.12092718751E+03  0.45707590634E+03  0.48690718677E+03  0.41800000000E+01 0.  1.
         -5    1    3    3    0  502  0.35985269250E+02 -0.29324315765E+02  0.19213271003E+03  0.19770509796E+03  0.41800000000E+01 0.  1.
        -11    1    4    4    0    0 -0.89160846505E+02 -0.16329292561E+02  0.14016964724E+03  0.16692463075E+03  0.00000000000E+00 0.  1.
         11    1    4    4    0    0 -0.63097236803E+02 -0.75273579185E+02  0.31520869124E+03  0.33015737467E+03  0.00000000000E+00 0. -1.
</event>
<event>
 8    1  0.6906553E-009  0.1133354E+03  0.7561462E-02  0.1254515E+00
         -2   -1    0    0    0  501 -0.00000000000E+00  0.00000000000E+00  0.12561225153E+03  0.12561225153E+03  0.00000000000E+00 0.  1.
          2   -1    0    0  501    0  0.00000000000E+00 -0.00000000000E+00 -0.14746558734E+03  0.14746558734E+03  0.00000000000E+00 0. -1.
         25    2    1    2    0    0  0.16782303684E+02  0.57282700966E+02  0.48348030217E+02  0.14679503156E+03  0.12509314816E+03 0.  0.
         23    2    1    2    0    0 -0.16782303684E+02 -0.57282700966E+02 -0.70201366026E+02  0.12628280732E+03  0.86349071130E+02 0.  0.
          5    1    3    3  502    0  0.56676872119E+02 -0.64907901140E+01 -0.13994699770E+00  0.57200438588E+02  0.41800000000E+01 0.  1.
         -5    1    3    3    0  502 -0.39894568435E+02  0.63773491080E+02  0.48487977215E+02  0.89594592970E+02  0.41800000000E+01 0.  1.
        -11    1    4    4    0    0  0.17184667075E+02 -0.57655116470E+02 -0.15892388996E+02  0.62225342632E+02  0.00000000000E+00 0.  1.
         11    1    4    4    0    0 -0.33966970758E+02  0.37241550464E+00 -0.54308977031E+02  0.64057464685E+02  0.00000000000E+00 0. -1.
</event>
<event>
 8    1  0.6906553E-009  0.1127943E+03  0.7561462E-02  0.1255481E+00
         -1   -1    0    0    0  501 -0.00000000000E+00  0.00000000000E+00  0.19233023180E+02  0.19233023180E+02  0.00000000000E+00 0.  1.
          1   -1    0    0  501    0  0.00000000000E+00 -0.00000000000E+00 -0.68565278723E+03  0.68565278723E+03  0.00000000000E+00 0. -1.
         25    2    1    2    0    0  0.10448697080E+02 -0.34449925804E+02 -0.33863889652E+03  0.36279484515E+03  0.12509126577E+03 0.  0.
         23    2    1    2    0    0 -0.10448697080E+02  0.34449925804E+02 -0.32778086753E+03  0.34209096526E+03  0.91049210516E+02 0.  0.
          5    1    3    3  502    0 -0.47531824166E+02  0.17822125883E+02 -0.15672832928E+03  0.16479728177E+03  0.41800000000E+01 0.  1.
         -5    1    3    3    0  502  0.57980521246E+02 -0.52272051687E+02 -0.18191056724E+03  0.19799756339E+03  0.41800000000E+01 0.  1.
        -11    1    4    4    0    0  0.92181272290E+01  0.61970062465E+02 -0.23928165438E+03  0.24734787776E+03  0.00000000000E+00 0.  1.
         11    1    4    4    0    0 -0.19666824309E+02 -0.27520136661E+02 -0.88499213157E+02  0.94743087503E+02  0.00000000000E+00 0. -1.
</event>
<event>
 8    1  0.6906553E-009  0.1192214E+03  0.7561462E-02  0.1244387E+00
          4   -1    0    0  501    0  0.00000000000E+00  0.00000000000E+00  0.12059452263E+03  0.12059452263E+03  0.00000000000E+00 0. -1.
         -4   -1    0    0    0  501 -0.00000000000E+00 -0.00000000000E+00 -0.12021618181E+03  0.12021618181E+03  0.00000000000E+00 0.  1.
         25    2    1    2    0    0 -0.28213099354E+02 -0.46490637492E+02  0.42779154707E+01  0.13646852412E+03  0.12509196283E+03 0.  0.
         23    2    1    2    0    0  0.28213099354E+02  0.46490637492E+02 -0.38995746530E+01  0.10434218033E+03  0.88964743377E+02 0.  0.
          5    1    3    3  502    0 -0.67572427265E+02 -0.63959461953E+02  0.26478281669E+01  0.93173650212E+02  0.41800000000E+01 0. -1.
         -5    1    3    3    0  502  0.39359327911E+02  0.17468824462E+02  0.16300873038E+01  0.43294873903E+02  0.41800000000E+01 0. -1.
        -11    1    4    4    0    0  0.50765403628E+02  0.57704210676E+02  0.64193063560E+01  0.77123988677E+02  0.00000000000E+00 0. -1.
         11    1    4    4    0    0 -0.22552304274E+02 -0.11213573185E+02 -0.10318881009E+02  0.27218191654E+02  0.00000000000E+00 0.  1.
</event>
<event>
 8    1  0.6906553E-009  0.1978411E+03  0.7561462E-02  0.1151573E+00
          2   -1    0    0  501    0  0.00000000000E+00  0.00000000000E+00  0.10397793077E+04  0.10397793077E+04  0.00000000000E+00 0. -1.
         -2   -1    0    0    0  501 -0.00000000000E+00 -0.00000000000E+00 -0.45104501520E+02  0.45104501520E+02  0.00000000000E+00 0.  1.
         25    2    1    2    0    0 -0.13624169636E+03 -0.11523021291E+03  0.65133240188E+03  0.68681941195E+03  0.12508878886E+03 0.  0.
         23    2    1    2    0    0  0.13624169636E+03  0.11523021291E+03  0.34334240434E+03  0.39806439731E+03  0.93442260205E+02 0.  0.
          5    1    3    3  502    0 -0.85385561836E+02 -0.13550338640E+03  0.52899685335E+03  0.55272688115E+03  0.41800000000E+01 0.  1.
         -5    1    3    3    0  502 -0.50856134523E+02  0.20273173483E+02  0.12233554853E+03  0.13409253080E+03  0.41800000000E+01 0.  1.
        -11    1    4    4    0    0  0.10534990178E+03  0.10299592730E+03  0.18615426036E+03  0.23740297280E+03  0.00000000000E+00 0.  1.
         11    1    4    4    0    0  0.30891794576E+02  0.12234285616E+02  0.15718814398E+03  0.16066142450E+03  0.00000000000E+00 0. -1.
</event>
<event>
 8    1  0.6906553E-009  0.2114362E+03  0.7561462E-02  0.1140434E+00
          2   -1    0    0  501    0  0.00000000000E+00  0.00000000000E+00  0.11300512036E+04  0.11300512036E+04  0.00000000000E+00 0.  1.
         -2   -1    0    0    0  501 -0.00000000000E+00 -0.00000000000E+00 -0.40206237055E+02  0.40206237055E+02  0.00000000000E+00 0. -1.
         25    2    1    2    0    0  0.17311839694E+03 -0.57521881554E+02  0.60610876606E+03  0.64520882143E+03  0.12509132963E+03 0.  0.
         23    2    1    2    0    0 -0.17311839694E+03  0.57521881554E+02  0.48373620047E+03  0.52504861920E+03  0.91632934401E+02 0.  0.
          5    1    3    3  502    0  0.14712045661E+03 -0.93737967122E+02  0.44487266275E+03  0.47787068721E+03  0.41800000000E+01 0. -1.
         -5    1    3    3    0  502  0.25997940328E+02  0.36216085568E+02  0.16123610331E+03  0.16733813422E+03  0.41800000000E+01 0. -1.
        -11    1    4    4    0    0 -0.11564462865E+03  0.81340838045E+02  0.31774323543E+03  0.34777978051E+03  0.00000000000E+00 0. -1.
         11    1    4    4    0    0 -0.57473768287E+02 -0.23818956490E+02  0.16599296504E+03  0.17726883869E+03  0.00000000000E+00 0.  1.
</event>
<event>
 8    1  0.6906553E-009  0.1225182E+03  0.7561462E-02  0.1239000E+00
         -2   -1    0    0    0  501 -0.00000000000E+00  0.00000000000E+00  0.77457683895E+02  0.77457683895E+02  0.00000000000E+00 0.  1.
          2   -1    0    0  501    0  0.00000000000E+00 -0.00000000000E+00 -0.31325936955E+03  0.31325936955E+03  0.00000000000E+00 0. -1.
         25    2    1    2    0    0 -0.26946152433E+02 -0.96380575140E+02 -0.17978544021E+03  0.24080212806E+03  0.12509016736E+03 0.  0.
         23    2    1    2    0    0  0.26946152433E+02  0.96380575140E+02 -0.56016245442E+02  0.14991492538E+03  0.96547163106E+02 0.  0.
          5    1    3    3  502    0 -0.55183412350E+02 -0.28636370550E+02 -0.20880767708E+02  0.65717041754E+02  0.41800000000E+01 0. -1.
         -5    1    3    3    0  502  0.28237259918E+02 -0.67744204591E+02 -0.15890467250E+03  0.17508508631E+03  0.41800000000E+01 0. -1.
        -11    1    4    4    0    0  0.32910688004E+02  0.36942557403E+02 -0.72657979365E+02  0.87903628468E+02  0.00000000000E+00 0. -1.
         11    1    4    4    0    0 -0.59645355717E+01  0.59438017737E+02  0.16641733923E+02  0.62011296915E+02  0.00000000000E+00 0.  1.
</event>
<event>
 8    1  0.6906553E-009  0.1745186E+03  0.7561462E-02  0.1173216E+00
          1   -1    0    0  501    0  0.00000000000E+00  0.00000000000E+00  0.30598929670E+03  0.30598929670E+03  0.00000000000E+00 0. -1.
         -1   -1    0    0    0  501 -0.00000000000E+00 -0.00000000000E+00 -0.12235958089E+03  0.12235958089E+03  0.00000000000E+00 0.  1.
         25    2    1    2    0    0 -0.80268309353E+02  0.13078868405E+03  0.47733904604E+02  0.20365328011E+03  0.12508977371E+03 0.  0.
         23    2    1    2    0    0  0.80268309353E+02 -0.13078868405E+03  0.13589581121E+03  0.22469559748E+03  0.92042156980E+02 0.  0.
          5    1    3    3  502    0 -0.63573952310E+02  0.21797181005E+02 -0.24629326796E+02  0.71699655860E+02  0.41800000000E+01 0.  1.
         -5    1    3    3    0  502 -0.16694357043E+02  0.10899150304E+03  0.72363231400E+02  0.13195362425E+03  0.41800000000E+01 0.  1.
        -11    1    4    4    0    0  0.23581723486E+02 -0.10753101622E+03  0.54564621730E+02  0.12286706262E+03  0.00000000000E+00 0.  1.
         11    1    4    4    0    0  0.56686585867E+02 -0.23257667829E+02  0.81331189482E+02  0.10182853486E+03  0.00000000000E+00 0. -1.
</event>
<event>
 8    1  0.6906553E-009  0.2119082E+03  0.7561462E-02  0.1140064E+00
          2   -1    0    0  501    0  0.00000000000E+00  0.00000000000E+00  0.11834542679E+03  0.11834542679E+03  0.00000000000E+00 0. -1.
         -2   -1    0    0    0  501 -0.00000000000E+00 -0.00000000000E+00 -0.42242724069E+03  0.42242724069E+03  0.00000000000E+00 0.  1.
         25    2    1    2    0    0  0.78580974254E+02  0.17648108024E+03 -0.12687012738E+03  0.26280148249E+03  0.12509216114E+03 0.  0.
         23    2    1    2    0    0 -0.78580974254E+02 -0.17648108024E+03 -0.17721168652E+03  0.27797118499E+03  0.92430820862E+02 0.  0.
          5    1    3    3  502    0  0.86703548189E+02  0.45850016214E+02 -0.42150774709E+02  0.10683580610E+03  0.41800000000E+01 0.  1.
         -5    1    3    3    0  502 -0.81225739355E+01  0.13063106403E+03 -0.84719352667E+02  0.15596567639E+03  0.41800000000E+01 0.  1.
        -11    1    4    4    0    0 -0.29980298746E+02 -0.41220595737E+02 -0.15371967576E+01  0.50993321128E+02  0.00000000000E+00 0. -1.
         11    1    4    4    0    0 -0.48600675508E+02 -0.13526048451E+03 -0.17567448976E+03  0.22697786386E+03  0.00000000000E+00 0.  1.
</event>
<event>
 8    1  0.6906553E-009  0.9353546E+02  0.7561462E-02  0.1294509E+00
          1   -1    0    0  501    0  0.00000000000E+00  0.00000000000E+00  0.18185268811E+03  0.18185268811E+03  0.00000000000E+00 0. -1.
         -1   -1    0    0    0  501 -0.00000000000E+00 -0.00000000000E+00 -0.74255506115E+02  0.74255506115E+02  0.00000000000E+00 0.  1.
         25    2    1    2    0    0 -0.32934790691E+02 -0.46158259741E+00  0.89300928328E+02  0.15717884158E+03  0.12508244859E+03 0.  0.
         23    2    1    2    0    0  0.32934790691E+02  0.46158259741E+00  0.18296253667E+02  0.98929352643E+02  0.91473222419E+02 0.  0.
          5    1    3    3  502    0  0.28099035846E+02  0.25499438072E+02 -0.83332596165E+01  0.39072916109E+02  0.41800000000E+01 0.  1.
         -5    1    3    3    0  502 -0.61033826537E+02 -0.25961020670E+02  0.97634187944E+02  0.11810592547E+03  0.41800000000E+01 0.  1.
        -11    1    4    4    0    0 -0.24062143251E+02 -0.67432798342E+01  0.31273776883E+02  0.40031333744E+02  0.00000000000E+00 0. -1.
         11    1    4    4    0    0  0.56996933942E+02  0.72048624316E+01 -0.12977523216E+02  0.58898018900E+02  0.00000000000E+00 0.  1.
</event>
<event>
 8    1  0.6906553E-009  0.1462074E+03  0.7561462E-02  0.1205212E+00
         -1   -1    0    0    0  501 -0.00000000000E+00  0.00000000000E+00  0.95103530761E+02  0.95103530761E+02  0.00000000000E+00 0.  1.
          1   -1    0    0  501    0  0.00000000000E+00 -0.00000000000E+00 -0.41415907799E+03  0.41415907799E+03  0.00000000000E+00 0. -1.
         25    2    1    2    0    0  0.13658897617E+01 -0.14512672964E+03 -0.27223337463E+03  0.33289881523E+03  0.12508787952E+03 0.  0.
         23    2    1    2    0    0 -0.13658897617E+01  0.14512672964E+03 -0.46822172591E+02  0.17636379352E+03  0.88590284496E+02 0.  0.
          5    1    3    3  502    0  0.93917929007E+01 -0.12200366668E+03 -0.28104061954E+03  0.30655244688E+03  0.41800000000E+01 0. -1.
         -5    1    3    3    0  502 -0.80259031390E+01 -0.23123062960E+02  0.88072449092E+01  0.26346368341E+02  0.41800000000E+01 0. -1.
        -11    1    4    4    0    0  0.25574316966E+00  0.82435670503E+02 -0.71350383517E+02  0.10902560435E+03  0.00000000000E+00 0. -1.
         11    1    4    4    0    0 -0.16216329313E+01  0.62691059141E+02  0.24528210927E+02  0.67338189171E+02  0.00000000000E+00 0.  1.
</event>
<event>
 8    1  0.6906553E-009  0.9423275E+02  0.7561462E-02  0.1292914E+00
         -1   -1    0    0    0  501 -0.00000000000E+00  0.00000000000E+00  0.71246235361E+02  0.71246235361E+02  0.00000000000E+00 0.  1.
          1   -1    0    0  501    0  0.00000000000E+00 -0.00000000000E+00 -0.25204894552E+03  0.25204894552E+03  0.00000000000E+00 0. -1.
         25    2    1    2    0    0 -0.41025145172E+02  0.34044496924E+02 -0.16809264397E+03  0.21620545326E+03  0.12509025045E+03 0.  0.
         23    2    1    2    0    0  0.41025145172E+02 -0.34044496924E+02 -0.12710066195E+02  0.10708972762E+03  0.92003117733E+02 0.  0.
          5    1    3    3  502    0 -0.35135406726E+02 -0.14809568423E+02 -0.16196108529E+03  0.16644123789E+03  0.41800000000E+01 0. -1.
         -5    1    3    3    0  502 -0.58897384461E+01  0.48854065347E+02 -0.61315586829E+01  0.49764215374E+02  0.41800000000E+01 0. -1.
        -11    1    4    4    0    0 -0.22534774323E+01  0.26337042832E+02  0.11679794683E+02  0.28898712593E+02  0.00000000000E+00 0.  1.
         11    1    4    4    0    0  0.43278622604E+02 -0.60381539756E+02 -0.24389860878E+02  0.78191015030E+02  0.00000000000E+00 0. -1.
</event>
<event>
 8    1  0.6906553E-009  0.1071207E+03  0.7561462E-02  0.1265997E+00
          1   -1    0    0  501    0  0.00000000000E+00  0.00000000000E+00  0.27093436780E+03  0.27093436780E+03  0.00000000000E+00 0. -1.
         -1   -1    0    0    0  501 -0.00000000000E+00 -0.00000000000E+00 -0.10037495381E+03  0.10037495381E+03  0.00000000000E+00 0.  1.
         25    2    1    2    0    0 -0.35242158033E+02  0.56330263037E+02 -0.26476947262E+02  0.14409406121E+03  0.12508781517E+03 0.  0.
         23    2    1    2    0    0  0.35242158033E+02 -0.56330263037E+02  0.19703636125E+03  0.22721526040E+03  0.91587874021E+02 0.  0.
          5    1    3    3  502    0  0.16220685418E+02  0.68629517191E+02 -0.49477862111E+02  0.86247623181E+02  0.41800000000E+01 0. -1.
         -5    1    3    3    0  502 -0.51462843451E+02 -0.12299254154E+02  0.23000914849E+02  0.57846438029E+02  0.41800000000E+01 0. -1.
        -11    1    4    4    0    0 -0.11606582041E+02 -0.38800636581E+02  0.23961374206E+02  0.47056876221E+02  0.00000000000E+00 0.  1.
         11    1    4    4    0    0  0.46848740074E+02 -0.17529626455E+02  0.17307498704E+03  0.18015838418E+03  0.00000000000E+00 0. -1.
</event>
<event>
 8    1  0.6906553E-009  0.1406937E+03  0.7561462E-02  0.1212399E+00
         -2   -1    0    0    0  501 -0.00000000000E+00  0.00000000000E+00  0.51676937770E+02  0.51676937770E+02  0.00000000000E+00 0.  1.
          2   -1    0    0  501    0  0.00000000000E+00 -0.00000000000E+00 -0.40844434620E+03  0.40844434620E+03  0.00000000000E+00 0. -1.
         25    2    1    2    0    0 -0.77039086157E+02 -0.59531043527E+02 -0.17079699188E+03  0.23302023590E+03  0.12509137445E+03 0.  0.
         23    2    1    2    0    0  0.77039086157E+02  0.59531043527E+02 -0.18597041654E+03  0.22710104807E+03  0.86665588705E+02 0.  0.
          5    1    3    3  502    0 -0.10936733851E+03 -0.34073485361E+02 -0.10587266930E+03  0.15604073713E+03  0.41800000000E+01 0. -1.
         -5    1    3    3    0  502  0.32328252357E+02 -0.25457558166E+02 -0.64924322579E+02  0.76979498768E+02  0.41800000000E+01 0. -1.
        -11    1    4    4    0    0  0.33719761307E+02 -0.16768718321E+02 -0.87221616814E+02  0.95004329672E+02  0.00000000000E+00 0.  1.
         11    1    4    4    0    0  0.43319324851E+02  0.76299761847E+02 -0.98748799730E+02  0.13209671840E+03  0.00000000000E+00 0. -1.
</event>
<event>
 8    1  0.6906553E-009  0.9473366E+02  0.7561462E-02  0.1291777E+00
          1   -1    0    0  501    0  0.00000000000E+00  0.00000000000E+00  0.33281532460E+02  0.33281532460E+02  0.00000000000E+00 0.  1.
         -1   -1    0    0    0  501 -0.00000000000E+00 -0.00000000000E+00 -0.42316395512E+03  0.42316395512E+03  0.00000000000E+00 0. -1.
         25    2    1    2    0    0  0.32410980813E+02  0.45046428235E+01 -0.15092869388E+03  0.19874047322E+03  0.12509013380E+03 0.  0.
         23    2    1    2    0    0 -0.32410980813E+02 -0.45046428235E+01 -0.23895372878E+03  0.25770501436E+03  0.90786708527E+02 0.  0.
          5    1    3    3  502    0 -0.46205873865E+02 -0.21625207272E+01 -0.33746791737E+02  0.57410605536E+02  0.41800000000E+01 0.  1.
         -5    1    3    3    0  502  0.78616854677E+02  0.66671635507E+01 -0.11718190214E+03  0.14132986768E+03  0.41800000000E+01 0.  1.
        -11    1    4    4    0    0 -0.73929649420E+01  0.24568733532E+02 -0.13461559115E+02  0.28973991299E+02  0.00000000000E+00 0.  1.
         11    1    4    4    0    0 -0.25018015871E+02 -0.29073376356E+02 -0.22549216967E+03  0.22873102307E+03  0.00000000000E+00 0. -1.
</event>
<event>
 8    1  0.6906553E-009  0.9781445E+02  0.7561462E-02  0.1284960E+00
         -2   -1    0    0    0  501 -0.00000000000E+00  0.00000000000E+00  0.12307438926E+03  0.12307438926E+03  0.00000000000E+00 0.  1.
          2   -1    0    0  501    0  0.00000000000E+00 -0.00000000000E+00 -0.16144813494E+03  0.16144813494E+03  0.00000000000E+00 0. -1.
         25    2    1    2    0    0 -0.21608693377E+02  0.39817903662E+02 -0.99652923172E+02  0.16622155108E+03  0.12508596191E+03 0.  0.
         23    2    1    2    0    0  0.21608693377E+02 -0.39817903662E+02  0.61279177493E+02  0.11830097312E+03  0.90485256069E+02 0.  0.
          5    1    3    3  502    0 -0.54537563678E+02 -0.25053652511E+02 -0.45743892588E+02  0.75577823898E+02  0.41800000000E+01 0. -1.
         -5    1    3    3    0  502  0.32928870300E+02  0.64871556173E+02 -0.53909030584E+02  0.90643727185E+02  0.41800000000E+01 0. -1.
        -11    1    4    4    0    0 -0.13344998659E+02 -0.10874895773E+02  0.70003150594E+02  0.72088788590E+02  0.00000000000E+00 0.  1.
         11    1    4    4    0    0  0.34953692036E+02 -0.28943007889E+02 -0.87239731005E+01  0.46212184532E+02  0.00000000000E+00 0. -1.
</event>
<event>
 8    1  0.6906553E-009  0.1192367E+03  0.7561462E-02  0.1244362E+00
          1   -1    0    0  501    0  0.00000000000E+00  0.00000000000E+00  0.15118104566E+04  0.15118104566E+04  0.00000000000E+00 0. -1.
         -1   -1    0    0    0  501 -0.00000000000E+00 -0.00000000000E+00 -0.16086956020E+02  0.16086956020E+02  0.00000000000E+00 0.  1.
         25    2    1    2    0    0 -0.10557314565E+03  0.15202226268E+02  0.95536842959E+03  0.96941075183E+03  0.12510624577E+03 0.  0.
         23    2    1    2    0    0  0.10557314565E+03 -0.15202226268E+02  0.54035507103E+03  0.55848666083E+03  0.92449720259E+02 0.  0.
          5    1    3    3  502    0 -0.99812013332E+02  0.17126813676E+02  0.35999041546E+03  0.37398708183E+03  0.41800000000E+01 0. -1.
         -5    1    3    3    0  502 -0.57611323220E+01 -0.19245874085E+01  0.59537801413E+03  0.59542367000E+03  0.41800000000E+01 0. -1.
        -11    1    4    4    0    0  0.43084803679E+02 -0.43429239363E+02  0.14734248077E+03  0.15953747453E+03  0.00000000000E+00 0.  1.
         11    1    4    4    0    0  0.62488341976E+02  0.28227013095E+02  0.39301259026E+03  0.39894918631E+03  0.00000000000E+00 0. -1.
</event>
<event>
 8    1  0.6906553E-009  0.1271657E+03  0.7561462E-02  0.1231723E+00
          2   -1    0    0  501    0  0.00000000000E+00  0.00000000000E+00  0.81421156953E+03  0.81421156953E+03  0.00000000000E+00 0. -1.
         -2   -1    0    0    0  501 -0.00000000000E+00 -0.00000000000E+00 -0.45257832004E+02  0.45257832004E+02  0.00000000000E+00 0.  1.
         25    2    1    2    0    0 -0.17089549017E+02  0.70300994066E+02  0.70817142635E+03  0.72276463054E+03  0.12509060561E+03 0.  0.
         23    2    1    2    0    0  0.17089549017E+02 -0.70300994066E+02  0.60782311182E+02  0.13670477100E+03  0.98789790001E+02 0.  0.
          5    1    3    3  502    0  0.54396930734E+02  0.30367602173E+02  0.29461392054E+03  0.30115785215E+03  0.41800000000E+01 0.  1.
         -5    1    3    3    0  502 -0.71486479751E+02  0.39933391892E+02  0.41355750581E+03  0.42160677839E+03  0.41800000000E+01 0.  1.
        -11    1    4    4    0    0  0.48354366411E+02 -0.23870143046E+02  0.60070585625E+02  0.80724245040E+02  0.00000000000E+00 0. -1.
         11    1    4    4    0    0 -0.31264817394E+02 -0.46430851020E+02  0.71172555684E+00  0.55980525956E+02  0.00000000000E+00 0.  1.
</event>
<event>
 8    1  0.6906553E-009  0.9115120E+02  0.7561462E-02  0.1300088E+00
          2   -1    0    0  501    0  0.00000000000E+00  0.00000000000E+00  0.27246744579E+03  0.27246744579E+03  0.00000000000E+00 0.  1.
         -2   -1    0    0    0  501 -0.00000000000E+00 -0.00000000000E+00 -0.52696047645E+02  0.52696047645E+02  0.00000000000E+00 0. -1.
         25    2    1    2    0    0 -0.28712070119E+02  0.24757276669E+02  0.77756423639E+02  0.15208791215E+03  0.12508943156E+03 0.  0.
         23    2    1    2    0    0  0.28712070119E+02 -0.24757276669E+02  0.14201497451E+03  0.17307558128E+03  0.91376135468E+02 0.  0.
          5    1    3    3  502    0 -0.17625175666E+02  0.67341539569E+02  0.82046395493E+02  0.10767828556E+03  0.41800000000E+01 0.  1.
         -5    1    3    3    0  502 -0.11086894453E+02 -0.42584262900E+02 -0.42899718539E+01  0.44409626590E+02  0.41800000000E+01 0.  1.
        -11    1    4    4    0    0  0.36085547436E+02  0.61366130586E+01  0.13588391700E+03  0.14072762221E+03  0.00000000000E+00 0.  1.
         11    1    4    4    0    0 -0.73734773177E+01 -0.30893889728E+02  0.61310575143E+01  0.32347959078E+02  0.00000000000E+00 0. -1.
</event>
<event>
 8    1  0.6906553E-009  0.1139203E+03  0.7561462E-02  0.1253478E+00
         -1   -1    0    0    0  501 -0.00000000000E+00  0.00000000000E+00  0.47976446528E+03  0.47976446528E+03  0.00000000000E+00 0.  1.
          1   -1    0    0  501    0  0.00000000000E+00 -0.00000000000E+00 -0.27326141280E+02  0.27326141280E+02  0.00000000000E+00 0. -1.
         25    2    1    2    0    0 -0.24395494685E+02  0.74809986055E+01  0.25843810669E+03  0.28824917647E+03  0.12508488015E+03 0.  0.
         23    2    1    2    0    0  0.24395494685E+02 -0.74809986055E+01  0.19400021731E+03  0.21884143010E+03  0.98001947479E+02 0.  0.
          5    1    3    3  502    0 -0.28753709959E+02 -0.55882477444E+02  0.14678182927E+03  0.15972477868E+03  0.41800000000E+01 0.  1.
         -5    1    3    3    0  502  0.43582152740E+01  0.63363476050E+02  0.11165627743E+03  0.12852439779E+03  0.41800000000E+01 0.  1.
        -11    1    4    4    0    0 -0.30840831884E+01  0.43329795316E+02  0.79425091061E+02  0.90528049914E+02  0.00000000000E+00 0. -1.
         11    1    4    4    0    0  0.27479577874E+02 -0.50810793921E+02  0.11457512625E+03  0.12831338018E+03  0.00000000000E+00 0.  1.
</event>
<event>
 8    1  0.6906553E-009  0.1248050E+03  0.7561462E-02  0.1235374E+00
          3   -1    0    0  501    0  0.00000000000E+00  0.00000000000E+00  0.96094735391E+02  0.96094735391E+02  0.00000000000E+00 0. -1.
         -3   -1    0    0    0  501 -0.00000000000E+00 -0.00000000000E+00 -0.47693634338E+03  0.47693634338E+03  0.00000000000E+00 0.  1.
         25    2    1    2    0    0  0.80643298568E+02  0.80493798006E+02 -0.39153034990E+03  0.42652750372E+03  0.12508838242E+03 0.  0.
         23    2    1    2    0    0 -0.80643298568E+02 -0.80493798006E+02  0.10688741910E+02  0.14650357505E+03  0.91468328826E+02 0.  0.
          5    1    3    3  502    0  0.51061027061E+02  0.69146307382E+02 -0.38422511739E+03  0.39374465526E+03  0.41800000000E+01 0.  1.
         -5    1    3    3    0  502  0.29582271507E+02  0.11347490624E+02 -0.73052325009E+01  0.32782848456E+02  0.41800000000E+01 0.  1.
        -11    1    4    4    0    0 -0.29182744580E+02  0.70710855498E+01  0.30745133986E+02  0.42975529036E+02  0.00000000000E+00 0. -1.
         11    1    4    4    0    0 -0.51460553988E+02 -0.87564883556E+02 -0.20056392076E+02  0.10352804602E+03  0.00000000000E+00 0.  1.
</event>
<event>
 8    1  0.6906553E-009  0.8993339E+02  0.7561462E-02  0.1303013E+00
         -1   -1    0    0    0  501 -0.00000000000E+00  0.00000000000E+00  0.32715663231E+02  0.32715663231E+02  0.00000000000E+00 0.  1.
          1   -1    0    0  501    0  0.00000000000E+00 -0.00000000000E+00 -0.44319241051E+03  0.44319241051E+03  0.00000000000E+00 0. -1.
         25    2    1    2    0    0  0.76014422497E+01  0.28375113489E+02 -0.30984328288E+03  0.33543049518E+03  0.12509127931E+03 0.  0.
         23    2    1    2    0    0 -0.76014422497E+01 -0.28375113489E+02 -0.10063346439E+03  0.14047757856E+03  0.93508967123E+02 0.  0.
          5    1    3    3  502    0 -0.30530384848E+02  0.42855319480E+02 -0.27945137929E+03  0.28439273653E+03  0.41800000000E+01 0.  1.
         -5    1    3    3    0  502  0.38131827098E+02 -0.14480205992E+02 -0.30391903593E+02  0.51037758644E+02  0.41800000000E+01 0.  1.
        -11    1    4    4    0    0  0.26759172364E+02  0.15053445121E+02 -0.66843596277E+01  0.31421969691E+02  0.00000000000E+00 0.  1.
         11    1    4    4    0    0 -0.34360614614E+02 -0.43428558610E+02 -0.93949104766E+02  0.10905560887E+03  0.00000000000E+00 0. -1.
</event>
<event>
 8    1  0.6906553E-009  0.1443056E+03  0.7561462E-02  0.1207650E+00
          1   -1    0    0  501    0  0.00000000000E+00  0.00000000000E+00  0.43962025594E+02  0.43962025594E+02  0.00000000000E+00 0. -1.
         -1   -1    0    0    0  501 -0.00000000000E+00 -0.00000000000E+00 -0.59261034876E+03  0.59261034876E+03  0.00000000000E+00 0.  1.
         25    2    1    2    0    0  0.28871462356E+02  0.10410382888E+03 -0.38780635671E+03  0.42156020758E+03  0.12509224509E+03 0.  0.
         23    2    1    2    0    0 -0.28871462356E+02 -0.10410382888E+03 -0.16084196646E+03  0.21501216678E+03  0.93214404270E+02 0.  0.
          5    1    3    3  502    0  0.19115510549E+02  0.12410946356E+03 -0.22949422769E+03  0.26163645509E+03  0.41800000000E+01 0. -1.
         -5    1    3    3    0  502  0.97559518075E+01 -0.20005634681E+02 -0.15831212902E+03  0.15992375249E+03  0.41800000000E+01 0. -1.
        -11    1    4    4    0    0 -0.60890072459E+02 -0.57282450953E+02 -0.76167166602E+02  0.11309428535E+03  0.00000000000E+00 0. -1.
         11    1    4    4    0    0  0.32018610103E+02 -0.46821377927E+02 -0.84674799860E+02  0.10191788143E+03  0.00000000000E+00 0.  1.
</event>
<event>
 8    1  0.6906553E-009  0.6676843E+02  0.7561462E-02  0.1371440E+00
          2   -1    0    0  501    0  0.00000000000E+00  0.00000000000E+00  0.68146424271E+02  0.68146424271E+02  0.00000000000E+00 0.  1.
         -2   -1    0    0    0  501 -0.00000000000E+00 -0.00000000000E+00 -0.21864844080E+03  0.21864844080E+03  0.00000000000E+00 0. -1.
         25    2    1    2    0    0  0.11247887547E+02 -0.51654643537E+02 -0.91827319029E+02  0.16393664412E+03  0.12509296379E+03 0.  0.
         23    2    1    2    0    0 -0.11247887547E+02  0.51654643537E+02 -0.58674697504E+02  0.12285822096E+03  0.94110069369E+02 0.  0.
          5    1    3    3  502    0  0.31062540687E+02 -0.14152613679E+02 -0.11172675652E+03  0.11689960834E+03  0.41800000000E+01 0.  1.
         -5    1    3    3    0  502 -0.19814653140E+02 -0.37502029859E+02  0.19899437487E+02  0.47037035779E+02  0.41800000000E+01 0.  1.
        -11    1    4    4    0    0 -0.14985785349E+02  0.21888944815E+02 -0.81148504183E+02  0.85374348599E+02  0.00000000000E+00 0. -1.
         11    1    4    4    0    0  0.37378978018E+01  0.29765698722E+02  0.22473806679E+02  0.37483872359E+02  0.00000000000E+00 0.  1.
</event>
<event>
 8    1  0.6906553E-009  0.1007617E+03  0.7561462E-02  0.1278702E+00
          1   -1    0    0  501    0  0.00000000000E+00  0.00000000000E+00  0.48311347848E+03  0.48311347848E+03  0.00000000000E+00 0. -1.
         -1   -1    0    0    0  501 -0.00000000000E+00 -0.00000000000E+00 -0.36060762601E+02  0.36060762601E+02  0.00000000000E+00 0.  1.
         25    2    1    2    0    0 -0.14029912721E+02  0.18313285407E+02  0.38634253844E+03  0.40674332886E+03  0.12508942279E+03 0.  0.
         23    2    1    2    0    0  0.14029912721E+02 -0.18313285407E+02  0.60710177437E+02  0.11243091221E+03  0.91775647661E+02 0.  0.
          5    1    3    3  502    0 -0.12353726800E+01  0.62603553400E+02  0.31843110839E+03  0.32455596472E+03  0.41800000000E+01 0. -1.
         -5    1    3    3    0  502 -0.12794540041E+02 -0.44290267993E+02  0.67911430052E+02  0.82187364147E+02  0.41800000000E+01 0. -1.
        -11    1    4    4    0    0  0.39450681256E+02 -0.42077559475E+02  0.25958375855E+02  0.63251201885E+02  0.00000000000E+00 0.  1.
         11    1    4    4    0    0 -0.25420768535E+02  0.23764274068E+02  0.34751801582E+02  0.49179710329E+02  0.00000000000E+00 0. -1.
</event>
<event>
 8    1  0.6906553E-009  0.1665425E+03  0.7561462E-02  0.1181502E+00
         -1   -1    0    0    0  501 -0.00000000000E+00  0.00000000000E+00  0.31988643171E+02  0.31988643171E+02  0.00000000000E+00 0.  1.
          1   -1    0    0  501    0  0.00000000000E+00 -0.00000000000E+00 -0.16246026483E+04  0.16246026483E+04  0.00000000000E+00 0. -1.
         25    2    1    2    0    0 -0.16093712547E+03 -0.38648438776E+02 -0.12310253910E+04  0.12483849040E+04  0.12508754985E+03 0.  0.
         23    2    1    2    0    0  0.16093712547E+03  0.38648438776E+02 -0.36158861422E+03  0.40820638754E+03  0.92150250780E+02 0.  0.
          5    1    3    3  502    0 -0.15244693334E+03 -0.31587705648E+02 -0.12254865387E+04  0.12353431020E+04  0.41800000000E+01 0. -1.
         -5    1    3    3    0  502 -0.84901921319E+01 -0.70607331286E+01 -0.55388522065E+01  0.13041801966E+02  0.41800000000E+01 0. -1.
        -11    1    4    4    0    0  0.74964820348E+02  0.19443531653E+02 -0.72833974445E+02  0.10631351300E+03  0.00000000000E+00 0.  1.
         11    1    4    4    0    0  0.85972305125E+02  0.19204907123E+02 -0.28875463977E+03  0.30189287454E+03  0.00000000000E+00 0. -1.
</event>
<event>
 8    1  0.6906553E-009  0.1030435E+03  0.7561462E-02  0.1274023E+00
          2   -1    0    0  501    0  0.00000000000E+00  0.00000000000E+00  0.27100707685E+03  0.27100707685E+03  0.00000000000E+00 0. -1.
         -2   -1    0    0    0  501 -0.00000000000E+00 -0.00000000000E+00 -0.52017959962E+02  0.52017959962E+02  0.00000000000E+00 0.  1.
         25    2    1    2    0    0  0.33902191418E+02  0.11764221353E+01  0.77911730278E+02  0.15121761443E+03  0.12508311896E+03 0.  0.
         23    2    1    2    0    0 -0.33902191418E+02 -0.11764221353E+01  0.14107738661E+03  0.17180742238E+03  0.92001189230E+02 0.  0.
          5    1    3    3  502    0  0.55378748185E+02  0.49867488178E+02  0.33653538927E+02  0.81875547082E+02  0.41800000000E+01 0.  1.
         -5    1    3    3    0  502 -0.21476556767E+02 -0.48691066043E+02  0.44258191351E+02  0.69342067352E+02  0.41800000000E+01 0.  1.
        -11    1    4    4    0    0 -0.30599223545E+02 -0.33617198293E+02  0.12943077235E+03  0.13718146133E+03  0.00000000000E+00 0. -1.
         11    1    4    4    0    0 -0.33029678721E+01  0.32440776158E+02  0.11646614259E+02  0.34625961044E+02  0.00000000000E+00 0.  1.
</event>
<event>
 8    1  0.6906553E-009  0.4803437E+03  0.7561462E-02  0.1019041E+00
          1   -1    0    0  501    0  0.00000000000E+00  0.00000000000E+00  0.14000844225E+04  0.14000844225E+04  0.00000000000E+00 0. -1.
         -1   -1    0    0    0  501 -0.00000000000E+00 -0.00000000000E+00 -0.18230184804E+03  0.18230184804E+03  0.00000000000E+00 0.  1.
         25    2    1    2    0    0  0.44669564086E+03 -0.16029575855E+03  0.40362972685E+03  0.63544967657E+03  0.12509040443E+03 0.  0.
         23    2    1    2    0    0 -0.44669564086E+03  0.16029575855E+03  0.81415284762E+03  0.94693659398E+03  0.92802629072E+02 0.  0.
          5    1    3    3  502    0  0.35586626340E+02 -0.41266034327E+02  0.13452466556E+02  0.56282633376E+02  0.41800000000E+01 0.  1.
         -5    1    3    3    0  502  0.41110901452E+03 -0.11902972422E+03  0.39017726029E+03  0.57916704319E+03  0.41800000000E+01 0.  1.
        -11    1    4    4    0    0 -0.29833776770E+03  0.13525432137E+03  0.48788516437E+03  0.58764878005E+03  0.00000000000E+00 0.  1.
         11    1    4    4    0    0 -0.14835787317E+03  0.25041437175E+02  0.32626768325E+03  0.35928781393E+03  0.00000000000E+00 0. -1.
</event>
<event>
 8    1  0.6906553E-009  0.1529175E+03  0.7561462E-02  0.1196933E+00
         -2   -1    0    0    0  501 -0.00000000000E+00  0.00000000000E+00  0.57718357261E+02  0.57718357261E+02  0.00000000000E+00 0.  1.
          2   -1    0    0  501    0  0.00000000000E+00 -0.00000000000E+00 -0.77768281979E+03  0.77768281979E+03  0.00000000000E+00 0. -1.
         25    2    1    2    0    0  0.36546233070E+02  0.13989510511E+03 -0.58893543189E+03  0.61919164359E+03  0.12508829271E+03 0.  0.
         23    2    1    2    0    0 -0.36546233070E+02 -0.13989510511E+03 -0.13102903064E+03  0.21620953346E+03  0.93121898096E+02 0.  0.
          5    1    3    3  502    0  0.27606050550E+02  0.43162261589E+02 -0.42863122264E+03  0.43170275917E+03  0.41800000000E+01 0.  1.
         -5    1    3    3    0  502  0.89401825205E+01  0.96732843518E+02 -0.16030420925E+03  0.18748888442E+03  0.41800000000E+01 0.  1.
        -11    1    4    4    0    0 -0.39764686521E+02 -0.37211569886E+02 -0.66133392218E+01  0.54860436411E+02  0.00000000000E+00 0.  1.
         11    1    4    4    0    0  0.32184534509E+01 -0.10268353522E+03 -0.12441569142E+03  0.16134909705E+03  0.00000000000E+00 0. -1.
</event>
<event>
 8    1  0.6906553E-009  0.1053705E+03  0.7561462E-02  0.1269391E+00
          2   -1    0    0  501    0  0.00000000000E+00  0.00000000000E+00  0.36984504027E+03  0.36984504027E+03  0.00000000000E+00 0. -1.
         -2   -1    0    0    0  501 -0.00000000000E+00 -0.00000000000E+00 -0.52475561207E+02  0.52475561207E+02  0.00000000000E+00 0.  1.
         25    2    1    2    0    0 -0.69333095896E+02 -0.53012245627E+02  0.15105302947E+03  0.21466722527E+03  0.12509046134E+03 0.  0.
         23    2    1    2    0    0  0.69333095896E+02  0.53012245627E+02  0.16631644959E+03  0.20765337621E+03  0.88551605714E+02 0.  0.
          5    1    3    3  502    0 -0.60566486340E+02 -0.38178344469E+02  0.98910190075E+01  0.72396062814E+02  0.41800000000E+01 0.  1.
         -5    1    3    3    0  502 -0.87666095559E+01 -0.14833901158E+02  0.14116201047E+03  0.14227116245E+03  0.41800000000E+01 0.  1.
        -11    1    4    4    0    0  0.20816475031E+02 -0.23060521356E+02  0.24487037181E+02  0.39556646317E+02  0.00000000000E+00 0.  1.
         11    1    4    4    0    0  0.48516620865E+02  0.76072766983E+02  0.14182941241E+03  0.16809672990E+03  0.00000000000E+00 0. -1.
</event>
<event>
 8    1  0.6906553E-009  0.1653564E+03  0.7561462E-02  0.1182779E+00
         -2   -1    0    0    0  501 -0.00000000000E+00  0.00000000000E+00  0.37714808134E+03  0.37714808134E+03  0.00000000000E+00 0.  1.
          2   -1    0    0  501    0  0.00000000000E+00 -0.00000000000E+00 -0.18073354295E+03  0.18073354295E+03  0.00000000000E+00 0. -1.
         25    2    1    2    0    0  0.12327308932E+03 -0.75775739402E+02 -0.99798563654E+02  0.21574629934E+03  0.12509394526E+03 0.  0.
         23    2    1    2    0    0 -0.12327308932E+03  0.75775739402E+02  0.29621310204E+03  0.34213532495E+03  0.91521371974E+02 0.  0.
          5    1    3    3  502    0  0.10738293064E+03 -0.44463141799E+01 -0.23656904792E+02  0.11012713129E+03  0.41800000000E+01 0. -1.
         -5    1    3    3    0  502  0.15890158684E+02 -0.71329425222E+02 -0.76141658862E+02  0.10561916805E+03  0.41800000000E+01 0. -1.
        -11    1    4    4    0    0 -0.94353765682E+02  0.75815584247E+02  0.14831619387E+03  0.19143753362E+03  0.00000000000E+00 0. -1.
         11    1    4    4    0    0 -0.28919323638E+02 -0.39844845076E-01  0.14789690817E+03  0.15069779134E+03  0.00000000000E+00 0.  1.
</event>
<event>
 8    1  0.6906553E-009  0.9046248E+02  0.7561462E-02  0.1301736E+00
         -2   -1    0    0    0  501 -0.00000000000E+00  0.00000000000E+00  0.27394467415E+02  0.27394467415E+02  0.00000000000E+00 0.  1.
          2   -1    0    0  501    0  0.00000000000E+00 -0.00000000000E+00 -0.59005885213E+03  0.59005885213E+03  0.00000000000E+00 0. -1.
         25    2    1    2    0    0  0.44691479015E+02 -0.43930256006E+02 -0.27226312524E+03  0.30610713628E+03  0.12508866386E+03 0.  0.
         23    2    1    2    0    0 -0.44691479015E+02  0.43930256006E+02 -0.29040125947E+03  0.31134618327E+03  0.93146973330E+02 0.  0.
          5    1    3    3  502    0  0.34273982115E+02  0.73462866490E+01 -0.24390414746E+03  0.24644548956E+03  0.41800000000E+01 0. -1.
         -5    1    3    3    0  502  0.10417496901E+02 -0.51276542655E+02 -0.28358977785E+02  0.59661646720E+02  0.41800000000E+01 0. -1.
        -11    1    4    4    0    0  0.13577076703E+02  0.30429789685E+02 -0.32306217643E+02  0.46411214275E+02  0.00000000000E+00 0.  1.
         11    1    4    4    0    0 -0.58268555719E+02  0.13500466322E+02 -0.25809504183E+03  0.26493496899E+03  0.00000000000E+00 0. -1.
</event>
<event>
 8    1  0.6906553E-009  0.1068482E+03  0.7561462E-02  0.1266520E+00
          1   -1    0    0  501    0  0.00000000000E+00  0.00000000000E+00  0.78494466073E+02  0.78494466073E+02  0.00000000000E+00 0.  1.
         -1   -1    0    0    0  501 -0.00000000000E+00 -0.00000000000E+00 -0.16803414887E+03  0.16803414887E+03  0.00000000000E+00 0. -1.
         25    2    1    2    0    0  0.13681712736E+02 -0.77041086490E+01 -0.87070708123E+02  0.15321285957E+03  0.12508528919E+03 0.  0.
         23    2    1    2    0    0 -0.13681712736E+02  0.77041086490E+01 -0.24689746741E+01  0.93315755375E+02  0.91952116951E+02 0.  0.
          5    1    3    3  502    0  0.96714819538E+01 -0.66221524520E+02 -0.41979529924E+02  0.79111195198E+02  0.41800000000E+01 0.  1.
         -5    1    3    3    0  502  0.40102307819E+01  0.58517415871E+02 -0.45091178199E+02  0.74101664371E+02  0.41800000000E+01 0.  1.
        -11    1    4    4    0    0 -0.44688328129E+02  0.26133160184E+02  0.14052677975E+02  0.53642021685E+02  0.00000000000E+00 0.  1.
         11    1    4    4    0    0  0.31006615394E+02 -0.18429051535E+02 -0.16521652649E+02  0.39673733690E+02  0.00000000000E+00 0. -1.
</event>
<event>
 8    1  0.6906553E-009  0.1253204E+03  0.7561462E-02  0.1234569E+00
          2   -1    0    0  501    0  0.00000000000E+00  0.00000000000E+00  0.95253293965E+03  0.95253293965E+03  0.00000000000E+00 0. -1.
         -2   -1    0    0    0  501 -0.00000000000E+00 -0.00000000000E+00 -0.21411377678E+02  0.21411377678E+02  0.00000000000E+00 0.  1.
         25    2    1    2    0    0 -0.12557187594E+02 -0.64068925057E+02  0.28650010871E+03  0.31936206713E+03  0.12508919824E+03 0.  0.
         23    2    1    2    0    0  0.12557187594E+02  0.64068925057E+02  0.64462145326E+03  0.65458225019E+03  0.93158972412E+02 0.  0.
          5    1    3    3  502    0  0.36765076027E+02  0.17927093734E+02  0.53727957385E+02  0.67655135132E+02  0.41800000000E+01 0.  1.
         -5    1    3    3    0  502 -0.49322263620E+02 -0.81996018791E+02  0.23277215132E+03  0.25170693200E+03  0.41800000000E+01 0.  1.
        -11    1    4    4    0    0  0.31746788956E+02 -0.13014015273E+02  0.18999297152E+03  0.19306618665E+03  0.00000000000E+00 0.  1.
         11    1    4    4    0    0 -0.19189601363E+02  0.77082940330E+02  0.45462848174E+03  0.46151606354E+03  0.00000000000E+00 0. -1.
</event>
<event>
 8    1  0.6906553E-009  0.1378725E+03  0.7561462E-02  0.1216221E+00
          2   -1    0    0  501    0  0.00000000000E+00  0.00000000000E+00  0.86284610238E+03  0.86284610238E+03  0.00000000000E+00 0. -1.
         -2   -1    0    0    0  501 -0.00000000000E+00 -0.00000000000E+00 -0.32023297358E+02  0.32023297358E+02  0.00000000000E+00 0.  1.
         25    2    1    2    0    0 -0.93028983934E+02 -0.34908323014E+02  0.64378897523E+03  0.66331546682E+03  0.12510068356E+03 0.  0.
         23    2    1    2    0    0  0.93028983934E+02  0.34908323014E+02  0.18703382979E+03  0.23155393292E+03  0.93608693485E+02 0.  0.
          5    1    3    3  502    0 -0.72697307788E+02  0.24409892014E+02  0.50696107411E+03  0.51274530173E+03  0.41800000000E+01 0. -1.
         -5    1    3    3    0  502 -0.20331676146E+02 -0.59318215028E+02  0.13682790112E+03  0.15057016509E+03  0.41800000000E+01 0. -1.
        -11    1    4    4    0    0  0.67656711916E+02  0.66981371900E+02  0.12236187853E+03  0.15503665426E+03  0.00000000000E+00 0.  1.
         11    1    4    4    0    0  0.25372272018E+02 -0.32073048886E+02  0.64671951267E+02  0.76517278656E+02  0.00000000000E+00 0. -1.
</event>
<event>
 8    1  0.6906553E-009  0.1051480E+03  0.7561462E-02  0.1269828E+00
         -1   -1    0    0    0  501 -0.00000000000E+00  0.00000000000E+00  0.38741791917E+02  0.38741791917E+02  0.00000000000E+00 0.  1.
          1   -1    0    0  501    0  0.00000000000E+00 -0.00000000000E+00 -0.33553015229E+03  0.33553015229E+03  0.00000000000E+00 0. -1.
         25    2    1    2    0    0  0.33245011187E+02  0.13577000359E+02 -0.18444485867E+03  0.22574248264E+03  0.12510074688E+03 0.  0.
         23    2    1    2    0    0 -0.33245011187E+02 -0.13577000359E+02 -0.11234350170E+03  0.14852946157E+03  0.90279415545E+02 0.  0.
          5    1    3    3  502    0 -0.62674516738E+01  0.60933613009E+02 -0.55580831156E+02  0.82818399748E+02  0.41800000000E+01 0.  1.
         -5    1    3    3    0  502  0.39512462861E+02 -0.47356612651E+02 -0.12886402752E+03  0.14292408289E+03  0.41800000000E+01 0.  1.
        -11    1    4    4    0    0 -0.55564870729E+02  0.78795442403E+01 -0.10102201487E+03  0.11556379003E+03  0.00000000000E+00 0. -1.
         11    1    4    4    0    0  0.22319859542E+02 -0.21456544599E+02 -0.11321486831E+02  0.32965671541E+02  0.00000000000E+00 0.  1.
</event>
<event>
 8    1  0.6906553E-009  0.1227962E+03  0.7561462E-02  0.1238554E+00
         -2   -1    0    0    0  501 -0.00000000000E+00  0.00000000000E+00  0.73924732699E+02  0.73924732699E+02  0.00000000000E+00 0.  1.
          2   -1    0    0  501    0  0.00000000000E+00 -0.00000000000E+00 -0.31938564604E+03  0.31938564604E+03  0.00000000000E+00 0. -1.
         25    2    1    2    0    0 -0.46645599043E+02  0.68373876444E+02 -0.41493566818E+02  0.15563301779E+03  0.12509644778E+03 0.  0.
         23    2    1    2    0    0  0.46645599043E+02 -0.68373876444E+02 -0.20396734652E+03  0.23767736095E+03  0.89649598838E+02 0.  0.
          5    1    3    3  502    0 -0.70883626452E+02  0.85139204900E+02 -0.84881085951E+01  0.11118764813E+03  0.41800000000E+01 0. -1.
         -5    1    3    3    0  502  0.24238027409E+02 -0.16765328456E+02 -0.33005458223E+02  0.44445369651E+02  0.41800000000E+01 0. -1.
        -11    1    4    4    0    0  0.15172269336E+02  0.11548074973E+02 -0.10463085314E+03  0.10635399015E+03  0.00000000000E+00 0. -1.
         11    1    4    4    0    0  0.31473329707E+02 -0.79921951416E+02 -0.99336493384E+02  0.13132337080E+03  0.00000000000E+00 0.  1.
</event>
<event>
 8    1  0.6906553E-009  0.1011558E+03  0.7561462E-02  0.1277884E+00
          2   -1    0    0  501    0  0.00000000000E+00  0.00000000000E+00  0.76294447614E+03  0.76294447614E+03  0.00000000000E+00 0. -1.
         -2   -1    0    0    0  501 -0.00000000000E+00 -0.00000000000E+00 -0.16008179755E+02  0.16008179755E+02  0.00000000000E+00 0.  1.
         25    2    1    2    0    0  0.36879422578E+02  0.32350288332E+01  0.43621157535E+03  0.45530117231E+03  0.12509221328E+03 0.  0.
         23    2    1    2    0    0 -0.36879422578E+02 -0.32350288332E+01  0.31072472104E+03  0.32365148358E+03  0.82643047727E+02 0.  0.
          5    1    3    3  502    0  0.61950587937E+02  0.39782601403E+02  0.35606529174E+03  0.36362136227E+03  0.41800000000E+01 0.  1.
         -5    1    3    3    0  502 -0.25071165360E+02 -0.36547572570E+02  0.80146283607E+02  0.91679810041E+02  0.41800000000E+01 0.  1.
        -11    1    4    4    0    0 -0.22018991007E+02 -0.39298420301E+02  0.10489364975E+03  0.11415725803E+03  0.00000000000E+00 0.  1.
         11    1    4    4    0    0 -0.14860431571E+02  0.36063391468E+02  0.20583107129E+03  0.20949422555E+03  0.00000000000E+00 0. -1.
</event>
<event>
 8    1  0.6906553E-009  0.1032485E+03  0.7561462E-02  0.1273609E+00
          2   -1    0    0  501    0  0.00000000000E+00  0.00000000000E+00  0.67680072902E+03  0.67680072902E+03  0.00000000000E+00 0. -1.
         -2   -1    0    0    0  501 -0.00000000000E+00 -0.00000000000E+00 -0.27792970378E+02  0.27792970378E+02  0.00000000000E+00 0.  1.
         25    2    1    2    0    0  0.56894641418E+02  0.13259541012E+02  0.50022082106E+03  0.51892323869E+03  0.12509053591E+03 0.  0.
         23    2    1    2    0    0 -0.56894641418E+02 -0.13259541012E+02  0.14878693758E+03  0.18567046071E+03  0.94462434530E+02 0.  0.
          5    1    3    3  502    0  0.88801751269E+02  0.37569941482E+02  0.38238812312E+03  0.39437976702E+03  0.41800000000E+01 0. -1.
         -5    1    3    3    0  502 -0.31907109851E+02 -0.24310400471E+02  0.11783269795E+03  0.12454347167E+03  0.41800000000E+01 0. -1.
        -11    1    4    4    0    0 -0.20614515385E+02 -0.24171595294E+02 -0.37696296590E+00  0.31770526667E+02  0.00000000000E+00 0.  1.
         11    1    4    4    0    0 -0.36280126033E+02  0.10912054282E+02  0.14916390055E+03  0.15389993405E+03  0.00000000000E+00 0. -1.
</event>
<event>
 8    1  0.6906553E-009  0.1629168E+03  0.7561462E-02  0.1185443E+00
         -1   -1    0    0    0  501 -0.00000000000E+00  0.00000000000E+00  0.50837290947E+03  0.50837290947E+03  0.00000000000E+00 0.  1.
          1   -1    0    0  501    0  0.00000000000E+00 -0.00000000000E+00 -0.78592894087E+02  0.78592894087E+02  0.00000000000E+00 0. -1.
         25    2    1    2    0    0  0.16071823753E+03  0.81218477849E+01  0.28236521612E+03  0.34824401449E+03  0.12508981601E+03 0.  0.
         23    2    1    2    0    0 -0.16071823753E+03 -0.81218477849E+01  0.14741479926E+03  0.23872178906E+03  0.96750468964E+02 0.  0.
          5    1    3    3  502    0  0.39536895198E+02 -0.12109950623E+02  0.14239407405E+01  0.41585057331E+02  0.41800000000E+01 0. -1.
         -5    1    3    3    0  502  0.12118134233E+03  0.20231798408E+02  0.28094127538E+03  0.30665895716E+03  0.41800000000E+01 0. -1.
        -11    1    4    4    0    0 -0.99887785754E+02  0.60713164031E+00  0.14643538861E+03  0.17726043380E+03  0.00000000000E+00 0.  1.
         11    1    4    4    0    0 -0.60830451775E+02 -0.87289794252E+01  0.97941064146E+00  0.61461355258E+02  0.00000000000E+00 0. -1.
</event>
<event>
 8    1  0.6906553E-009  0.8972640E+02  0.7561462E-02  0.1303516E+00
         -1   -1    0    0    0  501 -0.00000000000E+00  0.00000000000E+00  0.18375224951E+03  0.18375224951E+03  0.00000000000E+00 0.  1.
          1   -1    0    0  501    0  0.00000000000E+00 -0.00000000000E+00 -0.10905276381E+03  0.10905276381E+03  0.00000000000E+00 0. -1.
         25    2    1    2    0    0 -0.63281754034E+02 -0.54419617444E+02  0.29640697498E+01  0.15040666557E+03  0.12508918492E+03 0.  0.
         23    2    1    2    0    0  0.63281754034E+02  0.54419617444E+02  0.71735415949E+02  0.14239834775E+03  0.90361741812E+02 0.  0.
          5    1    3    3  502    0 -0.63488997372E+01 -0.12617389908E+01 -0.53537674154E+02  0.54089328587E+02  0.41800000000E+01 0. -1.
         -5    1    3    3    0  502 -0.56932854297E+02 -0.53157878453E+02  0.56501743904E+02  0.96317336986E+02  0.41800000000E+01 0. -1.
        -11    1    4    4    0    0  0.67801426571E+02  0.40199969532E+02  0.10676485156E+02  0.79542808165E+02  0.00000000000E+00 0. -1.
         11    1    4    4    0    0 -0.45196725371E+01  0.14219647911E+02  0.61058930793E+02  0.62855539582E+02  0.00000000000E+00 0.  1.
</event>
<event>
 8    1  0.6906553E-009  0.1100536E+03  0.7561462E-02  0.1260471E+00
         -3   -1    0    0    0  501 -0.00000000000E+00  0.00000000000E+00  0.86261271844E+03  0.86261271844E+03  0.00000000000E+00 0.  1.
          3   -1    0    0  501    0  0.00000000000E+00 -0.00000000000E+00 -0.34311648301E+02  0.34311648301E+02  0.00000000000E+00 0. -1.
         25    2    1    2    0    0  0.38337946694E+01  0.98974448064E+02  0.67095681299E+03  0.68966918340E+03  0.12509955348E+03 0.  0.
         23    2    1    2    0    0 -0.38337946694E+01 -0.98974448064E+02  0.15734425715E+03  0.20725518335E+03  0.91579781685E+02 0.  0.
          5    1    3    3  502    0 -0.15627636985E+02  0.24754255361E+02  0.51461072864E+03  0.51545966926E+03  0.41800000000E+01 0.  1.
         -5    1    3    3    0  502  0.19461431655E+02  0.74220192703E+02  0.15634608434E+03  0.17420951414E+03  0.41800000000E+01 0.  1.
        -11    1    4    4    0    0 -0.15131272007E+02 -0.11031094133E+01  0.81558280892E+02  0.82957371131E+02  0.00000000000E+00 0.  1.
         11    1    4    4    0    0  0.11297477338E+02 -0.97871338651E+02  0.75785976261E+02  0.12429781221E+03  0.00000000000E+00 0. -1.
</event>
<event>
 8    1  0.6906553E-009  0.9144822E+02  0.7561462E-02  0.1299382E+00
          3   -1    0    0  501    0  0.00000000000E+00  0.00000000000E+00  0.20999019435E+02  0.20999019435E+02  0.00000000000E+00 0. -1.
         -3   -1    0    0    0  501 -0.00000000000E+00 -0.00000000000E+00 -0.96581268804E+03  0.96581268804E+03  0.00000000000E+00 0.  1.
         25    2    1    2    0    0 -0.18610178284E+02  0.87869528228E+01 -0.82918617219E+03  0.83882098809E+03  0.12508953851E+03 0.  0.
         23    2    1    2    0    0  0.18610178284E+02 -0.87869528228E+01 -0.11562749642E+03  0.14799071938E+03  0.90044354735E+02 0.  0.
          5    1    3    3  502    0 -0.39954055745E+02  0.37203682839E+02 -0.74916235006E+03  0.75116052861E+03  0.41800000000E+01 0.  1.
         -5    1    3    3    0  502  0.21343877462E+02 -0.28416730016E+02 -0.80023822126E+02  0.87660459487E+02  0.41800000000E+01 0.  1.
        -11    1    4    4    0    0 -0.17069758820E+02  0.33156276208E+02 -0.47630811935E+02  0.60493053847E+02  0.00000000000E+00 0. -1.
         11    1    4    4    0    0  0.35679937104E+02 -0.41943229031E+02 -0.67996684482E+02  0.87497665534E+02  0.00000000000E+00 0.  1.
</event>
<event>
 8    1  0.6906553E-009  0.1196235E+03  0.7561462E-02  0.1243719E+00
          2   -1    0    0  501    0  0.00000000000E+00  0.00000000000E+00  0.44195769246E+03  0.44195769246E+03  0.00000000000E+00 0.  1.
         -2   -1    0    0    0  501 -0.00000000000E+00 -0.00000000000E+00 -0.35633664942E+02  0.35633664942E+02  0.00000000000E+00 0. -1.
         25    2    1    2    0    0 -0.99223827882E+01  0.61292228742E+02  0.20697677431E+03  0.24968435366E+03  0.12509076855E+03 0.  0.
         23    2    1    2    0    0  0.99223827882E+01 -0.61292228742E+02  0.19934725321E+03  0.22790700374E+03  0.91362377423E+02 0.  0.
          5    1    3    3  502    0 -0.50189316209E+02 -0.11533413367E+02  0.49651336617E+02  0.71656923693E+02  0.41800000000E+01 0.  1.
         -5    1    3    3    0  502  0.40266933420E+02  0.72825642109E+02  0.15732543769E+03  0.17802742997E+03  0.41800000000E+01 0.  1.
        -11    1    4    4    0    0  0.15187720407E+02 -0.81742494367E+02  0.12133632815E+03  0.14708843179E+03  0.00000000000E+00 0. -1.
         11    1    4    4    0    0 -0.52653376186E+01  0.20450265625E+02  0.78010925057E+02  0.80818571953E+02  0.00000000000E+00 0.  1.
</event>
<event>
 8    1  0.6906553E-009  0.1222438E+03  0.7561462E-02  0.1239441E+00
         -1   -1    0    0    0  501 -0.00000000000E+00  0.00000000000E+00  0.18074839964E+02  0.18074839964E+02  0.00000000000E+00 0.  1.
          1   -1    0    0  501    0  0.00000000000E+00 -0.00000000000E+00 -0.10807118537E+04  0.10807118537E+04  0.00000000000E+00 0. -1.
         25    2    1    2    0    0 -0.64239332870E+02 -0.26421647101E+02 -0.79673073017E+03  0.80947697086E+03  0.12509322376E+03 0.  0.
         23    2    1    2    0    0  0.64239332870E+02  0.26421647101E+02 -0.26590628357E+03  0.28930972281E+03  0.90383453940E+02 0.  0.
          5    1    3    3  502    0 -0.49518715909E+02  0.44757179343E+02 -0.46989330685E+03  0.47462880291E+03  0.41800000000E+01 0. -1.
         -5    1    3    3    0  502 -0.14720616961E+02 -0.71178826444E+02 -0.32683742332E+03  0.33484816795E+03  0.41800000000E+01 0. -1.
        -11    1    4    4    0    0  0.50157608167E+02 -0.21709813162E+02 -0.80932871519E+02  0.97658749413E+02  0.00000000000E+00 0. -1.
         11    1    4    4    0    0  0.14081724703E+02  0.48131460263E+02 -0.18497341205E+03  0.19165097339E+03  0.00000000000E+00 0.  1.
</event>
<event>
 8    1  0.6906553E-009  0.2855017E+03  0.7561462E-02  0.1092721E+00
         -2   -1    0    0    0  501 -0.00000000000E+00  0.00000000000E+00  0.12760294142E+03  0.12760294142E+03  0.00000000000E+00 0. -1.
          2   -1    0    0  501    0  0.00000000000E+00 -0.00000000000E+00 -0.92187332910E+03  0.92187332910E+03  0.00000000000E+00 0.  1.
         25    2    1    2    0    0  0.66171150704E+02  0.26217375550E+03 -0.68040794915E+03  0.74277571784E+03  0.12508833078E+03 0.  0.
         23    2    1    2    0    0 -0.66171150704E+02 -0.26217375550E+03 -0.11386243853E+03  0.30670055267E+03  0.89369317128E+02 0.  0.
          5    1    3    3  502    0  0.20779588163E+02 -0.15709316342E+01 -0.16377715204E+02  0.26832090223E+02  0.41800000000E+01 0.  1.
         -5    1    3    3    0  502  0.45391562541E+02  0.26374468713E+03 -0.66403023394E+03  0.71594362762E+03  0.41800000000E+01 0.  1.
        -11    1    4    4    0    0 -0.31446620984E+01 -0.17227280057E+03 -0.89813182631E+02  0.19430443765E+03  0.00000000000E+00 0.  1.
         11    1    4    4    0    0 -0.63026488605E+02 -0.89900954927E+02 -0.24049255900E+02  0.11239611502E+03  0.00000000000E+00 0. -1.
</event>
<event>
 8    1  0.6906553E-009  0.2314273E+03  0.7561462E-02  0.1125639E+00
         -2   -1    0    0    0  501 -0.00000000000E+00  0.00000000000E+00  0.84297211145E+02  0.84297211145E+02  0.00000000000E+00 0.  1.
          2   -1    0    0  501    0  0.00000000000E+00 -0.00000000000E+00 -0.75441218451E+03  0.75441218451E+03  0.00000000000E+00 0. -1.
         25    2    1    2    0    0 -0.22757370035E+03  0.13347291770E+02 -0.36050988101E+03  0.44450280424E+03  0.12508968538E+03 0.  0.
         23    2    1    2    0    0  0.22757370035E+03 -0.13347291770E+02 -0.30960509236E+03  0.39420659141E+03  0.87037832062E+02 0.  0.
          5    1    3    3  502    0 -0.15508810977E+02 -0.87794216257E+01 -0.12681697792E+03  0.12813125985E+03  0.41800000000E+01 0. -1.
         -5    1    3    3    0  502 -0.21206488937E+03  0.22126713396E+02 -0.23369290309E+03  0.31637154440E+03  0.41800000000E+01 0. -1.
        -11    1    4    4    0    0  0.14303959351E+03 -0.27280314999E+02 -0.12995796352E+03  0.19517585194E+03  0.00000000000E+00 0.  1.
         11    1    4    4    0    0  0.84534106837E+02  0.13933023229E+02 -0.17964712883E+03  0.19903073947E+03  0.00000000000E+00 0. -1.
</event>
<event>
 8    1  0.6906553E-009  0.1378560E+03  0.7561462E-02  0.1216243E+00
         -2   -1    0    0    0  501 -0.00000000000E+00  0.00000000000E+00  0.15603641225E+02  0.15603641225E+02  0.00000000000E+00 0.  1.
          2   -1    0    0  501    0  0.00000000000E+00 -0.00000000000E+00 -0.13247427292E+04  0.13247427292E+04  0.00000000000E+00 0. -1.
         25    2    1    2    0    0 -0.88235133192E+02  0.74818070331E+01 -0.88279007390E+03  0.89599459009E+03  0.12508626909E+03 0.  0.
         23    2    1    2    0    0  0.88235133192E+02 -0.74818070331E+01 -0.42634901411E+03  0.44435178037E+03  0.88507664789E+02 0.  0.
          5    1    3    3  502    0 -0.10323494300E+03  0.44858349037E+02 -0.66528818983E+03  0.67475593577E+03  0.41800000000E+01 0.  1.
         -5    1    3    3    0  502  0.14999809808E+02 -0.37376542004E+02 -0.21750188407E+03  0.22123865431E+03  0.41800000000E+01 0.  1.
        -11    1    4    4    0    0 -0.12702359222E+02 -0.16974848055E+02 -0.11420105788E+03  0.11615238705E+03  0.00000000000E+00 0.  1.
         11    1    4    4    0    0  0.10093749241E+03  0.94930410219E+01 -0.31214795622E+03  0.32819939332E+03  0.00000000000E+00 0. -1.
</event>
<event>
 8    1  0.6906553E-009  0.1742565E+03  0.7561462E-02  0.1173480E+00
          1   -1    0    0  501    0  0.00000000000E+00  0.00000000000E+00  0.33498336408E+03  0.33498336408E+03  0.00000000000E+00 0. -1.
         -1   -1    0    0    0  501 -0.00000000000E+00 -0.00000000000E+00 -0.10107643812E+03  0.10107643812E+03  0.00000000000E+00 0.  1.
         25    2    1    2    0    0  0.43025919178E+02 -0.13873014471E+03  0.87131912885E+02  0.21056385348E+03  0.12509150002E+03 0.  0.
         23    2    1    2    0    0 -0.43025919178E+02  0.13873014471E+03  0.14677501307E+03  0.22549594873E+03  0.90599313796E+02 0.  0.
          5    1    3    3  502    0  0.52384053282E+02 -0.95359091075E+01 -0.17102185307E+01  0.53436128679E+02  0.41800000000E+01 0. -1.
         -5    1    3    3    0  502 -0.93581341043E+01 -0.12919423560E+03  0.88842131416E+02  0.15712772480E+03  0.41800000000E+01 0. -1.
        -11    1    4    4    0    0  0.17399030222E+02  0.77688969799E+02  0.41991778065E+02  0.90008953478E+02  0.00000000000E+00 0.  1.
         11    1    4    4    0    0 -0.60424949400E+02  0.61041174906E+02  0.10478323501E+03  0.13548699525E+03  0.00000000000E+00 0. -1.
</event>
<event>
 8    1  0.6906553E-009  0.8863020E+02  0.7561462E-02  0.1306203E+00
         -2   -1    0    0    0  501 -0.00000000000E+00  0.00000000000E+00  0.14021971337E+03  0.14021971337E+03  0.00000000000E+00 0. -1.
          2   -1    0    0  501    0  0.00000000000E+00 -0.00000000000E+00 -0.17136204773E+03  0.17136204773E+03  0.00000000000E+00 0.  1.
         25    2    1    2    0    0 -0.77106576329E+01 -0.50452832088E+02 -0.11382901976E+03  0.17666355290E+03  0.12509205681E+03 0.  0.
         23    2    1    2    0    0  0.77106576329E+01  0.50452832088E+02  0.82686685405E+02  0.13491820820E+03  0.93599639178E+02 0.  0.
          5    1    3    3  502    0  0.17202848748E+01  0.25436798921E+02 -0.94091028745E+02  0.97573481078E+02  0.41800000000E+01 0.  1.
         -5    1    3    3    0  502 -0.94309425077E+01 -0.75889631009E+02 -0.19737991019E+02  0.79090071822E+02  0.41800000000E+01 0.  1.
        -11    1    4    4    0    0 -0.23436215701E+02  0.27589895253E+02 -0.73522914025E+01  0.36939338318E+02  0.00000000000E+00 0.  1.
         11    1    4    4    0    0  0.31146873334E+02  0.22862936835E+02  0.90038976808E+02  0.97978869884E+02  0.00000000000E+00 0. -1.
</event>
<event>
 8    1  0.6906553E-009  0.2867798E+03  0.7561462E-02  0.1092043E+00
          2   -1    0    0  501    0  0.00000000000E+00  0.00000000000E+00  0.16276501929E+04  0.16276501929E+04  0.00000000000E+00 0. -1.
         -2   -1    0    0    0  501 -0.00000000000E+00 -0.00000000000E+00 -0.56715559935E+02  0.56715559935E+02  0.00000000000E+00 0.  1.
         25    2    1    2    0    0 -0.78708396519E+02  0.27239925344E+03  0.83072623383E+03  0.88665131076E+03  0.12509239126E+03 0.  0.
         23    2    1    2    0    0  0.78708396519E+02 -0.27239925344E+03  0.74020839917E+03  0.79771444211E+03  0.89685517163E+02 0.  0.
          5    1    3    3  502    0 -0.69013999517E+02  0.24582231116E+03  0.81488603632E+03  0.85396034180E+03  0.41800000000E+01 0. -1.
         -5    1    3    3    0  502 -0.96943970023E+01  0.26576942280E+02  0.15840197512E+02  0.32690968958E+02  0.41800000000E+01 0. -1.
        -11    1    4    4    0    0 -0.43586061553E+00 -0.98931945892E+02  0.17267553648E+03  0.19900894651E+03  0.00000000000E+00 0.  1.
         11    1    4    4    0    0  0.79144257135E+02 -0.17346730754E+03  0.56753286270E+03  0.59870549560E+03  0.00000000000E+00 0. -1.
</event>
<event>
 8    1  0.6906553E-009  0.1624198E+03  0.7561462E-02  0.1185992E+00
          1   -1    0    0  501    0  0.00000000000E+00  0.00000000000E+00  0.84902013736E+03  0.84902013736E+03  0.00000000000E+00 0. -1.
         -1   -1    0    0    0  501 -0.00000000000E+00 -0.00000000000E+00 -0.45057448004E+02  0.45057448004E+02  0.00000000000E+00 0.  1.
         25    2    1    2    0    0 -0.15980994491E+03  0.15933065087E+02  0.47145318768E+03  0.51352552132E+03  0.12508905556E+03 0.  0.
         23    2    1    2    0    0  0.15980994491E+03 -0.15933065087E+02  0.33250950168E+03  0.38055206405E+03  0.92001215668E+02 0.  0.
          5    1    3    3  502    0 -0.96253464501E+02 -0.48824318732E+01  0.41451721793E+03  0.42559436548E+03  0.41800000000E+01 0.  1.
         -5    1    3    3    0  502 -0.63556480414E+02  0.20815496960E+02  0.56935969746E+02  0.87931155839E+02  0.41800000000E+01 0.  1.
        -11    1    4    4    0    0  0.12845415015E+03 -0.19023755742E+02  0.16431611465E+03  0.20943294274E+03  0.00000000000E+00 0.  1.
         11    1    4    4    0    0  0.31355794769E+02  0.30906906559E+01  0.16819338704E+03  0.17111912131E+03  0.00000000000E+00 0. -1.
</event>
<event>
 8    1  0.6906553E-009  0.1116616E+03  0.7561462E-02  0.1257523E+00
          1   -1    0    0  501    0  0.00000000000E+00  0.00000000000E+00  0.24753449799E+03  0.24753449799E+03  0.00000000000E+00 0. -1.
         -1   -1    0    0    0  501 -0.00000000000E+00 -0.00000000000E+00 -0.83259238499E+02  0.83259238499E+02  0.00000000000E+00 0.  1.
         25    2    1    2    0    0 -0.91703553857E+02  0.86310498055E+00  0.65758339455E+02  0.16847293667E+03  0.12509470189E+03 0.  0.
         23    2    1    2    0    0  0.91703553857E+02 -0.86310498055E+00  0.98516920040E+02  0.16232079983E+03  0.90731316435E+02 0.  0.
          5    1    3    3  502    0 -0.73431365012E+02  0.14019633087E+02  0.10143648003E+03  0.12607754503E+03  0.41800000000E+01 0.  1.
         -5    1    3    3    0  502 -0.18272188845E+02 -0.13156528106E+02 -0.35678140577E+02  0.42395391636E+02  0.41800000000E+01 0.  1.
        -11    1    4    4    0    0  0.74293420098E+02  0.37645434487E+02  0.82198647144E+02  0.11701841137E+03  0.00000000000E+00 0.  1.
         11    1    4    4    0    0  0.17410133759E+02 -0.38508539468E+02  0.16318272896E+02  0.45302388456E+02  0.00000000000E+00 0. -1.
</event>
<event>
 8    1  0.6906553E-009  0.1038750E+03  0.7561462E-02  0.1272352E+00
         -2   -1    0    0    0  501 -0.00000000000E+00  0.00000000000E+00  0.11947518626E+02  0.11947518626E+02  0.00000000000E+00 0.  1.
          2   -1    0    0  501    0  0.00000000000E+00 -0.00000000000E+00 -0.16006596614E+04  0.16006596614E+04  0.00000000000E+00 0. -1.
         25    2    1    2    0    0 -0.69250578220E+02  0.28083144076E+02 -0.11006343324E+04  0.11102375736E+04  0.12508889093E+03 0.  0.
         23    2    1    2    0    0  0.69250578220E+02 -0.28083144076E+02 -0.48807781033E+03  0.50236960637E+03  0.92579516661E+02 0.  0.
          5    1    3    3  502    0 -0.79422587672E+02  0.30691793374E+02 -0.37713610243E+03  0.38665106462E+03  0.41800000000E+01 0.  1.
         -5    1    3    3    0  502  0.10172009452E+02 -0.26086492986E+01 -0.72349822999E+03  0.72358650901E+03  0.41800000000E+01 0.  1.
        -11    1    4    4    0    0  0.15457893449E+01 -0.42041330644E+02 -0.10517856953E+03  0.11328015905E+03  0.00000000000E+00 0.  1.
         11    1    4    4    0    0  0.67704788875E+02  0.13958186568E+02 -0.38289924080E+03  0.38908944732E+03  0.00000000000E+00 0. -1.
</event>
<event>
 8    1  0.6906553E-009  0.8607966E+02  0.7561462E-02  0.1312633E+00
         -1   -1    0    0    0  501 -0.00000000000E+00  0.00000000000E+00  0.21800842612E+03  0.21800842612E+03  0.00000000000E+00 0.  1.
          1   -1    0    0  501    0  0.00000000000E+00 -0.00000000000E+00 -0.56813424024E+02  0.56813424024E+02  0.00000000000E+00 0. -1.
         25    2    1    2    0    0 -0.27585423990E+02 -0.16507242122E+01  0.10674550553E+03  0.16674888693E+03  0.12508760065E+03 0.  0.
         23    2    1    2    0    0  0.27585423990E+02  0.16507242122E+01  0.54449496575E+02  0.10807296322E+03  0.89170270797E+02 0.  0.
          5    1    3    3  502    0 -0.71775990547E+01 -0.61962827028E+02  0.66685943230E+02  0.91407862276E+02  0.41800000000E+01 0.  1.
         -5    1    3    3    0  502 -0.20407824936E+02  0.60312102816E+02  0.40059562295E+02  0.75341024654E+02  0.41800000000E+01 0.  1.
        -11    1    4    4    0    0  0.30348609575E+02  0.13825604421E+02  0.76096715355E+02  0.83083665835E+02  0.00000000000E+00 0.  1.
         11    1    4    4    0    0 -0.27631855846E+01 -0.12174880209E+02 -0.21647218781E+02  0.24989297381E+02  0.00000000000E+00 0. -1.
</event>
<event>
 8    1  0.6906553E-009  0.1065157E+03  0.7561462E-02  0.1267162E+00
          1   -1    0    0  501    0  0.00000000000E+00  0.00000000000E+00  0.20146714160E+02  0.20146714160E+02  0.00000000000E+00 0. -1.
         -1   -1    0    0    0  501 -0.00000000000E+00 -0.00000000000E+00 -0.63999009874E+03  0.63999009874E+03  0.00000000000E+00 0.  1.
         25    2    1    2    0    0  0.25313338360E+02 -0.39899719559E+01 -0.37842260608E+03  0.39938394703E+03  0.12508870204E+03 0.  0.
         23    2    1    2    0    0 -0.25313338360E+02  0.39899719559E+01 -0.24142077850E+03  0.26075286587E+03  0.95138739703E+02 0.  0.
          5    1    3    3  502    0 -0.42394126323E+02 -0.30981222130E+02 -0.19433765321E+03  0.20134968073E+03  0.41800000000E+01 0.  1.
         -5    1    3    3    0  502  0.67707464683E+02  0.26991250174E+02 -0.18408495286E+03  0.19803426630E+03  0.41800000000E+01 0.  1.
        -11    1    4    4    0    0  0.29806091324E+02  0.11029352705E+02 -0.15341648008E+03  0.15667375677E+03  0.00000000000E+00 0.  1.
         11    1    4    4    0    0 -0.55119429685E+02 -0.70393807489E+01 -0.88004298427E+02  0.10407910910E+03  0.00000000000E+00 0. -1.
</event>
<event>
 8    1  0.6906553E-009  0.8762524E+02  0.7561462E-02  0.1308707E+00
         -1   -1    0    0    0  501 -0.00000000000E+00  0.00000000000E+00  0.19353799439E+03  0.19353799439E+03  0.00000000000E+00 0.  1.
          1   -1    0    0  501    0  0.00000000000E+00 -0.00000000000E+00 -0.87843232122E+02  0.87843232122E+02  0.00000000000E+00 0. -1.
         25    2    1    2    0    0 -0.33879300552E+00  0.16043829350E+02 -0.19097354222E+02  0.12757205185E+03  0.12510955293E+03 0.  0.
         23    2    1    2    0    0  0.33879300552E+00 -0.16043829350E+02  0.12479211649E+03  0.15380917466E+03  0.88468472530E+02 0.  0.
          5    1    3    3  502    0  0.49444186585E+01 -0.34123423044E+02 -0.55326570655E+02  0.65325011263E+02  0.41800000000E+01 0. -1.
         -5    1    3    3    0  502 -0.52832116640E+01  0.50167252394E+02  0.36229216433E+02  0.62247040585E+02  0.41800000000E+01 0. -1.
        -11    1    4    4    0    0 -0.43659000235E+02 -0.14025765763E+02  0.62427067068E+02  0.77459467526E+02  0.00000000000E+00 0.  1.
         11    1    4    4    0    0  0.43997793240E+02 -0.20180635868E+01  0.62365049422E+02  0.76349707138E+02  0.00000000000E+00 0. -1.
</event>
<event>
 8    1  0.6906553E-009  0.1225295E+03  0.7561462E-02  0.1238982E+00
         -2   -1    0    0    0  501 -0.00000000000E+00  0.00000000000E+00  0.73017878324E+02  0.73017878324E+02  0.00000000000E+00 0.  1.
          2   -1    0    0  501    0  0.00000000000E+00 -0.00000000000E+00 -0.30848666450E+03  0.30848666450E+03  0.00000000000E+00 0. -1.
         25    2    1    2    0    0 -0.75738879702E+02 -0.66293300532E+02 -0.10817934099E+03  0.19360367114E+03  0.12509369316E+03 0.  0.
         23    2    1    2    0    0  0.75738879702E+02  0.66293300532E+02 -0.12728944518E+03  0.18790087168E+03  0.94725683576E+02 0.  0.
          5    1    3    3  502    0 -0.37213140141E+02  0.24882118298E+02  0.25407180466E+01  0.45031824950E+02  0.41800000000E+01 0.  1.
         -5    1    3    3    0  502 -0.38525739561E+02 -0.91175418830E+02 -0.11072005904E+03  0.14857184619E+03  0.41800000000E+01 0.  1.
        -11    1    4    4    0    0  0.69825910980E+02  0.57606515470E+02 -0.14285492201E+03  0.16912036309E+03  0.00000000000E+00 0. -1.
         11    1    4    4    0    0  0.59129687217E+01  0.86867850626E+01  0.15565476832E+02  0.18780508588E+02  0.00000000000E+00 0.  1.
</event>
<event>
 8    1  0.6906553E-009  0.1002185E+03  0.7561462E-02  0.1279837E+00
          1   -1    0    0  501    0  0.00000000000E+00  0.00000000000E+00  0.47276024397E+03  0.47276024397E+03  0.00000000000E+00 0. -1.
         -1   -1    0    0    0  501 -0.00000000000E+00 -0.00000000000E+00 -0.30799346712E+02  0.30799346712E+02  0.00000000000E+00 0.  1.
         25    2    1    2    0    0  0.24172639005E+02  0.45797054630E+02  0.22024379457E+03  0.25852984279E+03  0.12509461970E+03 0.  0.
         23    2    1    2    0    0 -0.24172639005E+02 -0.45797054630E+02  0.22171710269E+03  0.24502974790E+03  0.90550632454E+02 0.  0.
          5    1    3    3  502    0  0.64309330277E+02  0.21005035301E+02  0.19146910572E+03  0.20311275764E+03  0.41800000000E+01 0.  1.
         -5    1    3    3    0  502 -0.40136691272E+02  0.24792019329E+02  0.28774688843E+02  0.55417085151E+02  0.41800000000E+01 0.  1.
        -11    1    4    4    0    0  0.23714890427E+01  0.16975345511E+02  0.50088678268E+01  0.17857073456E+02  0.00000000000E+00 0.  1.
         11    1    4    4    0    0 -0.26544128048E+02 -0.62772400141E+02  0.21670823487E+03  0.22717267444E+03  0.00000000000E+00 0. -1.
</event>
<event>
 8    1  0.6906553E-009  0.9109390E+02  0.7561462E-02  0.1300224E+00
         -4   -1    0    0    0  501 -0.00000000000E+00  0.00000000000E+00  0.71459852599E+02  0.71459852599E+02  0.00000000000E+00 0.  1.
          4   -1    0    0  501    0  0.00000000000E+00 -0.00000000000E+00 -0.18794736178E+03  0.18794736178E+03  0.00000000000E+00 0. -1.
         25    2    1    2    0    0 -0.37237650290E+02 -0.98863397942E+01 -0.47862492149E+02  0.13936725221E+03  0.12509208816E+03 0.  0.
         23    2    1    2    0    0  0.37237650290E+02  0.98863397942E+01 -0.68625017034E+02  0.12003996217E+03  0.90641145407E+02 0.  0.
          5    1    3    3  502    0 -0.24253473070E+02  0.34634328212E+02 -0.74469835246E+02  0.85737951971E+02  0.41800000000E+01 0. -1.
         -5    1    3    3    0  502 -0.12984177219E+02 -0.44520668006E+02  0.26607343097E+02  0.53629300242E+02  0.41800000000E+01 0. -1.
        -11    1    4    4    0    0 -0.25547913935E+02 -0.97599180101E+01 -0.36783007557E+01  0.27594959729E+02  0.00000000000E+00 0.  1.
         11    1    4    4    0    0  0.62785564224E+02  0.19646257804E+02 -0.64946716278E+02  0.92445002439E+02  0.00000000000E+00 0. -1.
</event>
<event>
 8    1  0.6906553E-009  0.1339521E+03  0.7561462E-02  0.1221707E+00
          1   -1    0    0  501    0  0.00000000000E+00  0.00000000000E+00  0.52970237556E+03  0.52970237556E+03  0.00000000000E+00 0. -1.
         -1   -1    0    0    0  501 -0.00000000000E+00 -0.00000000000E+00 -0.45960224123E+02  0.45960224123E+02  0.00000000000E+00 0.  1.
         25    2    1    2    0    0  0.11188077656E+03  0.63800270292E+01  0.26867605907E+03  0.31684812373E+03  0.12509155002E+03 0.  0.
         23    2    1    2    0    0 -0.11188077656E+03 -0.63800270292E+01  0.21506609237E+03  0.25881447595E+03  0.90407388905E+02 0.  0.
          5    1    3    3  502    0  0.30571649689E+02 -0.35207562298E+02  0.19170290087E+03  0.19733644572E+03  0.41800000000E+01 0.  1.
         -5    1    3    3    0  502  0.81309126867E+02  0.41587589327E+02  0.76973158202E+02  0.11951167801E+03  0.41800000000E+01 0.  1.
        -11    1    4    4    0    0 -0.83544524833E+02  0.25175001751E+02  0.19115467489E+03  0.21012752813E+03  0.00000000000E+00 0. -1.
         11    1    4    4    0    0 -0.28336251723E+02 -0.31555028780E+02  0.23911417474E+02  0.48686947826E+02  0.00000000000E+00 0.  1.
</event>
<event>
 8    1  0.6906553E-009  0.1752607E+03  0.7561462E-02  0.1172470E+00
          1   -1    0    0  501    0  0.00000000000E+00  0.00000000000E+00  0.10535569073E+04  0.10535569073E+04  0.00000000000E+00 0.  1.
         -1   -1    0    0    0  501 -0.00000000000E+00 -0.00000000000E+00 -0.42686334252E+02  0.42686334252E+02  0.00000000000E+00 0. -1.
         25    2    1    2    0    0 -0.11886677342E+03 -0.77224336520E+02  0.82008452162E+03  0.84159303096E+03  0.12508916496E+03 0.  0.
         23    2    1    2    0    0  0.11886677342E+03  0.77224336520E+02  0.19078605141E+03  0.25465021058E+03  0.91402977835E+02 0.  0.
          5    1    3    3  502    0 -0.11228775808E+03 -0.57624736277E+01  0.40538686572E+03  0.42071098157E+03  0.41800000000E+01 0.  1.
         -5    1    3    3    0  502 -0.65790153443E+01 -0.71461862893E+02  0.41469765590E+03  0.42088204939E+03  0.41800000000E+01 0.  1.
        -11    1    4    4    0    0  0.29582339046E+02 -0.18762219061E+02  0.59979028247E+02  0.69459480829E+02  0.00000000000E+00 0.  1.
         11    1    4    4    0    0  0.89284434376E+02  0.95986555582E+02  0.13080702317E+03  0.18519072975E+03  0.00000000000E+00 0. -1.
</event>
<event>
 8    1  0.6906553E-009  0.1419674E+03  0.7561462E-02  0.1210706E+00
          2   -1    0    0  501    0  0.00000000000E+00  0.00000000000E+00  0.11197550663E+04  0.11197550663E+04  0.00000000000E+00 0. -1.
         -2   -1    0    0    0  501 -0.00000000000E+00 -0.00000000000E+00 -0.20763411878E+02  0.20763411878E+02  0.00000000000E+00 0.  1.
         25    2    1    2    0    0 -0.22619703729E+01 -0.98493700726E+02  0.43776411336E+03  0.46582303572E+03  0.12509019172E+03 0.  0.
         23    2    1    2    0    0  0.22619703729E+01  0.98493700726E+02  0.66122754110E+03  0.67469544250E+03  0.91027212584E+02 0.  0.
          5    1    3    3  502    0  0.54757807834E+02 -0.25578540789E+02  0.23843126609E+03  0.24600735826E+03  0.41800000000E+01 0. -1.
         -5    1    3    3    0  502 -0.57019778207E+02 -0.72915159937E+02  0.19933284728E+03  0.21981567746E+03  0.41800000000E+01 0. -1.
        -11    1    4    4    0    0 -0.39821565195E+02  0.28299557375E+02  0.17782084497E+03  0.18440953041E+03  0.00000000000E+00 0.  1.
         11    1    4    4    0    0  0.42083535568E+02  0.70194143351E+02  0.48340669614E+03  0.49028591209E+03  0.00000000000E+00 0. -1.
</event>
<event>
 8    1  0.6906553E-009  0.1274716E+03  0.7561462E-02  0.1231256E+00
          2   -1    0    0  501    0  0.00000000000E+00  0.00000000000E+00  0.12960152130E+03  0.12960152130E+03  0.00000000000E+00 0. -1.
         -2   -1    0    0    0  501 -0.00000000000E+00 -0.00000000000E+00 -0.21522686853E+03  0.21522686853E+03  0.00000000000E+00 0.  1.
         25    2    1    2    0    0  0.11470341148E+03  0.48925404086E+02 -0.19872478926E+02  0.17774256994E+03  0.12508772114E+03 0.  0.
         23    2    1    2    0    0 -0.11470341148E+03 -0.48925404086E+02 -0.65752868298E+02  0.16708581989E+03  0.89686474722E+02 0.  0.
          5    1    3    3  502    0  0.57196447092E+02  0.29233379195E+02 -0.72699405021E+02  0.97101492828E+02  0.41800000000E+01 0.  1.
         -5    1    3    3    0  502  0.57506964390E+02  0.19692024890E+02  0.52826926095E+02  0.80641077115E+02  0.41800000000E+01 0.  1.
        -11    1    4    4    0    0 -0.52338647522E+02 -0.34343090609E+01 -0.72627200849E+02  0.89587045974E+02  0.00000000000E+00 0.  1.
         11    1    4    4    0    0 -0.62364763960E+02 -0.45491095025E+02  0.68743325508E+01  0.77498773915E+02  0.00000000000E+00 0. -1.
</event>
<event>
 8    1  0.6906553E-009  0.1534090E+03  0.7561462E-02  0.1196346E+00
          2   -1    0    0  501    0  0.00000000000E+00  0.00000000000E+00  0.24637804648E+03  0.24637804648E+03  0.00000000000E+00 0.  1.
         -2   -1    0    0    0  501 -0.00000000000E+00 -0.00000000000E+00 -0.14598979797E+03  0.14598979797E+03  0.00000000000E+00 0. -1.
         25    2    1    2    0    0  0.94847570976E+02 -0.81996380732E+02  0.14695917707E+03  0.23013985881E+03  0.12509151336E+03 0.  0.
         23    2    1    2    0    0 -0.94847570976E+02  0.81996380732E+02 -0.46570928563E+02  0.16222798564E+03  0.91812851843E+02 0.  0.
          5    1    3    3  502    0 -0.26838395166E+02 -0.26076909985E+02  0.58560338240E+02  0.69621047853E+02  0.41800000000E+01 0.  1.
         -5    1    3    3    0  502  0.12168596614E+03 -0.55919470747E+02  0.88398838832E+02  0.16051881096E+03  0.41800000000E+01 0.  1.
        -11    1    4    4    0    0 -0.11756173525E+02  0.40754587006E+02  0.21128926589E+02  0.47387503804E+02  0.00000000000E+00 0. -1.
         11    1    4    4    0    0 -0.83091397451E+02  0.41241793726E+02 -0.67699855152E+02  0.11484048183E+03  0.00000000000E+00 0.  1.
</event>
<event>
 8    1  0.6906553E-009  0.1074359E+03  0.7561462E-02  0.1265393E+00
          1   -1    0    0  501    0  0.00000000000E+00  0.00000000000E+00  0.23376652447E+03  0.23376652447E+03  0.00000000000E+00 0.  1.
         -1   -1    0    0    0  501 -0.00000000000E+00 -0.00000000000E+00 -0.57668965626E+02  0.57668965626E+02  0.00000000000E+00 0. -1.
         25    2    1    2    0    0 -0.72836754852E+01 -0.29913862200E+02  0.12715421421E+03  0.18100428459E+03  0.12508583361E+03 0.  0.
         23    2    1    2    0    0  0.72836754852E+01  0.29913862200E+02  0.48943344638E+02  0.11043120550E+03  0.94083521853E+02 0.  0.
          5    1    3    3  502    0 -0.47020976671E+02 -0.54057398155E+02  0.10984979361E+03  0.13121594453E+03  0.41800000000E+01 0. -1.
         -5    1    3    3    0  502  0.39737301186E+02  0.24143535954E+02  0.17304420593E+02  0.49788340060E+02  0.41800000000E+01 0. -1.
        -11    1    4    4    0    0  0.39859290913E+02  0.45345396890E+02  0.42453957377E+02  0.73805870960E+02  0.00000000000E+00 0.  1.
         11    1    4    4    0    0 -0.32575615428E+02 -0.15431534689E+02  0.64893872609E+01  0.36625334543E+02  0.00000000000E+00 0. -1.
</event>
<event>
 8    1  0.6906553E-009  0.1152113E+03  0.7561462E-02  0.1251213E+00
         -1   -1    0    0    0  501 -0.00000000000E+00  0.00000000000E+00  0.14129012440E+03  0.14129012440E+03  0.00000000000E+00 0.  1.
          1   -1    0    0  501    0  0.00000000000E+00 -0.00000000000E+00 -0.16768828643E+03  0.16768828643E+03  0.00000000000E+00 0. -1.
         25    2    1    2    0    0  0.65232633402E+02 -0.75535092247E+02 -0.57293547217E+02  0.16997434538E+03  0.12509149017E+03 0.  0.
         23    2    1    2    0    0 -0.65232633402E+02  0.75535092247E+02  0.30895385189E+02  0.13900406545E+03  0.91688378574E+02 0.  0.
          5    1    3    3  502    0  0.25664177775E+02 -0.47356940122E+02  0.35852289211E+02  0.64839716534E+02  0.41800000000E+01 0.  1.
         -5    1    3    3    0  502  0.39568455627E+02 -0.28178152125E+02 -0.93145836428E+02  0.10513462884E+03  0.41800000000E+01 0.  1.
        -11    1    4    4    0    0  0.99424333898E+01 -0.97692948908E+01  0.20551566248E+02  0.24832599131E+02  0.00000000000E+00 0.  1.
         11    1    4    4    0    0 -0.75175066792E+02  0.85304387138E+02  0.10343818941E+02  0.11417146632E+03  0.00000000000E+00 0. -1.
</event>
<event>
 8    1  0.6906553E-009  0.1119631E+03  0.7561462E-02  0.1256977E+00
         -2   -1    0    0    0  501 -0.00000000000E+00  0.00000000000E+00  0.14125602017E+02  0.14125602017E+02  0.00000000000E+00 0. -1.
          2   -1    0    0  501    0  0.00000000000E+00 -0.00000000000E+00 -0.13644109637E+04  0.13644109637E+04  0.00000000000E+00 0.  1.
         25    2    1    2    0    0  0.27661475463E+02 -0.43868250629E+02 -0.10843712038E+04  0.10927934991E+04  0.12508854251E+03 0.  0.
         23    2    1    2    0    0 -0.27661475463E+02  0.43868250629E+02 -0.26591415785E+03  0.28574306656E+03  0.90824997117E+02 0.  0.
          5    1    3    3  502    0 -0.22542791962E+02  0.25126380125E+02 -0.59874021044E+03  0.59970561482E+03  0.41800000000E+01 0. -1.
         -5    1    3    3    0  502  0.50204267425E+02 -0.68994630755E+02 -0.48563099336E+03  0.49308788431E+03  0.41800000000E+01 0. -1.
        -11    1    4    4    0    0 -0.60473522657E+02  0.37200549285E+02 -0.17458802079E+03  0.18847255719E+03  0.00000000000E+00 0. -1.
         11    1    4    4    0    0  0.32812047194E+02  0.66677013446E+01 -0.91326137062E+02  0.97270509369E+02  0.00000000000E+00 0.  1.
</event>
<event>
 8    1  0.6906553E-009  0.1279959E+03  0.7561462E-02  0.1230460E+00
         -1   -1    0    0    0  501 -0.00000000000E+00  0.00000000000E+00  0.24354591914E+02  0.24354591914E+02  0.00000000000E+00 0.  1.
          1   -1    0    0  501    0  0.00000000000E+00 -0.00000000000E+00 -0.86757530857E+03  0.86757530857E+03  0.00000000000E+00 0. -1.
         25    2    1    2    0    0  0.52123331948E+02  0.76607476188E+02 -0.53584066516E+03  0.55799552933E+03  0.12509294617E+03 0.  0.
         23    2    1    2    0    0 -0.52123331948E+02 -0.76607476188E+02 -0.30738005150E+03  0.33393437115E+03  0.91891898630E+02 0.  0.
          5    1    3    3  502    0  0.70284928350E+02 -0.53422926144E+01 -0.27669929316E+03  0.28556694920E+03  0.41800000000E+01 0.  1.
         -5    1    3    3    0  502 -0.18161596401E+02  0.81949768802E+02 -0.25914137200E+03  0.27242858013E+03  0.41800000000E+01 0.  1.
        -11    1    4    4    0    0 -0.10163834083E+02 -0.51386448424E+02 -0.26198550791E+03  0.26717087596E+03  0.00000000000E+00 0. -1.
         11    1    4    4    0    0 -0.41959497866E+02 -0.25221027764E+02 -0.45394543592E+02  0.66763495194E+02  0.00000000000E+00 0.  1.
</event>
<event>
 8    1  0.6906553E-009  0.9354598E+02  0.7561462E-02  0.1294485E+00
         -1   -1    0    0    0  501 -0.00000000000E+00  0.00000000000E+00  0.15158662287E+02  0.15158662287E+02  0.00000000000E+00 0.  1.
          1   -1    0    0  501    0  0.00000000000E+00 -0.00000000000E+00 -0.12947437181E+04  0.12947437181E+04  0.00000000000E+00 0. -1.
         25    2    1    2    0    0  0.20042322500E+02 -0.42737142006E+02 -0.10507336319E+04  0.10592049541E+04  0.12508321905E+03 0.  0.
         23    2    1    2    0    0 -0.20042322500E+02  0.42737142006E+02 -0.22885142396E+03  0.25069742629E+03  0.90818870836E+02 0.  0.
          5    1    3    3  502    0  0.57960811665E+02 -0.64918680677E+02 -0.59595473315E+03  0.60229013536E+03  0.41800000000E+01 0.  1.
         -5    1    3    3    0  502 -0.37918489165E+02  0.22181538671E+02 -0.45477889874E+03  0.45691481878E+03  0.41800000000E+01 0.  1.
        -11    1    4    4    0    0  0.73826973506E+01  0.15573562367E+02  0.13448469377E+01  0.17287240330E+02  0.00000000000E+00 0.  1.
         11    1    4    4    0    0 -0.27425019851E+02  0.27163579639E+02 -0.23019627090E+03  0.23341018596E+03  0.00000000000E+00 0. -1.
</event>
<event>
 8    1  0.6906553E-009  0.1193674E+03  0.7561462E-02  0.1244144E+00
         -1   -1    0    0    0  501 -0.00000000000E+00  0.00000000000E+00  0.15582592768E+02  0.15582592768E+02  0.00000000000E+00 0.  1.
          1   -1    0    0  501    0  0.00000000000E+00 -0.00000000000E+00 -0.11926595743E+04  0.11926595743E+04  0.00000000000E+00 0. -1.
         25    2    1    2    0    0 -0.45200093718E+02 -0.66476670330E+02 -0.72180343629E+03  0.73695958414E+03  0.12508809636E+03 0.  0.
         23    2    1    2    0    0  0.45200093718E+02  0.66476670330E+02 -0.45527354525E+03  0.47128258294E+03  0.91493583384E+02 0.  0.
          5    1    3    3  502    0 -0.73143816317E+02 -0.59874401837E+02 -0.67700820714E+03  0.68358799492E+03  0.41800000000E+01 0. -1.
         -5    1    3    3    0  502  0.27943722599E+02 -0.66022684921E+01 -0.44795229148E+02  0.53371589224E+02  0.41800000000E+01 0. -1.
        -11    1    4    4    0    0 -0.22397365319E+02  0.32434603420E+02 -0.23710135131E+03  0.24035535414E+03  0.00000000000E+00 0. -1.
         11    1    4    4    0    0  0.67597459037E+02  0.34042066910E+02 -0.21817219395E+03  0.23092722879E+03  0.00000000000E+00 0.  1.
</event>
<event>
 8    1  0.6906553E-009  0.1011419E+03  0.7561462E-02  0.1277913E+00
         -1   -1    0    0    0  501 -0.00000000000E+00  0.00000000000E+00  0.30198916183E+02  0.30198916183E+02  0.00000000000E+00 0.  1.
          1   -1    0    0  501    0  0.00000000000E+00 -0.00000000000E+00 -0.62161731853E+03  0.62161731853E+03  0.00000000000E+00 0. -1.
         25    2    1    2    0    0  0.53049431403E+02  0.63290332165E+02 -0.28051087665E+03  0.31804707686E+03  0.12509069855E+03 0.  0.
         23    2    1    2    0    0 -0.53049431403E+02 -0.63290332165E+02 -0.31090752570E+03  0.33376915786E+03  0.88985689190E+02 0.  0.
          5    1    3    3  502    0  0.50707557427E+02  0.16155325785E+01 -0.23702859999E+03  0.24243328142E+03  0.41800000000E+01 0. -1.
         -5    1    3    3    0  502  0.23418739754E+01  0.61674799587E+02 -0.43482276661E+02  0.75613795444E+02  0.41800000000E+01 0. -1.
        -11    1    4    4    0    0 -0.13351871254E+02  0.16006034033E+01  0.24804584102E+00  0.13449755536E+02  0.00000000000E+00 0.  1.
         11    1    4    4    0    0 -0.39697560148E+02 -0.64890935569E+02 -0.31115557154E+03  0.32031940232E+03  0.00000000000E+00 0. -1.
</event>
<event>
 8    1  0.6906553E-009  0.1190968E+03  0.7561462E-02  0.1244594E+00
          1   -1    0    0  501    0  0.00000000000E+00  0.00000000000E+00  0.66323797613E+03  0.66323797613E+03  0.00000000000E+00 0. -1.
         -1   -1    0    0    0  501 -0.00000000000E+00 -0.00000000000E+00 -0.26641536015E+02  0.26641536015E+02  0.00000000000E+00 0.  1.
         25    2    1    2    0    0  0.31533266272E+02  0.74504627761E+02  0.38894467883E+03  0.41649865576E+03  0.12509148899E+03 0.  0.
         23    2    1    2    0    0 -0.31533266272E+02 -0.74504627761E+02  0.24765176128E+03  0.27338085638E+03  0.82827600060E+02 0.  0.
          5    1    3    3  502    0  0.53913968108E+01  0.98668797510E+02  0.18847197201E+03  0.21284678855E+03  0.41800000000E+01 0. -1.
         -5    1    3    3    0  502  0.26141869462E+02 -0.24164169750E+02  0.20047270682E+03  0.20365186721E+03  0.41800000000E+01 0. -1.
        -11    1    4    4    0    0  0.19774701241E+02 -0.27424698029E+02  0.14798065351E+03  0.15179402717E+03  0.00000000000E+00 0. -1.
         11    1    4    4    0    0 -0.51307967513E+02 -0.47079929731E+02  0.99671107771E+02  0.12158682921E+03  0.00000000000E+00 0.  1.
</event>
<event>
 8    1  0.6906553E-009  0.3747225E+03  0.7561462E-02  0.1052902E+00
          3   -1    0    0  501    0  0.00000000000E+00  0.00000000000E+00  0.39366477084E+03  0.39366477084E+03  0.00000000000E+00 0. -1.
         -3   -1    0    0    0  501 -0.00000000000E+00 -0.00000000000E+00 -0.37136393981E+03  0.37136393981E+03  0.00000000000E+00 0.  1.
         25    2    1    2    0    0  0.17878778426E+03 -0.31327350744E+03  0.68284705062E+02  0.38783466051E+03  0.12509021018E+03 0.  0.
         23    2    1    2    0    0 -0.17878778426E+03  0.31327350744E+03 -0.45983874033E+02  0.37719405014E+03  0.10027697904E+03 0.  0.
          5    1    3    3  502    0  0.29742253541E+02  0.46572021737E+01  0.90787892257E+01  0.31720466447E+02  0.41800000000E+01 0.  1.
         -5    1    3    3    0  502  0.14904553071E+03 -0.31793070961E+03  0.59205915837E+02  0.35611419406E+03  0.41800000000E+01 0.  1.
        -11    1    4    4    0    0 -0.12999012770E+03  0.15513049072E+03  0.95681652899E+01  0.20261898291E+03  0.00000000000E+00 0. -1.
         11    1    4    4    0    0 -0.48797656554E+02  0.15814301672E+03 -0.55552039322E+02  0.17457506722E+03  0.00000000000E+00 0.  1.
</event>
<event>
 8    1  0.6906553E-009  0.1381978E+03  0.7561462E-02  0.1215775E+00
         -2   -1    0    0    0  501 -0.00000000000E+00  0.00000000000E+00  0.58339192257E+02  0.58339192257E+02  0.00000000000E+00 0.  1.
          2   -1    0    0  501    0  0.00000000000E+00 -0.00000000000E+00 -0.50439808611E+03  0.50439808611E+03  0.00000000000E+00 0. -1.
         25    2    1    2    0    0 -0.90884788518E+02 -0.40810445211E+02 -0.38069971662E+03  0.41292206853E+03  0.12508726242E+03 0.  0.
         23    2    1    2    0    0  0.90884788518E+02  0.40810445211E+02 -0.65359177232E+02  0.14981520984E+03  0.90814304096E+02 0.  0.
          5    1    3    3  502    0 -0.19860427000E+02  0.40726926350E+02 -0.66241736290E+02  0.80365161092E+02  0.41800000000E+01 0.  1.
         -5    1    3    3    0  502 -0.71024361518E+02 -0.81537371561E+02 -0.31445798033E+03  0.33255690744E+03  0.41800000000E+01 0.  1.
        -11    1    4    4    0    0  0.66434779907E+02 -0.91436595594E+01 -0.42638497675E+01  0.67196479865E+02  0.00000000000E+00 0.  1.
         11    1    4    4    0    0  0.24450008611E+02  0.49954104770E+02 -0.61095327465E+02  0.82618729974E+02  0.00000000000E+00 0. -1.
</event>
<event>
 8    1  0.6906553E-009  0.9362928E+02  0.7561462E-02  0.1294293E+00
         -2   -1    0    0    0  501 -0.00000000000E+00  0.00000000000E+00  0.91322093575E+02  0.91322093575E+02  0.00000000000E+00 0.  1.
          2   -1    0    0  501    0  0.00000000000E+00 -0.00000000000E+00 -0.15405688628E+03  0.15405688628E+03  0.00000000000E+00 0. -1.
         25    2    1    2    0    0  0.24218984971E+02 -0.24321354960E+02 -0.84487615189E+02  0.15480336020E+03  0.12509130932E+03 0.  0.
         23    2    1    2    0    0 -0.24218984971E+02  0.24321354960E+02  0.21752822480E+02  0.90575619662E+02  0.80948564232E+02 0.  0.
          5    1    3    3  502    0  0.49460995359E+02  0.15574007314E+02  0.62860156228E+01  0.52401585455E+02  0.41800000000E+01 0. -1.
         -5    1    3    3    0  502 -0.25242010388E+02 -0.39895362275E+02 -0.90773630812E+02  0.10240177474E+03  0.41800000000E+01 0. -1.
        -11    1    4    4    0    0 -0.54277917885E+02  0.17354016825E+02  0.12213556191E+02  0.58278857442E+02  0.00000000000E+00 0.  1.
         11    1    4    4    0    0  0.30058932914E+02  0.69673381355E+01  0.95392662886E+01  0.32296762221E+02  0.00000000000E+00 0. -1.
</event>
<event>
 8    1  0.6906553E-009  0.1870630E+03  0.7561462E-02  0.1161137E+00
         -1   -1    0    0    0  501 -0.00000000000E+00  0.00000000000E+00  0.11243541364E+03  0.11243541364E+03  0.00000000000E+00 0.  1.
          1   -1    0    0  501    0  0.00000000000E+00 -0.00000000000E+00 -0.44189683313E+03  0.44189683313E+03  0.00000000000E+00 0. -1.
         25    2    1    2    0    0  0.13896306210E+03 -0.81761452373E+02 -0.30464975412E+03  0.36668072337E+03  0.12509041721E+03 0.  0.
         23    2    1    2    0    0 -0.13896306210E+03  0.81761452373E+02 -0.24811665373E+02  0.18765152340E+03  0.92745931310E+02 0.  0.
          5    1    3    3  502    0  0.14866011580E+03 -0.46932366453E+02 -0.28607453293E+03  0.32581987023E+03  0.41800000000E+01 0. -1.
         -5    1    3    3    0  502 -0.96970536926E+01 -0.34829085920E+02 -0.18575221194E+02  0.40860853133E+02  0.41800000000E+01 0. -1.
        -11    1    4    4    0    0 -0.94405705319E+01 -0.16632772979E+02 -0.15691259317E+02  0.24738414013E+02  0.00000000000E+00 0. -1.
         11    1    4    4    0    0 -0.12952249157E+03  0.98394225351E+02 -0.91204060558E+01  0.16291310939E+03  0.00000000000E+00 0.  1.
</event>
<event>
 8    1  0.6906553E-009  0.1179950E+03  0.7561462E-02  0.1246442E+00
          2   -1    0    0  501    0  0.00000000000E+00  0.00000000000E+00  0.34436259096E+02  0.34436259096E+02  0.00000000000E+00 0.  1.
         -2   -1    0    0    0  501 -0.00000000000E+00 -0.00000000000E+00 -0.56473253136E+03  0.56473253136E+03  0.00000000000E+00 0. -1.
         25    2    1    2    0    0  0.25373477102E+02  0.54240606510E+02 -0.42591120312E+03  0.44792521122E+03  0.12510309814E+03 0.  0.
         23    2    1    2    0    0 -0.25373477102E+02 -0.54240606510E+02 -0.10438506914E+03  0.15124357924E+03  0.91610702796E+02 0.  0.
          5    1    3    3  502    0  0.70401049824E+02  0.62994131760E+01 -0.18262750484E+03  0.19587309246E+03  0.41800000000E+01 0.  1.
         -5    1    3    3    0  502 -0.45027572722E+02  0.47941193334E+02 -0.24328369828E+03  0.25205211876E+03  0.41800000000E+01 0.  1.
        -11    1    4    4    0    0 -0.42245785039E+02  0.24057512709E+00 -0.77330911519E+02  0.88118296093E+02  0.00000000000E+00 0. -1.
         11    1    4    4    0    0  0.16872307937E+02 -0.54481181637E+02 -0.27054157622E+02  0.63125283146E+02  0.00000000000E+00 0.  1.
</event>
<event>
 8    1  0.6906553E-009  0.1223140E+03  0.7561462E-02  0.1239328E+00
          2   -1    0    0  501    0  0.00000000000E+00  0.00000000000E+00  0.51182034622E+03  0.51182034622E+03  0.00000000000E+00 0. -1.
         -2   -1    0    0    0  501 -0.00000000000E+00 -0.00000000000E+00 -0.51081677702E+02  0.51081677702E+02  0.00000000000E+00 0.  1.
         25    2    1    2    0    0 -0.59186118609E+02  0.67807670432E+02  0.38238919016E+03  0.41227474686E+03  0.12509235524E+03 0.  0.
         23    2    1    2    0    0  0.59186118609E+02 -0.67807670432E+02  0.78349478358E+02  0.15062727707E+03  0.91918763220E+02 0.  0.
          5    1    3    3  502    0  0.38481374483E+02  0.25808934378E+02  0.93952988550E+02  0.10484061109E+03  0.41800000000E+01 0.  1.
         -5    1    3    3    0  502 -0.97667493092E+02  0.41998736054E+02  0.28843620161E+03  0.30743413577E+03  0.41800000000E+01 0.  1.
        -11    1    4    4    0    0  0.36106810227E+01 -0.13609511206E+02 -0.20543592824E+02  0.24905722612E+02  0.00000000000E+00 0.  1.
         11    1    4    4    0    0  0.55575437586E+02 -0.54198159226E+02  0.98893071182E+02  0.12572155445E+03  0.00000000000E+00 0. -1.
</event>
<event>
 8    1  0.6906553E-009  0.3065518E+03  0.7561462E-02  0.1082011E+00
         -1   -1    0    0    0  501 -0.00000000000E+00  0.00000000000E+00  0.50618977327E+03  0.50618977327E+03  0.00000000000E+00 0.  1.
          1   -1    0    0  501    0  0.00000000000E+00 -0.00000000000E+00 -0.22106981169E+03  0.22106981169E+03  0.00000000000E+00 0. -1.
         25    2    1    2    0    0 -0.59258840869E+02 -0.29411476204E+03  0.37324158208E+02  0.32719363539E+03  0.12508988280E+03 0.  0.
         23    2    1    2    0    0  0.59258840869E+02  0.29411476204E+03  0.24779580337E+03  0.40006594957E+03  0.92924164591E+02 0.  0.
          5    1    3    3  502    0  0.11608030290E+02 -0.10587159611E+03  0.63879780430E+02  0.12426439546E+03  0.41800000000E+01 0. -1.
         -5    1    3    3    0  502 -0.70866871159E+02 -0.18824316593E+03 -0.26555622222E+02  0.20292923993E+03  0.41800000000E+01 0. -1.
        -11    1    4    4    0    0 -0.46126752140E+01  0.11632752963E+03  0.50465544653E+02  0.12688633543E+03  0.00000000000E+00 0. -1.
         11    1    4    4    0    0  0.63871516083E+02  0.17778723242E+03  0.19733025871E+03  0.27317961414E+03  0.00000000000E+00 0.  1.
</event>
<event>
 8    1  0.6906553E-009  0.2231933E+03  0.7561462E-02  0.1131524E+00
         -2   -1    0    0    0  501 -0.00000000000E+00  0.00000000000E+00  0.11819363202E+03  0.11819363202E+03  0.00000000000E+00 0.  1.
          2   -1    0    0  501    0  0.00000000000E+00 -0.00000000000E+00 -0.61956523604E+03  0.61956523604E+03  0.00000000000E+00 0. -1.
         25    2    1    2    0    0 -0.26355267574E+02  0.20967721388E+03 -0.80472337101E+02  0.25842445058E+03  0.12509302726E+03 0.  0.
         23    2    1    2    0    0  0.26355267574E+02 -0.20967721388E+03 -0.42089926692E+03  0.47933441748E+03  0.89141217938E+02 0.  0.
          5    1    3    3  502    0 -0.47843872101E+02  0.11708313360E+03 -0.10000358475E+03  0.16129378672E+03  0.41800000000E+01 0.  1.
         -5    1    3    3    0  502  0.21488604528E+02  0.92594080285E+02  0.19531247647E+02  0.97130663865E+02  0.41800000000E+01 0.  1.
        -11    1    4    4    0    0  0.52207517188E+02 -0.16510645233E+03 -0.27899985919E+03  0.32836974112E+03  0.00000000000E+00 0.  1.
         11    1    4    4    0    0 -0.25852249614E+02 -0.44570761553E+02 -0.14189940773E+03  0.15096467636E+03  0.00000000000E+00 0. -1.
</event>
<event>
 8    1  0.6906553E-009  0.7760700E+02  0.7561462E-02  0.1335983E+00
         -2   -1    0    0    0  501 -0.00000000000E+00  0.00000000000E+00  0.51031902592E+02  0.51031902592E+02  0.00000000000E+00 0.  1.
          2   -1    0    0  501    0  0.00000000000E+00 -0.00000000000E+00 -0.29112572089E+03  0.29112572089E+03  0.00000000000E+00 0. -1.
         25    2    1    2    0    0 -0.66522304349E+01  0.55187421848E+02 -0.13039407068E+03  0.18905169415E+03  0.12509206885E+03 0.  0.
         23    2    1    2    0    0  0.66522304349E+01 -0.55187421848E+02 -0.10969974761E+03  0.15310592933E+03  0.91200259162E+02 0.  0.
          5    1    3    3  502    0  0.33363849987E+02  0.46841867139E+02 -0.59119856784E+01  0.57963186400E+02  0.41800000000E+01 0.  1.
         -5    1    3    3    0  502 -0.40016080422E+02  0.83455547094E+01 -0.12448208501E+03  0.13108850775E+03  0.41800000000E+01 0.  1.
        -11    1    4    4    0    0  0.90553019164E+01 -0.35817185080E+02  0.45297675062E+01  0.37220801086E+02  0.00000000000E+00 0.  1.
         11    1    4    4    0    0 -0.24030714814E+01 -0.19370236768E+02 -0.11422951512E+03  0.11588512825E+03  0.00000000000E+00 0. -1.
</event>
<event>
 8    1  0.6906553E-009  0.1276672E+03  0.7561462E-02  0.1230959E+00
         -1   -1    0    0    0  501 -0.00000000000E+00  0.00000000000E+00  0.18758173548E+02  0.18758173548E+02  0.00000000000E+00 0.  1.
          1   -1    0    0  501    0  0.00000000000E+00 -0.00000000000E+00 -0.10242247388E+04  0.10242247388E+04  0.00000000000E+00 0. -1.
         25    2    1    2    0    0  0.78328969047E+02  0.30326444659E+02 -0.46436886542E+03  0.48820177907E+03  0.12508962099E+03 0.  0.
         23    2    1    2    0    0 -0.78328969047E+02 -0.30326444659E+02 -0.54109769984E+03  0.55478113328E+03  0.89108161457E+02 0.  0.
          5    1    3    3  502    0 -0.33906779001E+02  0.19432089680E+01 -0.88460100493E+02  0.94847812324E+02  0.41800000000E+01 0. -1.
         -5    1    3    3    0  502  0.11223574805E+03  0.28383235691E+02 -0.37590876493E+03  0.39335396675E+03  0.41800000000E+01 0. -1.
        -11    1    4    4    0    0  0.10797348548E+02 -0.78647198465E+01 -0.12641665279E+02  0.18391526717E+02  0.00000000000E+00 0.  1.
         11    1    4    4    0    0 -0.89126317596E+02 -0.22461724812E+02 -0.52845603456E+03  0.53638960657E+03  0.00000000000E+00 0. -1.
</event>
<event>
 8    1  0.6906553E-009  0.6384552E+02  0.7561462E-02  0.1382368E+00
          2   -1    0    0  501    0  0.00000000000E+00  0.00000000000E+00  0.17183201419E+02  0.17183201419E+02  0.00000000000E+00 0.  1.
         -2   -1    0    0    0  501 -0.00000000000E+00 -0.00000000000E+00 -0.94761950083E+03  0.94761950083E+03  0.00000000000E+00 0. -1.
         25    2    1    2    0    0 -0.27639591710E+02  0.16271732614E+02 -0.73368808055E+03  0.74496601899E+03  0.12508978217E+03 0.  0.
         23    2    1    2    0    0  0.27639591710E+02 -0.16271732614E+02 -0.19674821887E+03  0.21983668326E+03  0.92680037592E+02 0.  0.
          5    1    3    3  502    0 -0.15970788759E+02  0.77943554091E+01 -0.94218686314E+01  0.20544149491E+02  0.41800000000E+01 0. -1.
         -5    1    3    3    0  502 -0.11668802952E+02  0.84773772047E+01 -0.72426621191E+03  0.72442186950E+03  0.41800000000E+01 0. -1.
        -11    1    4    4    0    0 -0.26635986461E+02 -0.28260070589E+02 -0.52908596393E+02  0.65630990673E+02  0.00000000000E+00 0.  1.
         11    1    4    4    0    0  0.54275578171E+02  0.11988337975E+02 -0.14383962247E+03  0.15420569259E+03  0.00000000000E+00 0. -1.
</event>
<event>
 8    1  0.6906553E-009  0.1256709E+03  0.7561462E-02  0.1234025E+00
         -2   -1    0    0    0  501 -0.00000000000E+00  0.00000000000E+00  0.10951552006E+03  0.10951552006E+03  0.00000000000E+00 0. -1.
          2   -1    0    0  501    0  0.00000000000E+00 -0.00000000000E+00 -0.18478649638E+03  0.18478649638E+03  0.00000000000E+00 0.  1.
         25    2    1    2    0    0  0.79114367101E+02  0.45171063149E+02 -0.27861158535E+02  0.15723349021E+03  0.12508644316E+03 0.  0.
         23    2    1    2    0    0 -0.79114367101E+02 -0.45171063149E+02 -0.47409817783E+02  0.13706852623E+03  0.90777651618E+02 0.  0.
          5    1    3    3  502    0  0.10910738275E+03  0.55747218642E+02 -0.24037832710E+02  0.12492983294E+03  0.41800000000E+01 0. -1.
         -5    1    3    3    0  502 -0.29993015651E+02 -0.10576155494E+02 -0.38233258248E+01  0.32303657273E+02  0.41800000000E+01 0. -1.
        -11    1    4    4    0    0 -0.26728227613E+02  0.11337422627E+01 -0.60304424559E+02  0.65972017888E+02  0.00000000000E+00 0.  1.
         11    1    4    4    0    0 -0.52386139488E+02 -0.46304805411E+02  0.12894606776E+02  0.71096508343E+02  0.00000000000E+00 0. -1.
</event>
<event>
 8    1  0.6906553E-009  0.2889521E+03  0.7561462E-02  0.1090898E+00
         -2   -1    0    0    0  501 -0.00000000000E+00  0.00000000000E+00  0.16620701098E+03  0.16620701098E+03  0.00000000000E+00 0.  1.
          2   -1    0    0  501    0  0.00000000000E+00 -0.00000000000E+00 -0.55249763779E+03  0.55249763779E+03  0.00000000000E+00 0. -1.
         25    2    1    2    0    0 -0.18371550735E+03 -0.20478143913E+03 -0.27340052392E+03  0.40752979283E+03  0.12508341263E+03 0.  0.
         23    2    1    2    0    0  0.18371550735E+03  0.20478143913E+03 -0.11289010289E+03  0.31117485593E+03  0.91644913579E+02 0.  0.
          5    1    3    3  502    0 -0.18306116888E+03 -0.12598778807E+03 -0.21619595309E+03  0.31006850344E+03  0.41800000000E+01 0.  1.
         -5    1    3    3    0  502 -0.65433847260E+00 -0.78793651060E+02 -0.57204570833E+02  0.97461289395E+02  0.41800000000E+01 0.  1.
        -11    1    4    4    0    0  0.64694029421E+02  0.51637098727E+02  0.71386989151E+01  0.83082299137E+02  0.00000000000E+00 0.  1.
         11    1    4    4    0    0  0.11902147793E+03  0.15314434040E+03 -0.12002880180E+03  0.22809255680E+03  0.00000000000E+00 0. -1.
</event>
<event>
 8    1  0.6906553E-009  0.1313752E+03  0.7561462E-02  0.1225429E+00
          2   -1    0    0  501    0  0.00000000000E+00  0.00000000000E+00  0.33186199597E+03  0.33186199597E+03  0.00000000000E+00 0. -1.
         -2   -1    0    0    0  501 -0.00000000000E+00 -0.00000000000E+00 -0.66869144680E+02  0.66869144680E+02  0.00000000000E+00 0.  1.
         25    2    1    2    0    0  0.42653028429E+02 -0.88888854239E+02  0.13679915435E+03  0.20995582969E+03  0.12508769943E+03 0.  0.
         23    2    1    2    0    0 -0.42653028429E+02  0.88888854239E+02  0.12819369695E+03  0.18877531096E+03  0.97375483826E+02 0.  0.
          5    1    3    3  502    0 -0.21102854075E+02 -0.90090285033E+02  0.61435056151E+02  0.11114552817E+03  0.41800000000E+01 0. -1.
         -5    1    3    3    0  502  0.63755882505E+02  0.12014307937E+01  0.75364098197E+02  0.98810301522E+02  0.41800000000E+01 0. -1.
        -11    1    4    4    0    0 -0.49712367288E+02  0.68433984422E+02  0.32415373775E+02  0.90583034516E+02  0.00000000000E+00 0. -1.
         11    1    4    4    0    0  0.70593388589E+01  0.20454869818E+02  0.95778323171E+02  0.98192276447E+02  0.00000000000E+00 0.  1.
</event>
<event>
 8    1  0.6906553E-009  0.1721217E+03  0.7561462E-02  0.1175653E+00
         -1   -1    0    0    0  501 -0.00000000000E+00  0.00000000000E+00  0.66575401984E+02  0.66575401984E+02  0.00000000000E+00 0.  1.
          1   -1    0    0  501    0  0.00000000000E+00 -0.00000000000E+00 -0.47966328117E+03  0.47966328117E+03  0.00000000000E+00 0. -1.
         25    2    1    2    0    0  0.58836635238E+02  0.12589545173E+03 -0.25447557598E+03  0.31578222890E+03  0.12509669422E+03 0.  0.
         23    2    1    2    0    0 -0.58836635238E+02 -0.12589545173E+03 -0.15861230321E+03  0.23045645426E+03  0.92956442308E+02 0.  0.
          5    1    3    3  502    0  0.53028774581E+02  0.15080954990E+03 -0.20572039433E+03  0.26056462599E+03  0.41800000000E+01 0. -1.
         -5    1    3    3    0  502  0.58078606565E+01 -0.24914098169E+02 -0.48755181651E+02  0.55217602907E+02  0.41800000000E+01 0. -1.
        -11    1    4    4    0    0  0.59277414252E+01 -0.77074446931E+02 -0.40750490089E+02  0.87385416007E+02  0.00000000000E+00 0.  1.
         11    1    4    4    0    0 -0.64764376663E+02 -0.48821004802E+02 -0.11786181312E+03  0.14307103825E+03  0.00000000000E+00 0. -1.
</event>
<event>
 8    1  0.6906553E-009  0.1131472E+03  0.7561462E-02  0.1254850E+00
          3   -1    0    0  501    0  0.00000000000E+00  0.00000000000E+00  0.15419689449E+03  0.15419689449E+03  0.00000000000E+00 0. -1.
         -3   -1    0    0    0  501 -0.00000000000E+00 -0.00000000000E+00 -0.11005378043E+03  0.11005378043E+03  0.00000000000E+00 0.  1.
         25    2    1    2    0    0 -0.27808116555E+02  0.52394417986E+02  0.67306640145E+02  0.15393823939E+03  0.12509329062E+03 0.  0.
         23    2    1    2    0    0  0.27808116555E+02 -0.52394417986E+02 -0.23163526088E+02  0.11031243553E+03  0.90076734567E+02 0.  0.
          5    1    3    3  502    0  0.21409204647E+02 -0.21799392241E+02  0.56215330747E+02  0.64118666211E+02  0.41800000000E+01 0.  1.
         -5    1    3    3    0  502 -0.49217321202E+02  0.74193810227E+02  0.11091309398E+02  0.89819573181E+02  0.41800000000E+01 0.  1.
        -11    1    4    4    0    0  0.57392197895E+02 -0.50883534681E+02 -0.82372711473E+01  0.77141759876E+02  0.00000000000E+00 0. -1.
         11    1    4    4    0    0 -0.29584081340E+02 -0.15108833046E+01 -0.14926254941E+02  0.33170675658E+02  0.00000000000E+00 0.  1.
</event>
<event>
 8    1  0.6906553E-009  0.1196287E+03  0.7561462E-02  0.1243711E+00
          2   -1    0    0  501    0  0.00000000000E+00  0.00000000000E+00  0.10698043218E+04  0.10698043218E+04  0.00000000000E+00 0. -1.
         -2   -1    0    0    0  501 -0.00000000000E+00 -0.00000000000E+00 -0.15297045664E+02  0.15297045664E+02  0.00000000000E+00 0.  1.
         25    2    1    2    0    0  0.63771701588E+02 -0.19220977045E+02  0.64340760666E+03  0.65882803547E+03  0.12507899957E+03 0.  0.
         23    2    1    2    0    0 -0.63771701588E+02  0.19220977045E+02  0.41109966952E+03  0.42627333204E+03  0.90938107767E+02 0.  0.
          5    1    3    3  502    0  0.37358534488E+02 -0.65298416464E+02  0.23060657785E+03  0.24260339948E+03  0.41800000000E+01 0. -1.
         -5    1    3    3    0  502  0.26413167100E+02  0.46077439419E+02  0.41280102881E+03  0.41622463599E+03  0.41800000000E+01 0. -1.
        -11    1    4    4    0    0 -0.28154092203E+02 -0.35521922885E+02  0.12962672719E+03  0.13732278877E+03  0.00000000000E+00 0. -1.
         11    1    4    4    0    0 -0.35617609384E+02  0.54742899930E+02  0.28147294233E+03  0.28895054327E+03  0.00000000000E+00 0.  1.
</event>
<event>
 8    1  0.6906553E-009  0.1710089E+03  0.7561462E-02  0.1176800E+00
          1   -1    0    0  501    0  0.00000000000E+00  0.00000000000E+00  0.53934841380E+03  0.53934841380E+03  0.00000000000E+00 0. -1.
         -1   -1    0    0    0  501 -0.00000000000E+00 -0.00000000000E+00 -0.63074528954E+02  0.63074528954E+02  0.00000000000E+00 0.  1.
         25    2    1    2    0    0  0.16205889790E+02  0.14374406615E+03  0.26213432170E+03  0.32447831530E+03  0.12508711792E+03 0.  0.
         23    2    1    2    0    0 -0.16205889790E+02 -0.14374406615E+03  0.21413956314E+03  0.27794462745E+03  0.10233511621E+03 0.  0.
          5    1    3    3  502    0 -0.50984880855E+02  0.39642952612E+02  0.65907499221E+02  0.92370409878E+02  0.41800000000E+01 0.  1.
         -5    1    3    3    0  502  0.67190770645E+02  0.10410111353E+03  0.19622682248E+03  0.23210790542E+03  0.41800000000E+01 0.  1.
        -11    1    4    4    0    0  0.17587743229E+02 -0.70533563856E+02  0.33329659885E+02  0.79969860386E+02  0.00000000000E+00 0.  1.
         11    1    4    4    0    0 -0.33793633020E+02 -0.73210502291E+02  0.18080990326E+03  0.19797476707E+03  0.00000000000E+00 0. -1.
</event>
<event>
 8    1  0.6906553E-009  0.8365709E+02  0.7561462E-02  0.1318982E+00
         -2   -1    0    0    0  501 -0.00000000000E+00  0.00000000000E+00  0.39339293294E+02  0.39339293294E+02  0.00000000000E+00 0.  1.
          2   -1    0    0  501    0  0.00000000000E+00 -0.00000000000E+00 -0.29592556265E+03  0.29592556265E+03  0.00000000000E+00 0. -1.
         25    2    1    2    0    0 -0.69603545816E+01 -0.44402847559E+01 -0.12114067219E+03  0.17432911846E+03  0.12508963355E+03 0.  0.
         23    2    1    2    0    0  0.69603545816E+01  0.44402847559E+01 -0.13544559717E+03  0.16093573748E+03  0.86525367039E+02 0.  0.
          5    1    3    3  502    0 -0.38622712486E+02 -0.52714864927E+02 -0.79647543005E+02  0.10311049612E+03  0.41800000000E+01 0. -1.
         -5    1    3    3    0  502  0.31662357905E+02  0.48274580171E+02 -0.41493129183E+02  0.71218622341E+02  0.41800000000E+01 0. -1.
        -11    1    4    4    0    0 -0.11226672785E+02 -0.14068842458E+02  0.45419882141E+01  0.18563409355E+02  0.00000000000E+00 0.  1.
         11    1    4    4    0    0  0.18187027367E+02  0.18509127214E+02 -0.13998758538E+03  0.14237232812E+03  0.00000000000E+00 0. -1.
</event>
<event>
 8    1  0.6906553E-009  0.1276678E+03  0.7561462E-02  0.1230958E+00
         -1   -1    0    0    0  501 -0.00000000000E+00  0.00000000000E+00  0.41316792712E+02  0.41316792712E+02  0.00000000000E+00 0.  1.
          1   -1    0    0  501    0  0.00000000000E+00 -0.00000000000E+00 -0.87985937273E+03  0.87985937273E+03  0.00000000000E+00 0. -1.
         25    2    1    2    0    0 -0.34902428190E+02  0.96903612825E+02 -0.72670440601E+03  0.74455068087E+03  0.12509169835E+03 0.  0.
         23    2    1    2    0    0  0.34902428190E+02 -0.96903612825E+02 -0.11183817401E+03  0.17662548457E+03  0.89890460913E+02 0.  0.
          5    1    3    3  502    0  0.64476735616E+01  0.75364169627E+02 -0.17285258812E+03  0.18872419076E+03  0.41800000000E+01 0. -1.
         -5    1    3    3    0  502 -0.41350101751E+02  0.21539443198E+02 -0.55385181789E+03  0.55582649011E+03  0.41800000000E+01 0. -1.
        -11    1    4    4    0    0  0.62830067320E+02 -0.67594562768E+02 -0.57025429785E+02  0.10848291072E+03  0.00000000000E+00 0.  1.
         11    1    4    4    0    0 -0.27927639130E+02 -0.29309050057E+02 -0.54812744221E+02  0.68142573856E+02  0.00000000000E+00 0. -1.
</event>
<event>
 8    1  0.6906553E-009  0.1500649E+03  0.7561462E-02  0.1200393E+00
          2   -1    0    0  501    0  0.00000000000E+00  0.00000000000E+00  0.51191309772E+02  0.51191309772E+02  0.00000000000E+00 0. -1.
         -2   -1    0    0    0  501 -0.00000000000E+00 -0.00000000000E+00 -0.48677881884E+03  0.48677881884E+03  0.00000000000E+00 0.  1.
         25    2    1    2    0    0 -0.91265204842E+02 -0.50175823090E+02 -0.31149952715E+03  0.35146204658E+03  0.12508662571E+03 0.  0.
         23    2    1    2    0    0  0.91265204842E+02  0.50175823090E+02 -0.12408798192E+03  0.18650808204E+03  0.92414752993E+02 0.  0.
          5    1    3    3  502    0 -0.43797653116E+02 -0.89397340675E+02 -0.16923904704E+03  0.19639105474E+03  0.41800000000E+01 0. -1.
         -5    1    3    3    0  502 -0.47467551726E+02  0.39221517585E+02 -0.14226048011E+03  0.15507099184E+03  0.41800000000E+01 0. -1.
        -11    1    4    4    0    0 -0.17505554251E+02 -0.29036349894E+01 -0.21269258458E+02  0.27699402181E+02  0.00000000000E+00 0.  1.
         11    1    4    4    0    0  0.10877075909E+03  0.53079458079E+02 -0.10281872346E+03  0.15880867986E+03  0.00000000000E+00 0. -1.
</event>
<event>
 8    1  0.6906553E-009  0.9489060E+02  0.7561462E-02  0.1291423E+00
          2   -1    0    0  501    0  0.00000000000E+00  0.00000000000E+00  0.31536567191E+03  0.31536567191E+03  0.00000000000E+00 0.  1.
         -2   -1    0    0    0  501 -0.00000000000E+00 -0.00000000000E+00 -0.55176758161E+02  0.55176758161E+02  0.00000000000E+00 0. -1.
         25    2    1    2    0    0 -0.26519886871E+01  0.49429495425E+02  0.64330284613E+02  0.14911583573E+03  0.12508732503E+03 0.  0.
         23    2    1    2    0    0  0.26519886871E+01 -0.49429495425E+02  0.19585862914E+03  0.22142659435E+03  0.90657741062E+02 0.  0.
          5    1    3    3  502    0  0.28552456918E+02  0.77062470613E+02  0.13729622928E+02  0.83425668225E+02  0.41800000000E+01 0. -1.
         -5    1    3    3    0  502 -0.31204445605E+02 -0.27632975188E+02  0.50600661684E+02  0.65690167500E+02  0.41800000000E+01 0. -1.
        -11    1    4    4    0    0 -0.19100706776E+02 -0.33778827024E+02  0.19009580203E+03  0.19401613361E+03  0.00000000000E+00 0.  1.
         11    1    4    4    0    0  0.21752695463E+02 -0.15650668401E+02  0.57628271112E+01  0.27410460733E+02  0.00000000000E+00 0. -1.
</event>
<event>
 8    1  0.6906553E-009  0.9541756E+02  0.7561462E-02  0.1290238E+00
          2   -1    0    0  501    0  0.00000000000E+00  0.00000000000E+00  0.53377561816E+03  0.53377561816E+03  0.00000000000E+00 0. -1.
         -2   -1    0    0    0  501 -0.00000000000E+00 -0.00000000000E+00 -0.30670476655E+02  0.30670476655E+02  0.00000000000E+00 0.  1.
         25    2    1    2    0    0 -0.48420684899E+02 -0.21819465340E+02  0.18915683290E+03  0.23291407441E+03  0.12509199347E+03 0.  0.
         23    2    1    2    0    0  0.48420684899E+02  0.21819465340E+02  0.31394830861E+03  0.33153202041E+03  0.92354146008E+02 0.  0.
          5    1    3    3  502    0  0.34362747147E+02 -0.14470481603E+02  0.11667558730E+03  0.12255961121E+03  0.41800000000E+01 0. -1.
         -5    1    3    3    0  502 -0.82783432046E+02 -0.73489837378E+01  0.72481245601E+02  0.11035446320E+03  0.41800000000E+01 0. -1.
        -11    1    4    4    0    0  0.41781234132E+02  0.35544821860E+02  0.31125155846E+03  0.31604847497E+03  0.00000000000E+00 0. -1.
         11    1    4    4    0    0  0.66394507673E+01 -0.13725356519E+02  0.26967501500E+01  0.15483545442E+02  0.00000000000E+00 0.  1.
</event>
<event>
 8    1  0.6906553E-009  0.9122517E+02  0.7561462E-02  0.1299912E+00
          4   -1    0    0  501    0  0.00000000000E+00  0.00000000000E+00  0.10969303684E+03  0.10969303684E+03  0.00000000000E+00 0. -1.
         -4   -1    0    0    0  501 -0.00000000000E+00 -0.00000000000E+00 -0.11626418740E+03  0.11626418740E+03  0.00000000000E+00 0.  1.
         25    2    1    2    0    0  0.27105635169E+02 -0.63912311743E+01 -0.21854981371E+02  0.12999491602E+03  0.12508187194E+03 0.  0.
         23    2    1    2    0    0 -0.27105635169E+02  0.63912311743E+01  0.15283830816E+02  0.95962308214E+02  0.90551674858E+02 0.  0.
          5    1    3    3  502    0 -0.22315992320E+02  0.22449741056E+02  0.36271010020E+02  0.48322385646E+02  0.41800000000E+01 0. -1.
         -5    1    3    3    0  502  0.49421627488E+02 -0.28840972230E+02 -0.58125991391E+02  0.81672530376E+02  0.41800000000E+01 0. -1.
        -11    1    4    4    0    0  0.25854515791E+02  0.26006377636E+02 -0.24893507778E+01  0.36755741481E+02  0.00000000000E+00 0.  1.
         11    1    4    4    0    0 -0.52960150960E+02 -0.19615146462E+02  0.17773181594E+02  0.59206566733E+02  0.00000000000E+00 0. -1.
</event>
<event>
 8    1  0.6906553E-009  0.1142088E+03  0.7561462E-02  0.1252969E+00
         -1   -1    0    0    0  501 -0.00000000000E+00  0.00000000000E+00  0.27944205869E+02  0.27944205869E+02  0.00000000000E+00 0.  1.
          1   -1    0    0  501    0  0.00000000000E+00 -0.00000000000E+00 -0.73685976548E+03  0.73685976548E+03  0.00000000000E+00 0. -1.
         25    2    1    2    0    0  0.82961695549E+02 -0.19849338956E+02 -0.49119485125E+03  0.51400056670E+03  0.12509021339E+03 0.  0.
         23    2    1    2    0    0 -0.82961695549E+02  0.19849338956E+02 -0.21772070837E+03  0.25080340466E+03  0.90682973875E+02 0.  0.
          5    1    3    3  502    0  0.35575982141E+02  0.46615231176E+02 -0.11647506781E+03  0.13047047215E+03  0.41800000000E+01 0.  1.
         -5    1    3    3    0  502  0.47385713408E+02 -0.66464570132E+02 -0.37471978344E+03  0.38353009454E+03  0.41800000000E+01 0.  1.
        -11    1    4    4    0    0 -0.31200344005E+02  0.18172146419E+02 -0.11074918965E+02  0.37766945886E+02  0.00000000000E+00 0.  1.
         11    1    4    4    0    0 -0.51761351544E+02  0.16771925370E+01 -0.20664578940E+03  0.21303645877E+03  0.00000000000E+00 0. -1.
</event>
<event>
 8    1  0.6906553E-009  0.1097789E+03  0.7561462E-02  0.1260980E+00
          2   -1    0    0  501    0  0.00000000000E+00  0.00000000000E+00  0.12068314585E+03  0.12068314585E+03  0.00000000000E+00 0. -1.
         -2   -1    0    0    0  501 -0.00000000000E+00 -0.00000000000E+00 -0.14162115611E+03  0.14162115611E+03  0.00000000000E+00 0.  1.
         25    2    1    2    0    0 -0.56285831999E+02 -0.33107286451E+02 -0.42367532113E+02  0.14732995843E+03  0.12508765556E+03 0.  0.
         23    2    1    2    0    0  0.56285831999E+02  0.33107286451E+02  0.21429521852E+02  0.11497434354E+03  0.92172056313E+02 0.  0.
          5    1    3    3  502    0 -0.90298616148E+01  0.46722019031E+02 -0.87140820081E+01  0.48558141319E+02  0.41800000000E+01 0. -1.
         -5    1    3    3    0  502 -0.47255970384E+02 -0.79829305482E+02 -0.33653450105E+02  0.98771817107E+02  0.41800000000E+01 0. -1.
        -11    1    4    4    0    0  0.18356721022E+01  0.23576934739E+02 -0.30862887904E+02  0.38881350202E+02  0.00000000000E+00 0.  1.
         11    1    4    4    0    0  0.54450159896E+02  0.95303517116E+01  0.52292409757E+02  0.76092993335E+02  0.00000000000E+00 0. -1.
</event>
<event>
 8    1  0.6906553E-009  0.1902021E+03  0.7561462E-02  0.1158279E+00
         -3   -1    0    0    0  501 -0.00000000000E+00  0.00000000000E+00  0.44482479096E+02  0.44482479096E+02  0.00000000000E+00 0.  1.
          3   -1    0    0  501    0  0.00000000000E+00 -0.00000000000E+00 -0.86091243772E+03  0.86091243772E+03  0.00000000000E+00 0. -1.
         25    2    1    2    0    0  0.45295615533E+02  0.15542315420E+03 -0.44498456138E+03  0.48976072297E+03  0.12508499607E+03 0.  0.
         23    2    1    2    0    0 -0.45295615533E+02 -0.15542315420E+03 -0.37144539724E+03  0.41563419385E+03  0.92585367725E+02 0.  0.
          5    1    3    3  502    0 -0.33166419854E+02  0.44666565351E+01 -0.89404446774E+02  0.95554120421E+02  0.41800000000E+01 0. -1.
         -5    1    3    3    0  502  0.78462035387E+02  0.15095649767E+03 -0.35558011461E+03  0.39420660255E+03  0.41800000000E+01 0. -1.
        -11    1    4    4    0    0 -0.54636582395E+02 -0.62124925771E+02 -0.24233508658E+03  0.25606826576E+03  0.00000000000E+00 0. -1.
         11    1    4    4    0    0  0.93409668620E+01 -0.93298228431E+02 -0.12911031066E+03  0.15956592809E+03  0.00000000000E+00 0.  1.
</event>
<event>
 8    1  0.6906553E-009  0.1371745E+03  0.7561462E-02  0.1217182E+00
          1   -1    0    0  501    0  0.00000000000E+00  0.00000000000E+00  0.13411382417E+03  0.13411382417E+03  0.00000000000E+00 0. -1.
         -1   -1    0    0    0  501 -0.00000000000E+00 -0.00000000000E+00 -0.15946898916E+03  0.15946898916E+03  0.00000000000E+00 0.  1.
         25    2    1    2    0    0  0.33658753625E+01 -0.94091590188E+02  0.12108015138E+02  0.15703187808E+03  0.12509136757E+03 0.  0.
         23    2    1    2    0    0 -0.33658753625E+01  0.94091590188E+02 -0.37463180123E+02  0.13655093525E+03  0.91532024944E+02 0.  0.
          5    1    3    3  502    0 -0.33418248723E+02 -0.10102387498E+03 -0.19012927650E+02  0.10817377909E+03  0.41800000000E+01 0. -1.
         -5    1    3    3    0  502  0.36784124085E+02  0.69322847949E+01  0.31120942788E+02  0.48858098993E+02  0.41800000000E+01 0. -1.
        -11    1    4    4    0    0 -0.46609576172E+02  0.52334689692E+02 -0.29000072731E+02  0.75844423358E+02  0.00000000000E+00 0.  1.
         11    1    4    4    0    0  0.43243700810E+02  0.41756900496E+02 -0.84631073924E+01  0.60706511887E+02  0.00000000000E+00 0. -1.
</event>
<event>
 8    1  0.6906553E-009  0.2027333E+03  0.7561462E-02  0.1147453E+00
          1   -1    0    0  501    0  0.00000000000E+00  0.00000000000E+00  0.47538717167E+02  0.47538717167E+02  0.00000000000E+00 0. -1.
         -1   -1    0    0    0  501 -0.00000000000E+00 -0.00000000000E+00 -0.95897269441E+03  0.95897269441E+03  0.00000000000E+00 0.  1.
         25    2    1    2    0    0  0.99896653223E+02 -0.15190716894E+03 -0.51595192542E+03  0.56116507445E+03  0.12507886367E+03 0.  0.
         23    2    1    2    0    0 -0.99896653223E+02  0.15190716894E+03 -0.39548205182E+03  0.44534633713E+03  0.94192236290E+02 0.  0.
          5    1    3    3  502    0  0.96651557613E+02 -0.17186439965E+03 -0.43498118275E+03  0.47760338902E+03  0.41800000000E+01 0. -1.
         -5    1    3    3    0  502  0.32450956095E+01  0.19957230711E+02 -0.80970742673E+02  0.83561685432E+02  0.41800000000E+01 0. -1.
        -11    1    4    4    0    0 -0.90929324749E+02  0.10097556854E+03 -0.19085688342E+03  0.23428733959E+03  0.00000000000E+00 0. -1.
         11    1    4    4    0    0 -0.89673284738E+01  0.50931600402E+02 -0.20462516840E+03  0.21105899754E+03  0.00000000000E+00 0.  1.
</event>
<event>
 8    1  0.6906553E-009  0.1168941E+03  0.7561462E-02  0.1248310E+00
          1   -1    0    0  501    0  0.00000000000E+00  0.00000000000E+00  0.27663136178E+03  0.27663136178E+03  0.00000000000E+00 0. -1.
         -1   -1    0    0    0  501 -0.00000000000E+00 -0.00000000000E+00 -0.61721745481E+02  0.61721745481E+02  0.00000000000E+00 0.  1.
         25    2    1    2    0    0  0.43887604516E+02  0.50733103466E+02  0.15230490601E+03  0.20819248751E+03  0.12508939941E+03 0.  0.
         23    2    1    2    0    0 -0.43887604516E+02 -0.50733103466E+02  0.62604710295E+02  0.13016061975E+03  0.92317211643E+02 0.  0.
          5    1    3    3  502    0  0.69159559529E+02  0.72137217472E+02  0.14115228471E+03  0.17299786905E+03  0.41800000000E+01 0. -1.
         -5    1    3    3    0  502 -0.25271955013E+02 -0.21404114006E+02  0.11152621299E+02  0.35194618458E+02  0.41800000000E+01 0. -1.
        -11    1    4    4    0    0  0.47719720095E+01 -0.51499733788E+02  0.62977839894E+02  0.81493574070E+02  0.00000000000E+00 0. -1.
         11    1    4    4    0    0 -0.48659576526E+02  0.76663032143E+00 -0.37312959842E+00  0.48667045682E+02  0.00000000000E+00 0.  1.
</event>
<event>
 8    1  0.6906553E-009  0.1320190E+03  0.7561462E-02  0.1224490E+00
          2   -1    0    0  501    0  0.00000000000E+00  0.00000000000E+00  0.31837172867E+03  0.31837172867E+03  0.00000000000E+00 0. -1.
         -2   -1    0    0    0  501 -0.00000000000E+00 -0.00000000000E+00 -0.10830783444E+03  0.10830783444E+03  0.00000000000E+00 0.  1.
         25    2    1    2    0    0 -0.81715863982E+02 -0.48674817915E+02  0.24422216898E+03  0.29041488179E+03  0.12509842294E+03 0.  0.
         23    2    1    2    0    0  0.81715863982E+02  0.48674817915E+02 -0.34158274746E+02  0.13626468132E+03  0.91403256596E+02 0.  0.
          5    1    3    3  502    0 -0.90350546489E+02 -0.73158708290E+02  0.23557619667E+03  0.26273377150E+03  0.41800000000E+01 0.  1.
         -5    1    3    3    0  502  0.86346825068E+01  0.24483890375E+02  0.86459723080E+01  0.27681110292E+02  0.41800000000E+01 0.  1.
        -11    1    4    4    0    0  0.24848679244E+02  0.58630507960E+02  0.88266079236E+01  0.64287653024E+02  0.00000000000E+00 0. -1.
         11    1    4    4    0    0  0.56867184739E+02 -0.99556900454E+01 -0.42984882669E+02  0.71977028297E+02  0.00000000000E+00 0.  1.
</event>
<event>
 8    1  0.6906553E-009  0.2590730E+03  0.7561462E-02  0.1107701E+00
          2   -1    0    0  501    0  0.00000000000E+00  0.00000000000E+00  0.10215947866E+03  0.10215947866E+03  0.00000000000E+00 0.  1.
         -2   -1    0    0    0  501 -0.00000000000E+00 -0.00000000000E+00 -0.66636125218E+03  0.66636125218E+03  0.00000000000E+00 0. -1.
         25    2    1    2    0    0  0.12270796063E+03 -0.20240897815E+03 -0.30082379308E+03  0.40270060426E+03  0.12508470792E+03 0.  0.
         23    2    1    2    0    0 -0.12270796063E+03  0.20240897815E+03 -0.26337798045E+03  0.36582012658E+03  0.91813759240E+02 0.  0.
          5    1    3    3  502    0  0.14177505721E+03 -0.20292301384E+03 -0.28537339389E+03  0.37780069181E+03  0.41800000000E+01 0. -1.
         -5    1    3    3    0  502 -0.19067096586E+02  0.51403569233E+00 -0.15450399186E+02  0.24899912448E+02  0.41800000000E+01 0. -1.
        -11    1    4    4    0    0 -0.11402771527E+02  0.97247029207E+02 -0.76730056034E+02  0.12439658109E+03  0.00000000000E+00 0.  1.
         11    1    4    4    0    0 -0.11130518910E+03  0.10516194894E+03 -0.18664792442E+03  0.24142354549E+03  0.00000000000E+00 0. -1.
</event>
<event>
 8    1  0.6906553E-009  0.2909178E+03  0.7561462E-02  0.1089871E+00
         -4   -1    0    0    0  501 -0.00000000000E+00  0.00000000000E+00  0.11293763461E+04  0.11293763461E+04  0.00000000000E+00 0.  1.
          4   -1    0    0  501    0  0.00000000000E+00 -0.00000000000E+00 -0.90846396610E+02  0.90846396610E+02  0.00000000000E+00 0. -1.
         25    2    1    2    0    0  0.26824223918E+03 -0.98521152261E+02  0.35000237811E+03  0.46883880319E+03  0.12509133610E+03 0.  0.
         23    2    1    2    0    0 -0.26824223918E+03  0.98521152261E+02  0.68852757136E+03  0.75138393950E+03  0.94060043055E+02 0.  0.
          5    1    3    3  502    0  0.20439018760E+03 -0.38600214681E+02  0.17016718359E+03  0.26877438146E+03  0.41800000000E+01 0. -1.
         -5    1    3    3    0  502  0.63852051582E+02 -0.59920937580E+02  0.17983519452E+03  0.20006442172E+03  0.41800000000E+01 0. -1.
        -11    1    4    4    0    0 -0.12485813333E+03  0.53524819650E+02  0.44449828570E+03  0.46479370238E+03  0.00000000000E+00 0.  1.
         11    1    4    4    0    0 -0.14338410585E+03  0.44996332611E+02  0.24402928566E+03  0.28659023713E+03  0.00000000000E+00 0. -1.
</event>
<event>
 8    1  0.6906553E-009  0.1324124E+03  0.7561462E-02  0.1223920E+00
         -2   -1    0    0    0  501 -0.00000000000E+00  0.00000000000E+00  0.93068272787E+02  0.93068272787E+02  0.00000000000E+00 0.  1.
          2   -1    0    0  501    0  0.00000000000E+00 -0.00000000000E+00 -0.28065185858E+03  0.28065185858E+03  0.00000000000E+00 0. -1.
         25    2    1    2    0    0 -0.63113212069E+02 -0.45539439982E+02  0.53346001208E+01  0.14742162834E+03  0.12509020910E+03 0.  0.
         23    2    1    2    0    0  0.63113212069E+02  0.45539439982E+02 -0.19291818592E+03  0.22629850303E+03  0.89086855842E+02 0.  0.
          5    1    3    3  502    0 -0.96952258321E+02 -0.10344309515E+02 -0.33780451547E+01  0.97650543889E+02  0.41800000000E+01 0. -1.
         -5    1    3    3    0  502  0.33839046252E+02 -0.35195130467E+02  0.87126452754E+01  0.49771084452E+02  0.41800000000E+01 0. -1.
        -11    1    4    4    0    0  0.47190464756E+02  0.72742979164E+02 -0.14473851041E+03  0.16872379020E+03  0.00000000000E+00 0. -1.
         11    1    4    4    0    0  0.15922747313E+02 -0.27203539182E+02 -0.48179675500E+02  0.57574712829E+02  0.00000000000E+00 0.  1.
</event>
<event>
 8    1  0.6906553E-009  0.1013444E+03  0.7561462E-02  0.1277494E+00
         -1   -1    0    0    0  501 -0.00000000000E+00  0.00000000000E+00  0.21698246868E+02  0.21698246868E+02  0.00000000000E+00 0. -1.
          1   -1    0    0  501    0  0.00000000000E+00 -0.00000000000E+00 -0.81051670509E+03  0.81051670509E+03  0.00000000000E+00 0.  1.
         25    2    1    2    0    0 -0.55434825012E+02  0.51431238964E+02 -0.38163910763E+03  0.40867304030E+03  0.12508818183E+03 0.  0.
         23    2    1    2    0    0  0.55434825012E+02 -0.51431238964E+02 -0.40717935059E+03  0.42354191165E+03  0.88738577932E+02 0.  0.
          5    1    3    3  502    0 -0.71542908513E+02  0.25079868596E+02 -0.36601972540E+03  0.37381185020E+03  0.41800000000E+01 0.  1.
         -5    1    3    3    0  502  0.16108083501E+02  0.26351370368E+02 -0.15619382234E+02  0.34861190108E+02  0.41800000000E+01 0.  1.
        -11    1    4    4    0    0 -0.64990902793E+01 -0.29008915911E+02 -0.36589125693E+02  0.47143605035E+02  0.00000000000E+00 0. -1.
         11    1    4    4    0    0  0.61933915291E+02 -0.22422323054E+02 -0.37059022490E+03  0.37639830662E+03  0.00000000000E+00 0.  1.
</event>
<event>
 8    1  0.6906553E-009  0.1053748E+03  0.7561462E-02  0.1269383E+00
          2   -1    0    0  501    0  0.00000000000E+00  0.00000000000E+00  0.85634232655E+02  0.85634232655E+02  0.00000000000E+00 0. -1.
         -2   -1    0    0    0  501 -0.00000000000E+00 -0.00000000000E+00 -0.38608967980E+03  0.38608967980E+03  0.00000000000E+00 0.  1.
         25    2    1    2    0    0 -0.38753976338E+02 -0.50537945179E+02 -0.32393833824E+03  0.35304100008E+03  0.12508375663E+03 0.  0.
         23    2    1    2    0    0  0.38753976338E+02  0.50537945179E+02  0.23482891095E+02  0.11868291237E+03  0.97356216700E+02 0.  0.
          5    1    3    3  502    0 -0.51228902677E+02 -0.85102914404E+02 -0.19470008056E+03  0.21861495896E+03  0.41800000000E+01 0. -1.
         -5    1    3    3    0  502  0.12474926338E+02  0.34564969225E+02 -0.12923825767E+03  0.13442604112E+03  0.41800000000E+01 0. -1.
        -11    1    4    4    0    0  0.13507939634E+02  0.46938797004E+02 -0.31468102344E+02  0.58102982389E+02  0.00000000000E+00 0.  1.
         11    1    4    4    0    0  0.25246036704E+02  0.35991481749E+01  0.54950993439E+02  0.60579929984E+02  0.00000000000E+00 0. -1.
</event>
<event>
 8    1  0.6906553E-009  0.1515057E+03  0.7561462E-02  0.1198635E+00
          2   -1    0    0  501    0  0.00000000000E+00  0.00000000000E+00  0.11337885117E+03  0.11337885117E+03  0.00000000000E+00 0. -1.
         -2   -1    0    0    0  501 -0.00000000000E+00 -0.00000000000E+00 -0.22673659925E+03  0.22673659925E+03  0.00000000000E+00 0.  1.
         25    2    1    2    0    0 -0.82052027902E+02 -0.82790944204E+02 -0.39913141985E+02  0.17557716761E+03  0.12508959652E+03 0.  0.
         23    2    1    2    0    0  0.82052027902E+02  0.82790944204E+02 -0.73444606094E+02  0.16453828281E+03  0.89954769864E+02 0.  0.
          5    1    3    3  502    0 -0.42446517087E+02  0.26836050139E+02 -0.29702271964E+02  0.58494254074E+02  0.41800000000E+01 0.  1.
         -5    1    3    3    0  502 -0.39605510815E+02 -0.10962699434E+03 -0.10210870021E+02  0.11708291354E+03  0.41800000000E+01 0.  1.
        -11    1    4    4    0    0  0.50536770031E+02  0.34997203337E+01 -0.59396066360E+02  0.78064754318E+02  0.00000000000E+00 0.  1.
         11    1    4    4    0    0  0.31515257871E+02  0.79291223871E+02 -0.14048539733E+02  0.86473528494E+02  0.00000000000E+00 0. -1.
</event>
<event>
 8    1  0.6906553E-009  0.7462338E+02  0.7561462E-02  0.1345041E+00
         -2   -1    0    0    0  501 -0.00000000000E+00  0.00000000000E+00  0.23499354925E+02  0.23499354925E+02  0.00000000000E+00 0.  1.
          2   -1    0    0  501    0  0.00000000000E+00 -0.00000000000E+00 -0.48766138560E+03  0.48766138560E+03  0.00000000000E+00 0. -1.
         25    2    1    2    0    0  0.39509558765E+01  0.10276701333E+02 -0.24080313950E+03  0.27157835348E+03  0.12508968559E+03 0.  0.
         23    2    1    2    0    0 -0.39509558765E+01 -0.10276701333E+02 -0.22335889117E+03  0.23958238705E+03  0.85961068364E+02 0.  0.
          5    1    3    3  502    0 -0.27838830111E+02 -0.30619092968E+01 -0.23459835301E+03  0.23630115401E+03  0.41800000000E+01 0.  1.
         -5    1    3    3    0  502  0.31789785987E+02  0.13338610630E+02 -0.62047864855E+01  0.35277199463E+02  0.41800000000E+01 0.  1.
        -11    1    4    4    0    0  0.18022165157E+02  0.33037654961E+02 -0.85425597924E+02  0.93347832664E+02  0.00000000000E+00 0.  1.
         11    1    4    4    0    0 -0.21973121034E+02 -0.43314356294E+02 -0.13793329325E+03  0.14623455438E+03  0.00000000000E+00 0. -1.
</event>
<event>
 8    1  0.6906553E-009  0.1419246E+03  0.7561462E-02  0.1210762E+00
         -1   -1    0    0    0  501 -0.00000000000E+00  0.00000000000E+00  0.77717608338E+02  0.77717608338E+02  0.00000000000E+00 0.  1.
          1   -1    0    0  501    0  0.00000000000E+00 -0.00000000000E+00 -0.29155664593E+03  0.29155664593E+03  0.00000000000E+00 0. -1.
         25    2    1    2    0    0  0.66280759797E+02 -0.74131732948E+02 -0.79799990780E+02  0.17861813285E+03  0.12509095053E+03 0.  0.
         23    2    1    2    0    0 -0.66280759797E+02  0.74131732948E+02 -0.13403904681E+03  0.19065612142E+03  0.92166358379E+02 0.  0.
          5    1    3    3  502    0  0.71892338583E+02 -0.10016114856E+03 -0.86716654132E+02  0.15079129462E+03  0.41800000000E+01 0.  1.
         -5    1    3    3    0  502 -0.56115787855E+01  0.26029415617E+02  0.69166633518E+01  0.27826838227E+02  0.41800000000E+01 0.  1.
        -11    1    4    4    0    0 -0.87023166933E+02  0.71491787914E+02 -0.12383503782E+03  0.16738943788E+03  0.00000000000E+00 0. -1.
         11    1    4    4    0    0  0.20742407135E+02  0.26399450343E+01 -0.10204008990E+02  0.23266683541E+02  0.00000000000E+00 0.  1.
</event>
<event>
 8    1  0.6906553E-009  0.1414499E+03  0.7561462E-02  0.1211391E+00
         -1   -1    0    0    0  501 -0.00000000000E+00  0.00000000000E+00  0.93573881187E+02  0.93573881187E+02  0.00000000000E+00 0.  1.
          1   -1    0    0  501    0  0.00000000000E+00 -0.00000000000E+00 -0.33210978022E+03  0.33210978022E+03  0.00000000000E+00 0. -1.
         25    2    1    2    0    0 -0.10895324576E+03  0.38554231055E+02 -0.21513795941E+03  0.27439028047E+03  0.12509374863E+03 0.  0.
         23    2    1    2    0    0  0.10895324576E+03 -0.38554231055E+02 -0.23397939627E+02  0.15129338094E+03  0.94789161003E+02 0.  0.
          5    1    3    3  502    0 -0.35247380686E+02 -0.21227833999E+02 -0.15846911674E+03  0.16377708064E+03  0.41800000000E+01 0. -1.
         -5    1    3    3    0  502 -0.73705865070E+02  0.59782065055E+02 -0.56668842666E+02  0.11061319983E+03  0.41800000000E+01 0. -1.
        -11    1    4    4    0    0 -0.13797452041E+02 -0.17040258265E+02  0.70032090614E+01  0.23017059364E+02  0.00000000000E+00 0.  1.
         11    1    4    4    0    0  0.12275069780E+03 -0.21513972790E+02 -0.30401148689E+02  0.12827632157E+03  0.00000000000E+00 0. -1.
</event>
<event>
 8    1  0.6906553E-009  0.1270393E+03  0.7561462E-02  0.1231916E+00
         -3   -1    0    0    0  501 -0.00000000000E+00  0.00000000000E+00  0.43869307119E+03  0.43869307119E+03  0.00000000000E+00 0.  1.
          3   -1    0    0  501    0  0.00000000000E+00 -0.00000000000E+00 -0.53648193059E+02  0.53648193059E+02  0.00000000000E+00 0. -1.
         25    2    1    2    0    0  0.18216903982E+02 -0.10615709795E+03  0.21569172817E+03  0.27160977411E+03  0.12509101788E+03 0.  0.
         23    2    1    2    0    0 -0.18216903982E+02  0.10615709795E+03  0.16935314996E+03  0.22073149014E+03  0.91873371021E+02 0.  0.
          5    1    3    3  502    0  0.30938393525E+02  0.73295118008E+01  0.57461299206E+01  0.32579078352E+02  0.41800000000E+01 0. -1.
         -5    1    3    3    0  502 -0.12721489543E+02 -0.11348660975E+03  0.20994559825E+03  0.23903069576E+03  0.41800000000E+01 0. -1.
        -11    1    4    4    0    0 -0.12535554736E+02  0.79329878137E+02  0.17516548253E+03  0.19270006738E+03  0.00000000000E+00 0.  1.
         11    1    4    4    0    0 -0.56813492457E+01  0.26827219813E+02 -0.58123325712E+01  0.28031422762E+02  0.00000000000E+00 0. -1.
</event>
<event>
 8    1  0.6906553E-009  0.1134461E+03  0.7561462E-02  0.1254318E+00
         -1   -1    0    0    0  501 -0.00000000000E+00  0.00000000000E+00  0.11026113411E+03  0.11026113411E+03  0.00000000000E+00 0.  1.
          1   -1    0    0  501    0  0.00000000000E+00 -0.00000000000E+00 -0.13324557347E+03  0.13324557347E+03  0.00000000000E+00 0. -1.
         25    2    1    2    0    0  0.49000197308E+02  0.66042730433E+00 -0.31750492878E+02  0.13804577869E+03  0.12508831966E+03 0.  0.
         23    2    1    2    0    0 -0.49000197308E+02 -0.66042730433E+00  0.87660535178E+01  0.10546092889E+03  0.92971545800E+02 0.  0.
          5    1    3    3  502    0  0.24963507787E+02  0.59727592081E+02  0.36806265901E+01  0.64973697670E+02  0.41800000000E+01 0.  1.
         -5    1    3    3    0  502  0.24036689522E+02 -0.59067164777E+02 -0.35431119468E+02  0.73072081021E+02  0.41800000000E+01 0.  1.
        -11    1    4    4    0    0  0.90586860020E-03  0.36573076031E+02 -0.14945321678E+02  0.39508891800E+02  0.00000000000E+00 0. -1.
         11    1    4    4    0    0 -0.49001103177E+02 -0.37233503336E+02  0.23711375196E+02  0.65952037094E+02  0.00000000000E+00 0.  1.
</event>
<event>
 8    1  0.6906553E-009  0.1458251E+03  0.7561462E-02  0.1205699E+00
         -2   -1    0    0    0  501 -0.00000000000E+00  0.00000000000E+00  0.57562455292E+02  0.57562455292E+02  0.00000000000E+00 0.  1.
          2   -1    0    0  501    0  0.00000000000E+00 -0.00000000000E+00 -0.76544455534E+03  0.76544455534E+03  0.00000000000E+00 0. -1.
         25    2    1    2    0    0  0.11878916026E+03 -0.43688770746E+02 -0.62694252619E+03  0.65170889034E+03  0.12509185952E+03 0.  0.
         23    2    1    2    0    0 -0.11878916026E+03  0.43688770746E+02 -0.80939573859E+02  0.17129812029E+03  0.82293730704E+02 0.  0.
          5    1    3    3  502    0  0.47292315225E+02 -0.60330516194E+02 -0.49273529335E+03  0.49868013393E+03  0.41800000000E+01 0.  1.
         -5    1    3    3    0  502  0.71496845039E+02  0.16641745448E+02 -0.13420723284E+03  0.15302875641E+03  0.41800000000E+01 0.  1.
        -11    1    4    4    0    0 -0.16577815436E+02  0.35054278209E+02  0.28062667110E+01  0.38878033878E+02  0.00000000000E+00 0.  1.
         11    1    4    4    0    0 -0.10221134483E+03  0.86344925378E+01 -0.83745840570E+02  0.13242008641E+03  0.00000000000E+00 0. -1.
</event>
<event>
 8    1  0.6906553E-009  0.1485010E+03  0.7561462E-02  0.1202327E+00
          1   -1    0    0  501    0  0.00000000000E+00  0.00000000000E+00  0.55148147534E+03  0.55148147534E+03  0.00000000000E+00 0. -1.
         -1   -1    0    0    0  501 -0.00000000000E+00 -0.00000000000E+00 -0.56106271373E+02  0.56106271373E+02  0.00000000000E+00 0.  1.
         25    2    1    2    0    0 -0.23867559902E+02 -0.12395464413E+03  0.16609971675E+03  0.24325184509E+03  0.12509168645E+03 0.  0.
         23    2    1    2    0    0  0.23867559902E+02  0.12395464413E+03  0.32927548722E+03  0.36433590162E+03  0.91563576316E+02 0.  0.
          5    1    3    3  502    0  0.45996672681E+02 -0.38982815381E+02  0.27903975317E+02  0.66569197316E+02  0.41800000000E+01 0. -1.
         -5    1    3    3    0  502 -0.69864232583E+02 -0.84971828754E+02  0.13819574143E+03  0.17668264778E+03  0.41800000000E+01 0. -1.
        -11    1    4    4    0    0  0.17033045328E+02  0.67689353924E+02  0.69687406705E+02  0.98632185017E+02  0.00000000000E+00 0.  1.
         11    1    4    4    0    0  0.68345145732E+01  0.56265290210E+02  0.25958808052E+03  0.26570371661E+03  0.00000000000E+00 0. -1.
</event>
<event>
 8    1  0.6906553E-009  0.8581137E+02  0.7561462E-02  0.1313324E+00
          2   -1    0    0  501    0  0.00000000000E+00  0.00000000000E+00  0.20856421253E+03  0.20856421253E+03  0.00000000000E+00 0. -1.
         -2   -1    0    0    0  501 -0.00000000000E+00 -0.00000000000E+00 -0.93372293878E+02  0.93372293878E+02  0.00000000000E+00 0.  1.
         25    2    1    2    0    0  0.48664856164E+02  0.40334516449E+02  0.12482258834E+03  0.18767719344E+03  0.12508760504E+03 0.  0.
         23    2    1    2    0    0 -0.48664856164E+02 -0.40334516449E+02 -0.96306696888E+01  0.11425931297E+03  0.94695825452E+02 0.  0.
          5    1    3    3  502    0  0.49917964988E+01 -0.17029774299E+01 -0.25059363864E+02  0.25947298158E+02  0.41800000000E+01 0.  1.
         -5    1    3    3    0  502  0.43673059665E+02  0.42037493879E+02  0.14988195220E+03  0.16172989528E+03  0.41800000000E+01 0.  1.
        -11    1    4    4    0    0 -0.67224308737E+01 -0.58167954737E+02  0.17631008287E+02  0.61151896850E+02  0.00000000000E+00 0. -1.
         11    1    4    4    0    0 -0.41942425290E+02  0.17833438288E+02 -0.27261677976E+02  0.53107416115E+02  0.00000000000E+00 0.  1.
</event>
<event>
 8    1  0.6906553E-009  0.1288350E+03  0.7561462E-02  0.1229195E+00
         -2   -1    0    0    0  501 -0.00000000000E+00  0.00000000000E+00  0.21563661510E+02  0.21563661510E+02  0.00000000000E+00 0.  1.
          2   -1    0    0  501    0  0.00000000000E+00 -0.00000000000E+00 -0.87722898345E+03  0.87722898345E+03  0.00000000000E+00 0. -1.
         25    2    1    2    0    0  0.63730423519E+02 -0.50972726835E+02 -0.39309238559E+03  0.42050984052E+03  0.12508843512E+03 0.  0.
         23    2    1    2    0    0 -0.63730423519E+02  0.50972726835E+02 -0.46257293635E+03  0.47828280444E+03  0.90116223939E+02 0.  0.
          5    1    3    3  502    0  0.73420298840E+02  0.19239958654E+02 -0.16599432405E+03  0.18257136771E+03  0.41800000000E+01 0. -1.
         -5    1    3    3    0  502 -0.96898753210E+01 -0.70212685489E+02 -0.22709806154E+03  0.23793847281E+03  0.41800000000E+01 0. -1.
        -11    1    4    4    0    0  0.16731278510E+02  0.15177323795E+02 -0.34446380635E+02  0.41192717524E+02  0.00000000000E+00 0.  1.
         11    1    4    4    0    0 -0.80461702029E+02  0.35795403040E+02 -0.42812655571E+03  0.43709008691E+03  0.00000000000E+00 0. -1.
</event>
<event>
 8    1  0.6906553E-009  0.8326890E+02  0.7561462E-02  0.1320023E+00
         -1   -1    0    0    0  501 -0.00000000000E+00  0.00000000000E+00  0.17789185696E+03  0.17789185696E+03  0.00000000000E+00 0.  1.
          1   -1    0    0  501    0  0.00000000000E+00 -0.00000000000E+00 -0.77779539798E+02  0.77779539798E+02  0.00000000000E+00 0. -1.
         25    2    1    2    0    0  0.43954962335E+02 -0.94401201016E+01  0.83484964276E+02  0.15696976809E+03  0.12509442135E+03 0.  0.
         23    2    1    2    0    0 -0.43954962335E+02  0.94401201016E+01  0.16627352887E+02  0.98701628667E+02  0.86280867266E+02 0.  0.
          5    1    3    3  502    0 -0.27723578157E+01 -0.54254155202E+02  0.43784652098E+01  0.54661162466E+02  0.41800000000E+01 0.  1.
         -5    1    3    3    0  502  0.46727320151E+02  0.44814035100E+02  0.79106499066E+02  0.10230860563E+03  0.41800000000E+01 0.  1.
        -11    1    4    4    0    0 -0.18444201835E+02 -0.31732048980E+01  0.50854431865E+02  0.54188846187E+02  0.00000000000E+00 0.  1.
         11    1    4    4    0    0 -0.25510760500E+02  0.12613325000E+02 -0.34227078978E+02  0.44512782481E+02  0.00000000000E+00 0. -1.
</event>
<event>
 8    1  0.6906553E-009  0.1133095E+03  0.7561462E-02  0.1254561E+00
         -2   -1    0    0    0  501 -0.00000000000E+00  0.00000000000E+00  0.18046421263E+02  0.18046421263E+02  0.00000000000E+00 0.  1.
          2   -1    0    0  501    0  0.00000000000E+00 -0.00000000000E+00 -0.13007629901E+04  0.13007629901E+04  0.00000000000E+00 0. -1.
         25    2    1    2    0    0 -0.21318734610E+02 -0.22685256220E+02 -0.11273283000E+04  0.11346744039E+04  0.12509115758E+03 0.  0.
         23    2    1    2    0    0  0.21318734610E+02  0.22685256220E+02 -0.15538826883E+03  0.18413500741E+03  0.93760746410E+02 0.  0.
          5    1    3    3  502    0 -0.66493721466E+01  0.51760398112E+02 -0.51274479224E+03  0.51541056192E+03  0.41800000000E+01 0.  1.
         -5    1    3    3    0  502 -0.14669362463E+02 -0.74445654332E+02 -0.61458350775E+03  0.61926384203E+03  0.41800000000E+01 0.  1.
        -11    1    4    4    0    0  0.16512817908E+02 -0.35887551890E+02 -0.71873218148E+02  0.82014322060E+02  0.00000000000E+00 0. -1.
         11    1    4    4    0    0  0.48059167020E+01  0.58572808110E+02 -0.83515050686E+02  0.10212068535E+03  0.00000000000E+00 0.  1.
</event>
<event>
 8    1  0.6906553E-009  0.1394597E+03  0.7561462E-02  0.1214058E+00
         -2   -1    0    0    0  501 -0.00000000000E+00  0.00000000000E+00  0.29682206709E+02  0.29682206709E+02  0.00000000000E+00 0.  1.
          2   -1    0    0  501    0  0.00000000000E+00 -0.00000000000E+00 -0.83048992527E+03  0.83048992527E+03  0.00000000000E+00 0. -1.
         25    2    1    2    0    0 -0.32962894584E+02  0.10734043733E+03 -0.40467829613E+03  0.43820178959E+03  0.12509101943E+03 0.  0.
         23    2    1    2    0    0  0.32962894584E+02 -0.10734043733E+03 -0.39612942243E+03  0.42197034238E+03  0.92368439577E+02 0.  0.
          5    1    3    3  502    0  0.20508963969E+01  0.12318812828E+03 -0.35124144788E+03  0.37224662287E+03  0.41800000000E+01 0. -1.
         -5    1    3    3    0  502 -0.35013790981E+02 -0.15847690956E+02 -0.53436848243E+02  0.65955166724E+02  0.41800000000E+01 0. -1.
        -11    1    4    4    0    0  0.93533474445E+00 -0.58930672119E+02 -0.73752223191E+02  0.94409159477E+02  0.00000000000E+00 0.  1.
         11    1    4    4    0    0  0.32027559839E+02 -0.48409765209E+02 -0.32237719924E+03  0.32756118291E+03  0.00000000000E+00 0. -1.
</event>
<event>
 8    1  0.6906553E-009  0.1089249E+03  0.7561462E-02  0.1262574E+00
          2   -1    0    0  501    0  0.00000000000E+00  0.00000000000E+00  0.20552384462E+03  0.20552384462E+03  0.00000000000E+00 0. -1.
         -2   -1    0    0    0  501 -0.00000000000E+00 -0.00000000000E+00 -0.11218883922E+03  0.11218883922E+03  0.00000000000E+00 0.  1.
         25    2    1    2    0    0  0.64169009279E+02 -0.72272703108E+02  0.47224836772E+01  0.15815438202E+03  0.12509796695E+03 0.  0.
         23    2    1    2    0    0 -0.64169009279E+02  0.72272703108E+02  0.88612521720E+02  0.15955830182E+03  0.90915715409E+02 0.  0.
          5    1    3    3  502    0  0.53197435762E+02 -0.87185683933E+02  0.46476326224E+02  0.11228905536E+03  0.41800000000E+01 0.  1.
         -5    1    3    3    0  502  0.10971573517E+02  0.14912980824E+02 -0.41753842547E+02  0.45865326663E+02  0.41800000000E+01 0.  1.
        -11    1    4    4    0    0 -0.18154694555E+02  0.20820938019E+02  0.86169321834E+02  0.90488985074E+02  0.00000000000E+00 0. -1.
         11    1    4    4    0    0 -0.46014314724E+02  0.51451765089E+02  0.24431998855E+01  0.69069316747E+02  0.00000000000E+00 0.  1.
</event>
<event>
 8    1  0.6906553E-009  0.8356460E+02  0.7561462E-02  0.1319230E+00
          2   -1    0    0  501    0  0.00000000000E+00  0.00000000000E+00  0.37512993449E+03  0.37512993449E+03  0.00000000000E+00 0. -1.
         -2   -1    0    0    0  501 -0.00000000000E+00 -0.00000000000E+00 -0.36727870939E+02  0.36727870939E+02  0.00000000000E+00 0.  1.
         25    2    1    2    0    0  0.89803036340E+01  0.45494976594E+02  0.17849286748E+03  0.22283917559E+03  0.12508859136E+03 0.  0.
         23    2    1    2    0    0 -0.89803036340E+01 -0.45494976594E+02  0.15990919607E+03  0.18901862984E+03  0.89479901035E+02 0.  0.
          5    1    3    3  502    0 -0.20359983674E+02  0.13239687019E+02  0.17731580501E+03  0.17902006970E+03  0.41800000000E+01 0. -1.
         -5    1    3    3    0  502  0.29340287308E+02  0.32255289575E+02  0.11770624630E+01  0.43819105889E+02  0.41800000000E+01 0. -1.
        -11    1    4    4    0    0 -0.10683298324E+02 -0.71665170043E+02  0.98814598151E+02  0.12253307418E+03  0.00000000000E+00 0. -1.
         11    1    4    4    0    0  0.17029946903E+01  0.26170193449E+02  0.61094597924E+02  0.66485555661E+02  0.00000000000E+00 0.  1.
</event>
<event>
 8    1  0.6906553E-009  0.9403309E+02  0.7561462E-02  0.1293369E+00
         -3   -1    0    0    0  501 -0.00000000000E+00  0.00000000000E+00  0.35637514105E+02  0.35637514105E+02  0.00000000000E+00 0.  1.
          3   -1    0    0  501    0  0.00000000000E+00 -0.00000000000E+00 -0.41695398214E+03  0.41695398214E+03  0.00000000000E+00 0. -1.
         25    2    1    2    0    0  0.15094920419E+01  0.41652234733E+02 -0.26432899203E+03  0.29538070047E+03  0.12507099967E+03 0.  0.
         23    2    1    2    0    0 -0.15094920419E+01 -0.41652234733E+02 -0.11698747600E+03  0.15721079577E+03  0.96394904124E+02 0.  0.
          5    1    3    3  502    0 -0.31673008733E+02  0.39806886770E+02 -0.25576405394E+03  0.26080738372E+03  0.41800000000E+01 0.  1.
         -5    1    3    3    0  502  0.33182500775E+02  0.18453479630E+01 -0.85649380973E+01  0.34573316754E+02  0.41800000000E+01 0.  1.
        -11    1    4    4    0    0 -0.30157072808E+02 -0.61623685750E+02 -0.89489650020E+02  0.11276225054E+03  0.00000000000E+00 0.  1.
         11    1    4    4    0    0  0.28647580767E+02  0.19971451016E+02 -0.27497825978E+02  0.44448545229E+02  0.00000000000E+00 0. -1.
</event>
<event>
 8    1  0.6906553E-009  0.1108221E+03  0.7561462E-02  0.1259055E+00
         -1   -1    0    0    0  501 -0.00000000000E+00  0.00000000000E+00  0.33925043211E+03  0.33925043211E+03  0.00000000000E+00 0.  1.
          1   -1    0    0  501    0  0.00000000000E+00 -0.00000000000E+00 -0.42688228227E+02  0.42688228227E+02  0.00000000000E+00 0. -1.
         25    2    1    2    0    0 -0.25859951999E+02  0.43367787881E+02  0.14175911033E+03  0.19569405755E+03  0.12510402334E+03 0.  0.
         23    2    1    2    0    0  0.25859951999E+02 -0.43367787881E+02  0.15480309356E+03  0.18624460279E+03  0.90407699615E+02 0.  0.
          5    1    3    3  502    0  0.17613321533E+02 -0.30103261988E+02  0.87923707885E+02  0.94680971088E+02  0.41800000000E+01 0.  1.
         -5    1    3    3    0  502 -0.43473273532E+02  0.73471049870E+02  0.53835402440E+02  0.10101308646E+03  0.41800000000E+01 0.  1.
        -11    1    4    4    0    0  0.23923390507E+02 -0.70189229285E+02  0.12999416311E+03  0.14965740531E+03  0.00000000000E+00 0.  1.
         11    1    4    4    0    0  0.19365614921E+01  0.26821441404E+02  0.24808930443E+02  0.36587197476E+02  0.00000000000E+00 0. -1.
</event>
<event>
 8    1  0.6906553E-009  0.1065541E+03  0.7561462E-02  0.1267088E+00
          2   -1    0    0  501    0  0.00000000000E+00  0.00000000000E+00  0.94618311917E+02  0.94618311917E+02  0.00000000000E+00 0. -1.
         -2   -1    0    0    0  501 -0.00000000000E+00 -0.00000000000E+00 -0.14409171501E+03  0.14409171501E+03  0.00000000000E+00 0.  1.
         25    2    1    2    0    0 -0.41514404326E+02 -0.29174110903E+01 -0.38158007146E+02  0.13724366213E+03  0.12509129559E+03 0.  0.
         23    2    1    2    0    0  0.41514404326E+02  0.29174110903E+01 -0.11315395945E+02  0.10146636479E+03  0.91844585824E+02 0.  0.
          5    1    3    3  502    0  0.47770932173E+01  0.48850982810E+02  0.12927730010E+02  0.50929733401E+02  0.41800000000E+01 0. -1.
         -5    1    3    3    0  502 -0.46291497544E+02 -0.51768393900E+02 -0.51085737156E+02  0.86313928729E+02  0.41800000000E+01 0. -1.
        -11    1    4    4    0    0  0.41273935679E+02  0.39831363485E+02  0.10895465267E+02  0.58384813496E+02  0.00000000000E+00 0.  1.
         11    1    4    4    0    0  0.24046864689E+00 -0.36913952395E+02 -0.22210861213E+02  0.43081551299E+02  0.00000000000E+00 0. -1.
</event>
<event>
 8    1  0.6906553E-009  0.1039875E+03  0.7561462E-02  0.1272127E+00
          1   -1    0    0  501    0  0.00000000000E+00  0.00000000000E+00  0.44227700398E+02  0.44227700398E+02  0.00000000000E+00 0. -1.
         -1   -1    0    0    0  501 -0.00000000000E+00 -0.00000000000E+00 -0.29072041526E+03  0.29072041526E+03  0.00000000000E+00 0.  1.
         25    2    1    2    0    0  0.13309963554E+01 -0.28001757598E+02 -0.15352940492E+03  0.20001103641E+03  0.12508903442E+03 0.  0.
         23    2    1    2    0    0 -0.13309963554E+01  0.28001757598E+02 -0.92963309945E+02  0.13493707925E+03  0.93701485478E+02 0.  0.
          5    1    3    3  502    0  0.43861235821E+02 -0.47713172249E+02 -0.13428702925E+03  0.14916713257E+03  0.41800000000E+01 0.  1.
         -5    1    3    3    0  502 -0.42530239465E+02  0.19711414651E+02 -0.19242375668E+02  0.50843903842E+02  0.41800000000E+01 0.  1.
        -11    1    4    4    0    0 -0.36147365221E+02  0.44590635673E+02 -0.42493841182E+02  0.71419068466E+02  0.00000000000E+00 0. -1.
         11    1    4    4    0    0  0.34816368866E+02 -0.16588878075E+02 -0.50469468763E+02  0.63518010784E+02  0.00000000000E+00 0.  1.
</event>
<event>
 8    1  0.6906553E-009  0.2923770E+03  0.7561462E-02  0.1089115E+00
         -1   -1    0    0    0  501 -0.00000000000E+00  0.00000000000E+00  0.11768170979E+03  0.11768170979E+03  0.00000000000E+00 0.  1.
          1   -1    0    0  501    0  0.00000000000E+00 -0.00000000000E+00 -0.92019134887E+03  0.92019134887E+03  0.00000000000E+00 0. -1.
         25    2    1    2    0    0  0.16408430416E+03 -0.22070946724E+03 -0.18132794666E+03  0.35236872581E+03  0.12509023498E+03 0.  0.
         23    2    1    2    0    0 -0.16408430416E+03  0.22070946724E+03 -0.62118169241E+03  0.68550433285E+03  0.91723320712E+02 0.  0.
          5    1    3    3  502    0  0.51808034660E+02 -0.16680504489E+03 -0.81955079286E+02  0.19298213098E+03  0.41800000000E+01 0. -1.
         -5    1    3    3    0  502  0.11227626950E+03 -0.53904422352E+02 -0.99372867378E+02  0.15938659483E+03  0.41800000000E+01 0. -1.
        -11    1    4    4    0    0  0.83045377640E+01  0.70780938551E+01 -0.57578999727E+02  0.58603805079E+02  0.00000000000E+00 0. -1.
         11    1    4    4    0    0 -0.17238884193E+03  0.21363137338E+03 -0.56360269268E+03  0.62690052777E+03  0.00000000000E+00 0.  1.
</event>
<event>
 8    1  0.6906553E-009  0.1509934E+03  0.7561462E-02  0.1199258E+00
          1   -1    0    0  501    0  0.00000000000E+00  0.00000000000E+00  0.86318470987E+02  0.86318470987E+02  0.00000000000E+00 0. -1.
         -1   -1    0    0    0  501 -0.00000000000E+00 -0.00000000000E+00 -0.37871236577E+03  0.37871236577E+03  0.00000000000E+00 0.  1.
         25    2    1    2    0    0 -0.48259353025E+02 -0.10668928471E+03 -0.26313857178E+03  0.31400698302E+03  0.12508760449E+03 0.  0.
         23    2    1    2    0    0  0.48259353025E+02  0.10668928471E+03 -0.29255323000E+02  0.15102385374E+03  0.90778642022E+02 0.  0.
          5    1    3    3  502    0  0.19148395504E+01 -0.10996966377E+03 -0.22593583233E+03  0.25131945069E+03  0.41800000000E+01 0. -1.
         -5    1    3    3    0  502 -0.50174192575E+02  0.32803790620E+01 -0.37202739451E+02  0.62687532333E+02  0.41800000000E+01 0. -1.
        -11    1    4    4    0    0 -0.14473023300E+02  0.63928629541E+02  0.87407765712E+01  0.66126690931E+02  0.00000000000E+00 0.  1.
         11    1    4    4    0    0  0.62732376325E+02  0.42760655172E+02 -0.37996099572E+02  0.84897162807E+02  0.00000000000E+00 0. -1.
</event>
<event>
 8    1  0.6906553E-009  0.1114286E+03  0.7561462E-02  0.1257947E+00
          2   -1    0    0  501    0  0.00000000000E+00  0.00000000000E+00  0.16953469488E+03  0.16953469488E+03  0.00000000000E+00 0. -1.
         -2   -1    0    0    0  501 -0.00000000000E+00 -0.00000000000E+00 -0.15824303099E+03  0.15824303099E+03  0.00000000000E+00 0.  1.
         25    2    1    2    0    0  0.78843105860E+02 -0.53427083363E+02 -0.70821815223E+02  0.17242481476E+03  0.12507557177E+03 0.  0.
         23    2    1    2    0    0 -0.78843105860E+02  0.53427083363E+02  0.82113479118E+02  0.15535291111E+03  0.91220693701E+02 0.  0.
          5    1    3    3  502    0  0.82215674077E+02 -0.63407812906E+02 -0.33049995168E+01  0.10396327824E+03  0.41800000000E+01 0.  1.
         -5    1    3    3    0  502 -0.33725682169E+01  0.99807295428E+01 -0.67516815707E+02  0.68461536513E+02  0.41800000000E+01 0.  1.
        -11    1    4    4    0    0 -0.24983673610E+02 -0.76991005846E+01  0.67760647048E+02  0.72628956933E+02  0.00000000000E+00 0. -1.
         11    1    4    4    0    0 -0.53859432249E+02  0.61126183947E+02  0.14352832070E+02  0.82723954177E+02  0.00000000000E+00 0.  1.
</event>
<event>
 8    1  0.6906553E-009  0.1024343E+03  0.7561462E-02  0.1275259E+00
         -1   -1    0    0    0  501 -0.00000000000E+00  0.00000000000E+00  0.49283952079E+02  0.49283952079E+02  0.00000000000E+00 0.  1.
          1   -1    0    0  501    0  0.00000000000E+00 -0.00000000000E+00 -0.25214680407E+03  0.25214680407E+03  0.00000000000E+00 0. -1.
         25    2    1    2    0    0 -0.15541915546E+02  0.12239100830E+02 -0.13659380880E+03  0.18626621867E+03  0.12508352764E+03 0.  0.
         23    2    1    2    0    0  0.15541915546E+02 -0.12239100830E+02 -0.66269043194E+02  0.11516453748E+03  0.92086578174E+02 0.  0.
          5    1    3    3  502    0 -0.91667688568E+01  0.62654741796E+02 -0.34700806673E+02  0.72327482360E+02  0.41800000000E+01 0. -1.
         -5    1    3    3    0  502 -0.63751466891E+01 -0.50415640966E+02 -0.10189300212E+03  0.11393873631E+03  0.41800000000E+01 0. -1.
        -11    1    4    4    0    0  0.41643573537E+02  0.22212610618E+02 -0.18368527757E+02  0.50645731304E+02  0.00000000000E+00 0.  1.
         11    1    4    4    0    0 -0.26101657991E+02 -0.34451711448E+02 -0.47900515437E+02  0.64518806179E+02  0.00000000000E+00 0. -1.
</event>
<event>
 8    1  0.6906553E-009  0.1298642E+03  0.7561462E-02  0.1227657E+00
         -1   -1    0    0    0  501 -0.00000000000E+00  0.00000000000E+00  0.14395225568E+02  0.14395225568E+02  0.00000000000E+00 0.  1.
          1   -1    0    0  501    0  0.00000000000E+00 -0.00000000000E+00 -0.15165433396E+04  0.15165433396E+04  0.00000000000E+00 0. -1.
         25    2    1    2    0    0  0.35808792442E+02 -0.74419813440E+02 -0.10721525153E+04  0.10825785678E+04  0.12507901957E+03 0.  0.
         23    2    1    2    0    0 -0.35808792442E+02  0.74419813440E+02 -0.42999559870E+03  0.44835999734E+03  0.96487792314E+02 0.  0.
          5    1    3    3  502    0  0.73727596655E+02 -0.81275350467E+02 -0.72506547580E+03  0.73333406965E+03  0.41800000000E+01 0.  1.
         -5    1    3    3    0  502 -0.37918804212E+02  0.68555370268E+01 -0.34708703951E+03  0.34924449816E+03  0.41800000000E+01 0.  1.
        -11    1    4    4    0    0 -0.56316619198E+02  0.70575104615E+02 -0.40866773448E+03  0.41852326601E+03  0.00000000000E+00 0. -1.
         11    1    4    4    0    0  0.20507826755E+02  0.38447088246E+01 -0.21327864222E+02  0.29836731330E+02  0.00000000000E+00 0.  1.
</event>
<event>
 8    1  0.6906553E-009  0.2707073E+03  0.7561462E-02  0.1100876E+00
          1   -1    0    0  501    0  0.00000000000E+00  0.00000000000E+00  0.12696751320E+03  0.12696751320E+03  0.00000000000E+00 0. -1.
         -1   -1    0    0    0  501 -0.00000000000E+00 -0.00000000000E+00 -0.62667557528E+03  0.62667557528E+03  0.00000000000E+00 0.  1.
         25    2    1    2    0    0  0.21790875483E+03  0.14106388536E+03 -0.22883573563E+03  0.36796445582E+03  0.12509517041E+03 0.  0.
         23    2    1    2    0    0 -0.21790875483E+03 -0.14106388536E+03 -0.27087232645E+03  0.38567863266E+03  0.89403273273E+02 0.  0.
          5    1    3    3  502    0  0.67915809815E+02  0.94062035400E+02 -0.41275202214E+02  0.12321257421E+03  0.41800000000E+01 0. -1.
         -5    1    3    3    0  502  0.14999294502E+03  0.47001849955E+02 -0.18756053342E+03  0.24475188161E+03  0.41800000000E+01 0. -1.
        -11    1    4    4    0    0 -0.10427875329E+03 -0.28426346822E+02 -0.15128669111E+03  0.18592949871E+03  0.00000000000E+00 0. -1.
         11    1    4    4    0    0 -0.11363000154E+03 -0.11263753853E+03 -0.11958563534E+03  0.19974913395E+03  0.00000000000E+00 0.  1.
</event>
<event>
 8    1  0.6906553E-009  0.2051593E+03  0.7561462E-02  0.1145458E+00
         -1   -1    0    0    0  501 -0.00000000000E+00  0.00000000000E+00  0.35702133777E+03  0.35702133777E+03  0.00000000000E+00 0.  1.
          1   -1    0    0  501    0  0.00000000000E+00 -0.00000000000E+00 -0.12716386874E+03  0.12716386874E+03  0.00000000000E+00 0. -1.
         25    2    1    2    0    0  0.30288921082E+01  0.18275920901E+03  0.13157346861E+03  0.25762028187E+03  0.12508608765E+03 0.  0.
         23    2    1    2    0    0 -0.30288921082E+01 -0.18275920901E+03  0.98284000416E+02  0.22656492465E+03  0.90894541514E+02 0.  0.
          5    1    3    3  502    0  0.54552555236E+02  0.89291494167E+02  0.10337890837E+03  0.14715170169E+03  0.41800000000E+01 0. -1.
         -5    1    3    3    0  502 -0.51523663128E+02  0.93467714843E+02  0.28194560236E+02  0.11046858018E+03  0.41800000000E+01 0. -1.
        -11    1    4    4    0    0 -0.34119284479E+02 -0.14915432204E+03  0.52355773778E+02  0.16171661759E+03  0.00000000000E+00 0. -1.
         11    1    4    4    0    0  0.31090392370E+02 -0.33604886967E+02  0.45928226638E+02  0.64848307055E+02  0.00000000000E+00 0.  1.
</event>
<event>
 8    1  0.6906553E-009  0.1030210E+03  0.7561462E-02  0.1274069E+00
          1   -1    0    0  501    0  0.00000000000E+00  0.00000000000E+00  0.34551030299E+03  0.34551030299E+03  0.00000000000E+00 0. -1.
         -1   -1    0    0    0  501 -0.00000000000E+00 -0.00000000000E+00 -0.44093952058E+02  0.44093952058E+02  0.00000000000E+00 0.  1.
         25    2    1    2    0    0  0.33995968787E+02 -0.24280730761E+02  0.10610985400E+03  0.16927280342E+03  0.12509476840E+03 0.  0.
         23    2    1    2    0    0 -0.33995968787E+02  0.24280730761E+02  0.19530649694E+03  0.22033145163E+03  0.93037847415E+02 0.  0.
          5    1    3    3  502    0  0.20089566736E+02  0.36343857165E+02  0.97861724713E+02  0.10639011330E+03  0.41800000000E+01 0. -1.
         -5    1    3    3    0  502  0.13906402051E+02 -0.60624587927E+02  0.82481292846E+01  0.62882690114E+02  0.41800000000E+01 0. -1.
        -11    1    4    4    0    0  0.32296774539E+02  0.12517333900E+02  0.68470449000E+02  0.76733093772E+02  0.00000000000E+00 0.  1.
         11    1    4    4    0    0 -0.66292743325E+02  0.11763396862E+02  0.12683604794E+03  0.14359835786E+03  0.00000000000E+00 0. -1.
</event>
<event>
 8    1  0.6906553E-009  0.8114311E+02  0.7561462E-02  0.1325838E+00
          2   -1    0    0  501    0  0.00000000000E+00  0.00000000000E+00  0.55461993632E+03  0.55461993632E+03  0.00000000000E+00 0. -1.
         -2   -1    0    0    0  501 -0.00000000000E+00 -0.00000000000E+00 -0.10522782030E+03  0.10522782030E+03  0.00000000000E+00 0.  1.
         25    2    1    2    0    0 -0.16507199562E+01  0.76437139779E+02  0.51030593539E+03  0.53094762733E+03  0.12509146277E+03 0.  0.
         23    2    1    2    0    0  0.16507199562E+01 -0.76437139779E+02 -0.60913819377E+02  0.12890012928E+03  0.84020168551E+02 0.  0.
          5    1    3    3  502    0 -0.71972610520E+01  0.28293871199E+02  0.14686646332E+02  0.32947134846E+02  0.41800000000E+01 0. -1.
         -5    1    3    3    0  502  0.55465410958E+01  0.48143268580E+02  0.49561928906E+03  0.49800049249E+03  0.41800000000E+01 0. -1.
        -11    1    4    4    0    0  0.17847946182E+02 -0.29283003650E+02  0.15520306612E+02  0.37642043024E+02  0.00000000000E+00 0. -1.
         11    1    4    4    0    0 -0.16197226226E+02 -0.47154136128E+02 -0.76434125989E+02  0.91258086256E+02  0.00000000000E+00 0.  1.
</event>
<event>
 8    1  0.6906553E-009  0.2215297E+03  0.7561462E-02  0.1132748E+00
          2   -1    0    0  501    0  0.00000000000E+00  0.00000000000E+00  0.26702490150E+04  0.26702490150E+04  0.00000000000E+00 0. -1.
         -2   -1    0    0    0  501 -0.00000000000E+00 -0.00000000000E+00 -0.19654141493E+02  0.19654141493E+02  0.00000000000E+00 0.  1.
         25    2    1    2    0    0  0.11159291989E+03  0.16262994119E+03  0.16693955967E+04  0.16856552056E+04  0.12510130533E+03 0.  0.
         23    2    1    2    0    0 -0.11159291989E+03 -0.16262994119E+03  0.98119927689E+03  0.10042479509E+04  0.82827823706E+02 0.  0.
          5    1    3    3  502    0  0.13412077109E+03  0.15528471324E+03  0.13690238934E+04  0.13843213559E+04  0.41800000000E+01 0. -1.
         -5    1    3    3    0  502 -0.22527851206E+02  0.73452279471E+01  0.30037170331E+03  0.30133384974E+03  0.41800000000E+01 0. -1.
        -11    1    4    4    0    0 -0.12785503978E+02 -0.90589915255E+02  0.43872907785E+03  0.44816649318E+03  0.00000000000E+00 0.  1.
         11    1    4    4    0    0 -0.98807415909E+02 -0.72040025933E+02  0.54247019904E+03  0.55608145772E+03  0.00000000000E+00 0. -1.
</event>
<event>
 8    1  0.6906553E-009  0.1966692E+03  0.7561462E-02  0.1152580E+00
          1   -1    0    0  501    0  0.00000000000E+00  0.00000000000E+00  0.13909602914E+03  0.13909602914E+03  0.00000000000E+00 0. -1.
         -1   -1    0    0    0  501 -0.00000000000E+00 -0.00000000000E+00 -0.31958839973E+03  0.31958839973E+03  0.00000000000E+00 0.  1.
         25    2    1    2    0    0 -0.11620743674E+03  0.13541038352E+03 -0.13401827287E+03  0.25583320993E+03  0.12509833541E+03 0.  0.
         23    2    1    2    0    0  0.11620743674E+03 -0.13541038352E+03 -0.46474097716E+02  0.20285121895E+03  0.84549600536E+02 0.  0.
          5    1    3    3  502    0 -0.11752355850E+03  0.48806202156E+02 -0.10289166073E+03  0.16370094202E+03  0.41800000000E+01 0.  1.
         -5    1    3    3    0  502  0.13161217651E+01  0.86604181363E+02 -0.31126612145E+02  0.92132267907E+02  0.41800000000E+01 0.  1.
        -11    1    4    4    0    0  0.23431790014E+02 -0.39019491562E+02  0.24197433162E+02  0.51546923057E+02  0.00000000000E+00 0. -1.
         11    1    4    4    0    0  0.92775646725E+02 -0.96390891957E+02 -0.70671530878E+02  0.15130429589E+03  0.00000000000E+00 0.  1.
</event>
<event>
 8    1  0.6906553E-009  0.1079434E+03  0.7561462E-02  0.1264427E+00
         -2   -1    0    0    0  501 -0.00000000000E+00  0.00000000000E+00  0.25057924520E+02  0.25057924520E+02  0.00000000000E+00 0.  1.
          2   -1    0    0  501    0  0.00000000000E+00 -0.00000000000E+00 -0.64907404332E+03  0.64907404332E+03  0.00000000000E+00 0. -1.
         25    2    1    2    0    0 -0.36586024237E+02 -0.22984662218E+02 -0.47690078408E+03  0.49492232913E+03  0.12508765788E+03 0.  0.
         23    2    1    2    0    0  0.36586024237E+02  0.22984662218E+02 -0.14711533473E+03  0.17920963871E+03  0.92770367186E+02 0.  0.
          5    1    3    3  502    0  0.38922742899E+02 -0.26678143395E+02 -0.27974750818E+03  0.28373023100E+03  0.41800000000E+01 0. -1.
         -5    1    3    3    0  502 -0.75508767136E+02  0.36934811776E+01 -0.19715327590E+03  0.21119209814E+03  0.41800000000E+01 0. -1.
        -11    1    4    4    0    0  0.58894733568E+02  0.33909774552E+02 -0.13592057653E+03  0.15196336919E+03  0.00000000000E+00 0.  1.
         11    1    4    4    0    0 -0.22308709331E+02 -0.10925112334E+02 -0.11194758198E+02  0.27246269518E+02  0.00000000000E+00 0. -1.
</event>
<event>
 8    1  0.6906553E-009  0.1540845E+03  0.7561462E-02  0.1195542E+00
         -3   -1    0    0    0  501 -0.00000000000E+00  0.00000000000E+00  0.50141103268E+03  0.50141103268E+03  0.00000000000E+00 0.  1.
          3   -1    0    0  501    0  0.00000000000E+00 -0.00000000000E+00 -0.59851876603E+02  0.59851876603E+02  0.00000000000E+00 0. -1.
         25    2    1    2    0    0  0.10850247432E+03 -0.78856467056E+02  0.22222402070E+03  0.28813571147E+03  0.12509014156E+03 0.  0.
         23    2    1    2    0    0 -0.10850247432E+03  0.78856467056E+02  0.21933513538E+03  0.27312719782E+03  0.92192381712E+02 0.  0.
          5    1    3    3  502    0  0.71076730672E+02 -0.93516813698E+02  0.21778989914E+03  0.24748173398E+03  0.41800000000E+01 0.  1.
         -5    1    3    3    0  502  0.37425743652E+02  0.14660346643E+02  0.44341215640E+01  0.40653977488E+02  0.41800000000E+01 0.  1.
        -11    1    4    4    0    0  0.74493028376E+01  0.17537700481E+02  0.78047485426E+02  0.80339735077E+02  0.00000000000E+00 0.  1.
         11    1    4    4    0    0 -0.11595177716E+03  0.61318766575E+02  0.14128764995E+03  0.19278746274E+03  0.00000000000E+00 0. -1.
</event>
<event>
 8    1  0.6906553E-009  0.1794422E+03  0.7561462E-02  0.1168344E+00
          1   -1    0    0  501    0  0.00000000000E+00  0.00000000000E+00  0.80808950609E+03  0.80808950609E+03  0.00000000000E+00 0. -1.
         -1   -1    0    0    0  501 -0.00000000000E+00 -0.00000000000E+00 -0.43468554704E+02  0.43468554704E+02  0.00000000000E+00 0.  1.
         25    2    1    2    0    0 -0.13378651897E+03 -0.70819790335E+02  0.43796689266E+03  0.47997507515E+03  0.12508716296E+03 0.  0.
         23    2    1    2    0    0  0.13378651897E+03  0.70819790335E+02  0.32665405872E+03  0.37158298564E+03  0.91960675158E+02 0.  0.
          5    1    3    3  502    0 -0.62916849454E+02  0.20491134887E+02  0.80648623146E+02  0.10440349309E+03  0.41800000000E+01 0. -1.
         -5    1    3    3    0  502 -0.70869669520E+02 -0.91310925222E+02  0.35731826952E+03  0.37557158206E+03  0.41800000000E+01 0. -1.
        -11    1    4    4    0    0 -0.13818152853E+02  0.10973574271E+02  0.27600763443E+02  0.32759163957E+02  0.00000000000E+00 0.  1.
         11    1    4    4    0    0  0.14760467183E+03  0.59846216063E+02  0.29905329528E+03  0.33882382168E+03  0.00000000000E+00 0. -1.
</event>
<event>
 8    1  0.6906553E-009  0.1515972E+03  0.7561462E-02  0.1198524E+00
          2   -1    0    0  501    0  0.00000000000E+00  0.00000000000E+00  0.86628067583E+02  0.86628067583E+02  0.00000000000E+00 0. -1.
         -2   -1    0    0    0  501 -0.00000000000E+00 -0.00000000000E+00 -0.33822892578E+03  0.33822892578E+03  0.00000000000E+00 0.  1.
         25    2    1    2    0    0  0.23141710368E+02 -0.11176234404E+03 -0.21946699563E+03  0.27719922579E+03  0.12508912145E+03 0.  0.
         23    2    1    2    0    0 -0.23141710368E+02  0.11176234404E+03 -0.32133862571E+02  0.14765776758E+03  0.87999266466E+02 0.  0.
          5    1    3    3  502    0 -0.37808398288E+02 -0.75162300689E+01 -0.19109415161E+02  0.43227431607E+02  0.41800000000E+01 0.  1.
         -5    1    3    3    0  502  0.60950108656E+02 -0.10424611397E+03 -0.20035758047E+03  0.23397179418E+03  0.41800000000E+01 0.  1.
        -11    1    4    4    0    0  0.13526016525E+02  0.10553532322E+03 -0.18218244158E+02  0.10794703326E+03  0.00000000000E+00 0. -1.
         11    1    4    4    0    0 -0.36667726893E+02  0.62270208145E+01 -0.13915618413E+02  0.39710734311E+02  0.00000000000E+00 0.  1.
</event>
<event>
 8    1  0.6906553E-009  0.1222363E+03  0.7561462E-02  0.1239453E+00
          2   -1    0    0  501    0  0.00000000000E+00  0.00000000000E+00  0.66435079640E+03  0.66435079640E+03  0.00000000000E+00 0.  1.
         -2   -1    0    0    0  501 -0.00000000000E+00 -0.00000000000E+00 -0.25762327595E+02  0.25762327595E+02  0.00000000000E+00 0. -1.
         25    2    1    2    0    0 -0.58626423911E+02 -0.34194670962E+02  0.29567124250E+03  0.32813857499E+03  0.12508839935E+03 0.  0.
         23    2    1    2    0    0  0.58626423911E+02  0.34194670962E+02  0.34291722631E+03  0.36197454901E+03  0.93952205556E+02 0.  0.
          5    1    3    3  502    0 -0.47889301662E+02 -0.74386246940E+02  0.25445557912E+03  0.26942867904E+03  0.41800000000E+01 0.  1.
         -5    1    3    3    0  502 -0.10737122249E+02  0.40191575978E+02  0.41215663384E+02  0.58709895946E+02  0.41800000000E+01 0.  1.
        -11    1    4    4    0    0  0.38564434405E+02 -0.28703902682E+02  0.17677927735E+03  0.18319946106E+03  0.00000000000E+00 0.  1.
         11    1    4    4    0    0  0.20061989505E+02  0.62898573643E+02  0.16613794895E+03  0.17877508795E+03  0.00000000000E+00 0. -1.
</event>
<event>
 8    1  0.6906553E-009  0.9523948E+02  0.7561462E-02  0.1290638E+00
          2   -1    0    0  501    0  0.00000000000E+00  0.00000000000E+00  0.13976361561E+03  0.13976361561E+03  0.00000000000E+00 0.  1.
         -2   -1    0    0    0  501 -0.00000000000E+00 -0.00000000000E+00 -0.13041638978E+03  0.13041638978E+03  0.00000000000E+00 0. -1.
         25    2    1    2    0    0  0.76088855813E+02 -0.17344534514E+02 -0.20324495036E+02  0.14883226248E+03  0.12509040890E+03 0.  0.
         23    2    1    2    0    0 -0.76088855813E+02  0.17344534514E+02  0.29671720873E+02  0.12134774291E+03  0.88059734464E+02 0.  0.
          5    1    3    3  502    0  0.61041029269E+02  0.15383473721E+02 -0.65473903738E+02  0.90922840852E+02  0.41800000000E+01 0.  1.
         -5    1    3    3    0  502  0.15047826544E+02 -0.32728008234E+02  0.45149408701E+02  0.57909421623E+02  0.41800000000E+01 0.  1.
        -11    1    4    4    0    0 -0.12949927633E+01 -0.11049530028E+02  0.39229669465E+02  0.40776661051E+02  0.00000000000E+00 0.  1.
         11    1    4    4    0    0 -0.74793863050E+02  0.28394064542E+02 -0.95579485921E+01  0.80571081862E+02  0.00000000000E+00 0. -1.
</event>
<event>
 8    1  0.6906553E-009  0.1093041E+03  0.7561462E-02  0.1261864E+00
         -1   -1    0    0    0  501 -0.00000000000E+00  0.00000000000E+00  0.26324478606E+02  0.26324478606E+02  0.00000000000E+00 0.  1.
          1   -1    0    0  501    0  0.00000000000E+00 -0.00000000000E+00 -0.80472033999E+03  0.80472033999E+03  0.00000000000E+00 0. -1.
         25    2    1    2    0    0 -0.22511373474E+01 -0.75555923813E+02 -0.60033184675E+03  0.61786883105E+03  0.12509916438E+03 0.  0.
         23    2    1    2    0    0  0.22511373474E+01  0.75555923813E+02 -0.17806401464E+03  0.21317598754E+03  0.89573674214E+02 0.  0.
          5    1    3    3  502    0 -0.56132208752E+02 -0.45757234478E+02 -0.19877876834E+03  0.21160108815E+03  0.41800000000E+01 0. -1.
         -5    1    3    3    0  502  0.53881071404E+02 -0.29798689335E+02 -0.40155307841E+03  0.40626774290E+03  0.41800000000E+01 0. -1.
        -11    1    4    4    0    0 -0.16558862548E+02  0.49660410107E+02 -0.17303125506E+03  0.18077656787E+03  0.00000000000E+00 0. -1.
         11    1    4    4    0    0  0.18809999896E+02  0.25895513706E+02 -0.50327595733E+01  0.32399419673E+02  0.00000000000E+00 0.  1.
</event>
<event>
 8    1  0.6906553E-009  0.1110872E+03  0.7561462E-02  0.1258570E+00
          4   -1    0    0  501    0  0.00000000000E+00  0.00000000000E+00  0.27242559362E+03  0.27242559362E+03  0.00000000000E+00 0. -1.
         -4   -1    0    0    0  501 -0.00000000000E+00 -0.00000000000E+00 -0.78069164411E+02  0.78069164411E+02  0.00000000000E+00 0.  1.
         25    2    1    2    0    0 -0.10362853224E+02 -0.59092118857E+02  0.19680752168E+03  0.24079135101E+03  0.12509199373E+03 0.  0.
         23    2    1    2    0    0  0.10362853224E+02  0.59092118857E+02 -0.24510924647E+01  0.10970340702E+03  0.91812648476E+02 0.  0.
          5    1    3    3  502    0 -0.52221480357E+02 -0.21673539245E+02  0.28777866597E+02  0.63580368983E+02  0.41800000000E+01 0. -1.
         -5    1    3    3    0  502  0.41858627133E+02 -0.37418579611E+02  0.16802965508E+03  0.17721098203E+03  0.41800000000E+01 0. -1.
        -11    1    4    4    0    0 -0.24989388272E+02 -0.13524204734E+02 -0.52273806499E+01  0.28891160384E+02  0.00000000000E+00 0.  1.
         11    1    4    4    0    0  0.35352241495E+02  0.72616323591E+02  0.27762881853E+01  0.80812246638E+02  0.00000000000E+00 0. -1.
</event>
<event>
 8    1  0.6906553E-009  0.1478825E+03  0.7561462E-02  0.1203099E+00
          1   -1    0    0  501    0  0.00000000000E+00  0.00000000000E+00  0.43055280130E+03  0.43055280130E+03  0.00000000000E+00 0. -1.
         -1   -1    0    0    0  501 -0.00000000000E+00 -0.00000000000E+00 -0.11699161402E+03  0.11699161402E+03  0.00000000000E+00 0.  1.
         25    2    1    2    0    0 -0.10365712744E+03 -0.54452884751E+02  0.35461171695E+03  0.39383607458E+03  0.12508983616E+03 0.  0.
         23    2    1    2    0    0  0.10365712744E+03  0.54452884751E+02 -0.41050529680E+02  0.15370834074E+03  0.90725913062E+02 0.  0.
          5    1    3    3  502    0 -0.51267198699E+02  0.25442451152E+02  0.22832429239E+03  0.23542535734E+03  0.41800000000E+01 0. -1.
         -5    1    3    3    0  502 -0.52389928739E+02 -0.79895335904E+02  0.12628742456E+03  0.15841071723E+03  0.41800000000E+01 0. -1.
        -11    1    4    4    0    0  0.66731145915E+02  0.75081242230E+02 -0.94174977070E+01  0.10089067367E+03  0.00000000000E+00 0.  1.
         11    1    4    4    0    0  0.36925981523E+02 -0.20628357479E+02 -0.31633031973E+02  0.52817667078E+02  0.00000000000E+00 0. -1.
</event>
<event>
 8    1  0.6906553E-009  0.9380741E+02  0.7561462E-02  0.1293885E+00
         -2   -1    0    0    0  501 -0.00000000000E+00  0.00000000000E+00  0.22365057818E+02  0.22365057818E+02  0.00000000000E+00 0.  1.
          2   -1    0    0  501    0  0.00000000000E+00 -0.00000000000E+00 -0.74263212056E+03  0.74263212056E+03  0.00000000000E+00 0. -1.
         25    2    1    2    0    0 -0.58641359987E+02  0.16214899311E+02 -0.49232739967E+03  0.51160095746E+03  0.12509012409E+03 0.  0.
         23    2    1    2    0    0  0.58641359987E+02 -0.16214899311E+02 -0.22793966307E+03  0.25339622092E+03  0.92473902883E+02 0.  0.
          5    1    3    3  502    0 -0.12122759210E+02  0.56673625603E+02 -0.37018236275E+03  0.37471497864E+03  0.41800000000E+01 0.  1.
         -5    1    3    3    0  502 -0.46518600777E+02 -0.40458726292E+02 -0.12214503692E+03  0.13688597881E+03  0.41800000000E+01 0.  1.
        -11    1    4    4    0    0  0.55516878804E+02 -0.46217763365E+01 -0.23357942134E+03  0.24013086166E+03  0.00000000000E+00 0. -1.
         11    1    4    4    0    0  0.31244811831E+01 -0.11593122975E+02  0.56397582673E+01  0.13265359259E+02  0.00000000000E+00 0.  1.
</event>
<event>
 8    1  0.6906553E-009  0.9644537E+02  0.7561462E-02  0.1287954E+00
          1   -1    0    0  501    0  0.00000000000E+00  0.00000000000E+00  0.44883720447E+02  0.44883720447E+02  0.00000000000E+00 0. -1.
         -1   -1    0    0    0  501 -0.00000000000E+00 -0.00000000000E+00 -0.36134916782E+03  0.36134916782E+03  0.00000000000E+00 0.  1.
         25    2    1    2    0    0  0.26029355707E+02 -0.43684526388E+02 -0.24341847000E+03  0.27836110589E+03  0.12508592459E+03 0.  0.
         23    2    1    2    0    0 -0.26029355707E+02  0.43684526388E+02 -0.73046977371E+02  0.12787178238E+03  0.91812126764E+02 0.  0.
          5    1    3    3  502    0 -0.20241966351E+01  0.40839838774E+02 -0.45666238487E+02  0.61439950689E+02  0.41800000000E+01 0. -1.
         -5    1    3    3    0  502  0.28053552342E+02 -0.84524365162E+02 -0.19775223151E+03  0.21692115520E+03  0.41800000000E+01 0. -1.
        -11    1    4    4    0    0 -0.33807452277E+02  0.23983716802E+02  0.96050239834E+01  0.42549018635E+02  0.00000000000E+00 0. -1.
         11    1    4    4    0    0  0.77780965700E+01  0.19700809585E+02 -0.82652001355E+02  0.85322763742E+02  0.00000000000E+00 0.  1.
</event>
<event>
 8    1  0.6906553E-009  0.7499274E+02  0.7561462E-02  0.1343893E+00
          4   -1    0    0  501    0  0.00000000000E+00  0.00000000000E+00  0.11428695400E+03  0.11428695400E+03  0.00000000000E+00 0. -1.
         -4   -1    0    0    0  501 -0.00000000000E+00 -0.00000000000E+00 -0.10575009386E+03  0.10575009386E+03  0.00000000000E+00 0.  1.
         25    2    1    2    0    0  0.28261624846E+01 -0.36805355388E+01  0.22954444647E+02  0.12725320222E+03  0.12507972422E+03 0.  0.
         23    2    1    2    0    0 -0.28261624846E+01  0.36805355388E+01 -0.14417584506E+02  0.92783845636E+02  0.91539290645E+02 0.  0.
          5    1    3    3  502    0  0.45420073413E+02  0.31591484092E+02 -0.17977554572E+02  0.58323835645E+02  0.41800000000E+01 0. -1.
         -5    1    3    3    0  502 -0.42593910929E+02 -0.35272019630E+02  0.40931999219E+02  0.68929366580E+02  0.41800000000E+01 0. -1.
        -11    1    4    4    0    0  0.85541884594E+01 -0.14941644509E+02  0.34865415668E+02  0.38884753960E+02  0.00000000000E+00 0. -1.
         11    1    4    4    0    0 -0.11380350944E+02  0.18622180048E+02 -0.49283000174E+02  0.53899091676E+02  0.00000000000E+00 0.  1.
</event>
<event>
 8    1  0.6906553E-009  0.4749564E+02  0.7561462E-02  0.1459337E+00
          2   -1    0    0  501    0  0.00000000000E+00  0.00000000000E+00  0.17464970402E+03  0.17464970402E+03  0.00000000000E+00 0. -1.
         -2   -1    0    0    0  501 -0.00000000000E+00 -0.00000000000E+00 -0.78696457404E+02  0.78696457404E+02  0.00000000000E+00 0.  1.
         25    2    1    2    0    0 -0.42805323467E+01  0.36865667728E+02  0.74489063247E+02  0.15024480339E+03  0.12508988763E+03 0.  0.
         23    2    1    2    0    0  0.42805323467E+01 -0.36865667728E+02  0.21464183368E+02  0.10310135804E+03  0.93764483933E+02 0.  0.
          5    1    3    3  502    0 -0.69381938739E+01  0.33932474293E+02  0.10941794290E+03  0.11484472115E+03  0.41800000000E+01 0.  1.
         -5    1    3    3    0  502  0.26576615272E+01  0.29331934356E+01 -0.34928879657E+02  0.35400082240E+02  0.41800000000E+01 0.  1.
        -11    1    4    4    0    0  0.18685313175E+02 -0.49453016436E+01 -0.33062169955E+02  0.38297571972E+02  0.00000000000E+00 0.  1.
         11    1    4    4    0    0 -0.14404780828E+02 -0.31920366085E+02  0.54526353323E+02  0.64803786066E+02  0.00000000000E+00 0. -1.
</event>
<event>
 8    1  0.6906553E-009  0.1125803E+03  0.7561462E-02  0.1255865E+00
         -2   -1    0    0    0  501 -0.00000000000E+00  0.00000000000E+00  0.52953280777E+02  0.52953280777E+02  0.00000000000E+00 0.  1.
          2   -1    0    0  501    0  0.00000000000E+00 -0.00000000000E+00 -0.31314022517E+03  0.31314022517E+03  0.00000000000E+00 0. -1.
         25    2    1    2    0    0 -0.97414357647E+01 -0.53115234862E+02 -0.21147343673E+03  0.25156453390E+03  0.12509027352E+03 0.  0.
         23    2    1    2    0    0  0.97414357647E+01  0.53115234862E+02 -0.48713507671E+02  0.11452897205E+03  0.88474605759E+02 0.  0.
          5    1    3    3  502    0  0.57588010077E+02 -0.24604895669E+02 -0.10519999806E+03  0.12250017056E+03  0.41800000000E+01 0.  1.
         -5    1    3    3    0  502 -0.67329445842E+02 -0.28510339194E+02 -0.10627343866E+03  0.12906436334E+03  0.41800000000E+01 0.  1.
        -11    1    4    4    0    0 -0.97732633683E+01 -0.15223281921E+02  0.11452767057E+02  0.21410998635E+02  0.00000000000E+00 0.  1.
         11    1    4    4    0    0  0.19514699133E+02  0.68338516784E+02 -0.60166274727E+02  0.93117973416E+02  0.00000000000E+00 0. -1.
</event>
<event>
 8    1  0.6906553E-009  0.1026998E+03  0.7561462E-02  0.1274719E+00
          2   -1    0    0  501    0  0.00000000000E+00  0.00000000000E+00  0.44172014992E+03  0.44172014992E+03  0.00000000000E+00 0. -1.
         -2   -1    0    0    0  501 -0.00000000000E+00 -0.00000000000E+00 -0.37231290093E+02  0.37231290093E+02  0.00000000000E+00 0.  1.
         25    2    1    2    0    0 -0.11148253307E+02 -0.41906934289E+02  0.11955451309E+03  0.17838808148E+03  0.12509416981E+03 0.  0.
         23    2    1    2    0    0  0.11148253307E+02  0.41906934289E+02  0.28493434674E+03  0.30056335853E+03  0.85265912587E+02 0.  0.
          5    1    3    3  502    0  0.10628646380E+02 -0.83885720357E+02  0.71149081167E+02  0.11058682722E+03  0.41800000000E+01 0. -1.
         -5    1    3    3    0  502 -0.21776899687E+02  0.41978786068E+02  0.48405431924E+02  0.67801254262E+02  0.41800000000E+01 0. -1.
        -11    1    4    4    0    0 -0.22153173441E+02  0.34953872496E+01  0.17793917884E+02  0.28628732755E+02  0.00000000000E+00 0.  1.
         11    1    4    4    0    0  0.33301426748E+02  0.38411547039E+02  0.26714042885E+03  0.27193462578E+03  0.00000000000E+00 0. -1.
</event>
<event>
 8    1  0.6906553E-009  0.1200191E+03  0.7561462E-02  0.1243066E+00
          2   -1    0    0  501    0  0.00000000000E+00  0.00000000000E+00  0.15221586751E+04  0.15221586751E+04  0.00000000000E+00 0. -1.
         -2   -1    0    0    0  501 -0.00000000000E+00 -0.00000000000E+00 -0.15831916820E+02  0.15831916820E+02  0.00000000000E+00 0.  1.
         25    2    1    2    0    0 -0.80332821842E+02 -0.44729792004E+02  0.11231603010E+04  0.11338373677E+04  0.12507597011E+03 0.  0.
         23    2    1    2    0    0  0.80332821842E+02  0.44729792004E+02  0.38316645731E+03  0.40415322416E+03  0.89828603639E+02 0.  0.
          5    1    3    3  502    0 -0.43206783537E+02  0.18090277158E+02  0.13460107838E+03  0.14257982666E+03  0.41800000000E+01 0.  1.
         -5    1    3    3    0  502 -0.37126038305E+02 -0.62820069162E+02  0.98855922257E+03  0.99125754108E+03  0.41800000000E+01 0.  1.
        -11    1    4    4    0    0  0.82597241445E+02  0.78477316034E+01  0.32350883560E+03  0.33397882852E+03  0.00000000000E+00 0. -1.
         11    1    4    4    0    0 -0.22644196030E+01  0.36882060401E+02  0.59657621709E+02  0.70174395641E+02  0.00000000000E+00 0.  1.
</event>
<event>
 8    1  0.6906553E-009  0.1796950E+03  0.7561462E-02  0.1168099E+00
         -1   -1    0    0    0  501 -0.00000000000E+00  0.00000000000E+00  0.18098967810E+03  0.18098967810E+03  0.00000000000E+00 0.  1.
          1   -1    0    0  501    0  0.00000000000E+00 -0.00000000000E+00 -0.20742852243E+03  0.20742852243E+03  0.00000000000E+00 0. -1.
         25    2    1    2    0    0  0.83866585609E+02  0.11550968748E+03 -0.86176790294E+02  0.20844549950E+03  0.12508794904E+03 0.  0.
         23    2    1    2    0    0 -0.83866585609E+02 -0.11550968748E+03  0.59737945972E+02  0.17997270103E+03  0.91899177596E+02 0.  0.
          5    1    3    3  502    0  0.11471395998E+03  0.69422539312E+02 -0.62659656683E+02  0.14806244140E+03  0.41800000000E+01 0.  1.
         -5    1    3    3    0  502 -0.30847374372E+02  0.46087148169E+02 -0.23517133610E+02  0.60383058098E+02  0.41800000000E+01 0.  1.
        -11    1    4    4    0    0  0.12562146600E+02 -0.53554665818E+02  0.22865116808E+02  0.59571161855E+02  0.00000000000E+00 0.  1.
         11    1    4    4    0    0 -0.96428732209E+02 -0.61955021662E+02  0.36872829164E+02  0.12040153917E+03  0.00000000000E+00 0. -1.
</event>
<event>
 8    1  0.6906553E-009  0.2388278E+03  0.7561462E-02  0.1120576E+00
          2   -1    0    0  501    0  0.00000000000E+00  0.00000000000E+00  0.34353552679E+03  0.34353552679E+03  0.00000000000E+00 0.  1.
         -2   -1    0    0    0  501 -0.00000000000E+00 -0.00000000000E+00 -0.28699947535E+03  0.28699947535E+03  0.00000000000E+00 0. -1.
         25    2    1    2    0    0  0.15903983301E+03  0.16998464946E+03 -0.15251661326E+03  0.30512035887E+03  0.12509463035E+03 0.  0.
         23    2    1    2    0    0 -0.15903983301E+03 -0.16998464946E+03  0.20905266471E+03  0.32541464326E+03  0.89460739393E+02 0.  0.
          5    1    3    3  502    0  0.11547971117E+03  0.16384381329E+03 -0.71546886628E+02  0.21287740188E+03  0.41800000000E+01 0.  1.
         -5    1    3    3    0  502  0.43560121841E+02  0.61408361716E+01 -0.80969726635E+02  0.92242956994E+02  0.41800000000E+01 0.  1.
        -11    1    4    4    0    0 -0.12467025872E+03 -0.13872733957E+03  0.20739508495E+03  0.27892771361E+03  0.00000000000E+00 0.  1.
         11    1    4    4    0    0 -0.34369574284E+02 -0.31257309889E+02  0.16575797505E+01  0.46486929653E+02  0.00000000000E+00 0. -1.
</event>
<event>
 8    1  0.6906553E-009  0.1448929E+03  0.7561462E-02  0.1206893E+00
         -1   -1    0    0    0  501 -0.00000000000E+00  0.00000000000E+00  0.13459361105E+03  0.13459361105E+03  0.00000000000E+00 0.  1.
          1   -1    0    0  501    0  0.00000000000E+00 -0.00000000000E+00 -0.17837209229E+03  0.17837209229E+03  0.00000000000E+00 0. -1.
         25    2    1    2    0    0  0.37784468176E+02  0.92072328419E+02 -0.70872104001E+02  0.17485657025E+03  0.12508791044E+03 0.  0.
         23    2    1    2    0    0 -0.37784468176E+02 -0.92072328419E+02  0.27093622763E+02  0.13810913309E+03  0.91842738157E+02 0.  0.
          5    1    3    3  502    0 -0.44001171522E+02  0.17028994026E+02 -0.32054787230E+02  0.57193282098E+02  0.41800000000E+01 0.  1.
         -5    1    3    3    0  502  0.81785639697E+02  0.75043334393E+02 -0.38817316771E+02  0.11766328815E+03  0.41800000000E+01 0.  1.
        -11    1    4    4    0    0 -0.51893263403E+02 -0.16482049441E+02 -0.52247290718E+01  0.54697957314E+02  0.00000000000E+00 0. -1.
         11    1    4    4    0    0  0.14108795228E+02 -0.75590278978E+02  0.32318351834E+02  0.83411175774E+02  0.00000000000E+00 0.  1.
</event>
<event>
 8    1  0.6906553E-009  0.1976698E+03  0.7561462E-02  0.1151720E+00
         -3   -1    0    0    0  501 -0.00000000000E+00  0.00000000000E+00  0.56958921688E+03  0.56958921688E+03  0.00000000000E+00 0.  1.
          3   -1    0    0  501    0  0.00000000000E+00 -0.00000000000E+00 -0.79267704738E+02  0.79267704738E+02  0.00000000000E+00 0. -1.
         25    2    1    2    0    0 -0.24481429638E+02 -0.17970631102E+03  0.28347307867E+03  0.35902391765E+03  0.12508992164E+03 0.  0.
         23    2    1    2    0    0  0.24481429638E+02  0.17970631102E+03  0.20684843347E+03  0.28983300397E+03  0.91231557798E+02 0.  0.
          5    1    3    3  502    0  0.29561594689E+02 -0.62999440107E+01  0.12933039349E+02  0.33140806899E+02  0.41800000000E+01 0. -1.
         -5    1    3    3    0  502 -0.54043024327E+02 -0.17340636701E+03  0.27054003932E+03  0.32588311075E+03  0.41800000000E+01 0. -1.
        -11    1    4    4    0    0  0.21373670757E+01  0.10838855053E+03  0.57232814497E+02  0.12258972746E+03  0.00000000000E+00 0. -1.
         11    1    4    4    0    0  0.22344062562E+02  0.71317760493E+02  0.14961561898E+03  0.16724327650E+03  0.00000000000E+00 0.  1.
</event>
<event>
 8    1  0.6906553E-009  0.1066340E+03  0.7561462E-02  0.1266933E+00
          1   -1    0    0  501    0  0.00000000000E+00  0.00000000000E+00  0.14228180212E+03  0.14228180212E+03  0.00000000000E+00 0. -1.
         -1   -1    0    0    0  501 -0.00000000000E+00 -0.00000000000E+00 -0.14559910976E+03  0.14559910976E+03  0.00000000000E+00 0.  1.
         25    2    1    2    0    0  0.68294705188E+02 -0.31080351540E+01  0.62021272207E+02  0.15546177539E+03  0.12509156151E+03 0.  0.
         23    2    1    2    0    0 -0.68294705188E+02  0.31080351540E+01 -0.65338579842E+02  0.13241913649E+03  0.92692346256E+02 0.  0.
          5    1    3    3  502    0  0.27957714257E+02 -0.57118128126E+02  0.60546189425E+02  0.87905789348E+02  0.41800000000E+01 0.  1.
         -5    1    3    3    0  502  0.40336990931E+02  0.54010092972E+02  0.14750827820E+01  0.67555986037E+02  0.41800000000E+01 0.  1.
        -11    1    4    4    0    0 -0.13191595357E+02 -0.18574245292E+02  0.18796215014E+02  0.29535038091E+02  0.00000000000E+00 0. -1.
         11    1    4    4    0    0 -0.55103109831E+02  0.21682280446E+02 -0.84134794856E+02  0.10288409840E+03  0.00000000000E+00 0.  1.
</event>
<event>
 8    1  0.6906553E-009  0.1878490E+03  0.7561462E-02  0.1160416E+00
          1   -1    0    0  501    0  0.00000000000E+00  0.00000000000E+00  0.64049818026E+03  0.64049818026E+03  0.00000000000E+00 0. -1.
         -1   -1    0    0    0  501 -0.00000000000E+00 -0.00000000000E+00 -0.11705806704E+03  0.11705806704E+03  0.00000000000E+00 0.  1.
         25    2    1    2    0    0 -0.10203821868E+03  0.12708771131E+03  0.53291744329E+03  0.57114888048E+03  0.12508780063E+03 0.  0.
         23    2    1    2    0    0  0.10203821868E+03 -0.12708771131E+03 -0.94773300734E+01  0.18640736682E+03  0.89971118595E+02 0.  0.
          5    1    3    3  502    0 -0.24256589484E+02  0.12403284869E+03  0.35699787661E+03  0.37873141669E+03  0.41800000000E+01 0. -1.
         -5    1    3    3    0  502 -0.77781629199E+02  0.30548626212E+01  0.17591956668E+03  0.19241746378E+03  0.41800000000E+01 0. -1.
        -11    1    4    4    0    0  0.48885023619E+02 -0.22166749513E+02 -0.37525622761E+02  0.65492615475E+02  0.00000000000E+00 0.  1.
         11    1    4    4    0    0  0.53153195065E+02 -0.10492096180E+03  0.28048292688E+02  0.12091475134E+03  0.00000000000E+00 0. -1.
</event>
<event>
 8    1  0.6906553E-009  0.1533500E+03  0.7561462E-02  0.1196416E+00
          2   -1    0    0  501    0  0.00000000000E+00  0.00000000000E+00  0.14283338489E+03  0.14283338489E+03  0.00000000000E+00 0. -1.
         -2   -1    0    0    0  501 -0.00000000000E+00 -0.00000000000E+00 -0.17869409143E+03  0.17869409143E+03  0.00000000000E+00 0.  1.
         25    2    1    2    0    0  0.10792928945E+03 -0.14443081184E+02  0.22688685993E+02  0.16738896547E+03  0.12508778987E+03 0.  0.
         23    2    1    2    0    0 -0.10792928945E+03  0.14443081184E+02 -0.58549392526E+02  0.15413851084E+03  0.92050611320E+02 0.  0.
          5    1    3    3  502    0  0.53199724389E+02  0.55281055419E+02  0.57543200297E+01  0.77050570162E+02  0.41800000000E+01 0. -1.
         -5    1    3    3    0  502  0.54729565063E+02 -0.69724136602E+02  0.16934365963E+02  0.90338395312E+02  0.41800000000E+01 0. -1.
        -11    1    4    4    0    0 -0.75518325482E+02 -0.34018517555E+02 -0.45087591316E+02  0.94303594369E+02  0.00000000000E+00 0. -1.
         11    1    4    4    0    0 -0.32410963971E+02  0.48461598739E+02 -0.13461801210E+02  0.59834916476E+02  0.00000000000E+00 0.  1.
</event>
<event>
 8    1  0.6906553E-009  0.1328531E+03  0.7561462E-02  0.1223283E+00
          2   -1    0    0  501    0  0.00000000000E+00  0.00000000000E+00  0.34300780549E+03  0.34300780549E+03  0.00000000000E+00 0. -1.
         -2   -1    0    0    0  501 -0.00000000000E+00 -0.00000000000E+00 -0.11960518594E+03  0.11960518594E+03  0.00000000000E+00 0.  1.
         25    2    1    2    0    0 -0.83854300201E+02 -0.90178536997E+02 -0.18744292074E+02  0.17653009443E+03  0.12509122094E+03 0.  0.
         23    2    1    2    0    0  0.83854300201E+02  0.90178536997E+02  0.24214691163E+03  0.28608289701E+03  0.89691610251E+02 0.  0.
          5    1    3    3  502    0 -0.23695738281E+02 -0.21286055094E+02  0.51796488671E+02  0.60950248505E+02  0.41800000000E+01 0. -1.
         -5    1    3    3    0  502 -0.60158561920E+02 -0.68892481903E+02 -0.70540780746E+02  0.11557984592E+03  0.41800000000E+01 0. -1.
        -11    1    4    4    0    0  0.24395666045E+02  0.77472033962E+02  0.84921119722E+02  0.11751025973E+03  0.00000000000E+00 0.  1.
         11    1    4    4    0    0  0.59458634156E+02  0.12706503035E+02  0.15722579191E+03  0.16857263727E+03  0.00000000000E+00 0. -1.
</event>
<event>
 8    1  0.6906553E-009  0.7834592E+02  0.7561462E-02  0.1333812E+00
          1   -1    0    0  501    0  0.00000000000E+00  0.00000000000E+00  0.12468381529E+03  0.12468381529E+03  0.00000000000E+00 0. -1.
         -1   -1    0    0    0  501 -0.00000000000E+00 -0.00000000000E+00 -0.95985929863E+02  0.95985929863E+02  0.00000000000E+00 0.  1.
         25    2    1    2    0    0  0.21264915370E+01 -0.12432363111E+02  0.21884164602E+01  0.12572948496E+03  0.12507609125E+03 0.  0.
         23    2    1    2    0    0 -0.21264915370E+01  0.12432363111E+02  0.26509468962E+02  0.94940260192E+02  0.90287404669E+02 0.  0.
          5    1    3    3  502    0 -0.29819208620E+02  0.46500646980E+02 -0.12923414498E+02  0.56885696045E+02  0.41800000000E+01 0. -1.
         -5    1    3    3    0  502  0.31945700157E+02 -0.58933010091E+02  0.15111830958E+02  0.68843788912E+02  0.41800000000E+01 0. -1.
        -11    1    4    4    0    0  0.60292377352E+01  0.21267079013E+02 -0.29944659893E+02  0.37219927640E+02  0.00000000000E+00 0.  1.
         11    1    4    4    0    0 -0.81557292721E+01 -0.88347159017E+01  0.56454128856E+02  0.57720332552E+02  0.00000000000E+00 0. -1.
</event>
<event>
 8    1  0.6906553E-009  0.1036439E+03  0.7561462E-02  0.1272815E+00
          2   -1    0    0  501    0  0.00000000000E+00  0.00000000000E+00  0.63594389002E+02  0.63594389002E+02  0.00000000000E+00 0. -1.
         -2   -1    0    0    0  501 -0.00000000000E+00 -0.00000000000E+00 -0.21161418399E+03  0.21161418399E+03  0.00000000000E+00 0.  1.
         25    2    1    2    0    0 -0.20233182688E+01  0.30923189476E+02 -0.10003899646E+03  0.16313959825E+03  0.12508553170E+03 0.  0.
         23    2    1    2    0    0  0.20233182688E+01 -0.30923189476E+02 -0.47980798530E+02  0.11206897474E+03  0.96420747811E+02 0.  0.
          5    1    3    3  502    0 -0.63520646716E+01 -0.37999747127E+02  0.31750352302E+01  0.38882936566E+02  0.41800000000E+01 0.  1.
         -5    1    3    3    0  502  0.43287464028E+01  0.68922936603E+02 -0.10321403169E+03  0.12425666169E+03  0.41800000000E+01 0.  1.
        -11    1    4    4    0    0  0.47786275483E+02 -0.90817279674E+01 -0.34391579101E+02  0.59571693114E+02  0.00000000000E+00 0.  1.
         11    1    4    4    0    0 -0.45762957214E+02 -0.21841461509E+02 -0.13589219430E+02  0.52497281630E+02  0.00000000000E+00 0. -1.
</event>
<event>
 8    1  0.6906553E-009  0.1391640E+03  0.7561462E-02  0.1214458E+00
          2   -1    0    0  501    0  0.00000000000E+00  0.00000000000E+00  0.46116985509E+03  0.46116985509E+03  0.00000000000E+00 0. -1.
         -2   -1    0    0    0  501 -0.00000000000E+00 -0.00000000000E+00 -0.52615376929E+02  0.52615376929E+02  0.00000000000E+00 0.  1.
         25    2    1    2    0    0  0.58340088584E+02  0.86577981647E+02  0.15606296681E+03  0.22561649818E+03  0.12509133383E+03 0.  0.
         23    2    1    2    0    0 -0.58340088584E+02 -0.86577981647E+02  0.25249151136E+03  0.28816873384E+03  0.91596632116E+02 0.  0.
          5    1    3    3  502    0 -0.34336200505E+02  0.45801026942E+01  0.15158111456E+02  0.38041986656E+02  0.41800000000E+01 0.  1.
         -5    1    3    3    0  502  0.92676289089E+02  0.81997878953E+02  0.14090485535E+03  0.18757451152E+03  0.41800000000E+01 0.  1.
        -11    1    4    4    0    0 -0.45093611071E+02 -0.16056265060E+02  0.35424964471E+02  0.59549689461E+02  0.00000000000E+00 0.  1.
         11    1    4    4    0    0 -0.13246477513E+02 -0.70521716587E+02  0.21706654689E+03  0.22861904438E+03  0.00000000000E+00 0. -1.
</event>
<event>
 8    1  0.6906553E-009  0.1290238E+03  0.7561462E-02  0.1228911E+00
          1   -1    0    0  501    0  0.00000000000E+00  0.00000000000E+00  0.82810660185E+03  0.82810660185E+03  0.00000000000E+00 0. -1.
         -1   -1    0    0    0  501 -0.00000000000E+00 -0.00000000000E+00 -0.23637906570E+02  0.23637906570E+02  0.00000000000E+00 0.  1.
         25    2    1    2    0    0 -0.29206569031E+02  0.76302581149E+02  0.53055627687E+03  0.55119094920E+03  0.12508553873E+03 0.  0.
         23    2    1    2    0    0  0.29206569031E+02 -0.76302581149E+02  0.27391241842E+03  0.30055355922E+03  0.92894140999E+02 0.  0.
          5    1    3    3  502    0  0.97870447884E+00 -0.28223051085E+02  0.42915342763E+02  0.51543161714E+02  0.41800000000E+01 0. -1.
         -5    1    3    3    0  502 -0.30185273510E+02  0.10452563223E+03  0.48764093410E+03  0.49964778749E+03  0.41800000000E+01 0. -1.
        -11    1    4    4    0    0  0.38479113512E+02 -0.93487032461E+02  0.19991806866E+03  0.22402611810E+03  0.00000000000E+00 0.  1.
         11    1    4    4    0    0 -0.92725444811E+01  0.17184451312E+02  0.73994349756E+02  0.76527441117E+02  0.00000000000E+00 0. -1.
</event>
<event>
 8    1  0.6906553E-009  0.8595468E+02  0.7561462E-02  0.1312955E+00
         -2   -1    0    0    0  501 -0.00000000000E+00  0.00000000000E+00  0.31288414338E+02  0.31288414338E+02  0.00000000000E+00 0.  1.
          2   -1    0    0  501    0  0.00000000000E+00 -0.00000000000E+00 -0.42524763445E+03  0.42524763445E+03  0.00000000000E+00 0. -1.
         25    2    1    2    0    0 -0.34347271126E+02  0.19839790017E+02 -0.24350819239E+03  0.27661776822E+03  0.12509115729E+03 0.  0.
         23    2    1    2    0    0  0.34347271126E+02 -0.19839790017E+02 -0.15045102772E+03  0.17991828057E+03  0.90342258320E+02 0.  0.
          5    1    3    3  502    0 -0.52552493564E+02 -0.19946461551E+02 -0.21932334165E+03  0.22645049460E+03  0.41800000000E+01 0. -1.
         -5    1    3    3    0  502  0.18205222438E+02  0.39786251568E+02 -0.24184850739E+02  0.50167273626E+02  0.41800000000E+01 0. -1.
        -11    1    4    4    0    0  0.14461117039E+02 -0.40446222806E+02 -0.21896694011E+02  0.48212924138E+02  0.00000000000E+00 0.  1.
         11    1    4    4    0    0  0.19886154087E+02  0.20606432790E+02 -0.12855433371E+03  0.13170535643E+03  0.00000000000E+00 0. -1.
</event>
<event>
 8    1  0.6906553E-009  0.1274767E+03  0.7561462E-02  0.1231249E+00
         -1   -1    0    0    0  501 -0.00000000000E+00  0.00000000000E+00  0.13293084593E+02  0.13293084593E+02  0.00000000000E+00 0.  1.
          1   -1    0    0  501    0  0.00000000000E+00 -0.00000000000E+00 -0.14802163057E+04  0.14802163057E+04  0.00000000000E+00 0. -1.
         25    2    1    2    0    0 -0.77524888406E+02  0.42877440303E+02 -0.83082923390E+03  0.84485150228E+03  0.12509301260E+03 0.  0.
         23    2    1    2    0    0  0.77524888406E+02 -0.42877440303E+02 -0.63609398724E+03  0.64865788804E+03  0.91065426507E+02 0.  0.
          5    1    3    3  502    0 -0.97266615028E+02  0.47392589396E+02 -0.42773845796E+03  0.44123067975E+03  0.41800000000E+01 0.  1.
         -5    1    3    3    0  502  0.19741726622E+02 -0.45151490935E+01 -0.40309077593E+03  0.40362082254E+03  0.41800000000E+01 0.  1.
        -11    1    4    4    0    0  0.87717631269E+02 -0.59855402577E+02 -0.56307546949E+03  0.57300177696E+03  0.00000000000E+00 0. -1.
         11    1    4    4    0    0 -0.10192742863E+02  0.16977962274E+02 -0.73018517749E+02  0.75656111083E+02  0.00000000000E+00 0.  1.
</event>
<event>
 8    1  0.6906553E-009  0.1280445E+03  0.7561462E-02  0.1230387E+00
          1   -1    0    0  501    0  0.00000000000E+00  0.00000000000E+00  0.95742602370E+02  0.95742602370E+02  0.00000000000E+00 0. -1.
         -1   -1    0    0    0  501 -0.00000000000E+00 -0.00000000000E+00 -0.27221889144E+03  0.27221889144E+03  0.00000000000E+00 0.  1.
         25    2    1    2    0    0  0.63004065848E+02 -0.59749354895E+02 -0.15148621449E+01  0.15228045565E+03  0.12509014606E+03 0.  0.
         23    2    1    2    0    0 -0.63004065848E+02  0.59749354895E+02 -0.17496142692E+03  0.21568103816E+03  0.91473010154E+02 0.  0.
          5    1    3    3  502    0  0.90998254105E+02 -0.39878992693E+02 -0.33741676048E+02  0.10500947296E+03  0.41800000000E+01 0.  1.
         -5    1    3    3    0  502 -0.27994188257E+02 -0.19870362202E+02  0.32226813904E+02  0.47270982691E+02  0.41800000000E+01 0.  1.
        -11    1    4    4    0    0 -0.84496189596E+02  0.42944870332E+02 -0.15571395942E+03  0.18229291018E+03  0.00000000000E+00 0.  1.
         11    1    4    4    0    0  0.21492123749E+02  0.16804484563E+02 -0.19247467508E+02  0.33388127982E+02  0.00000000000E+00 0. -1.
</event>
<event>
 8    1  0.6906553E-009  0.1252792E+03  0.7561462E-02  0.1234634E+00
         -2   -1    0    0    0  501 -0.00000000000E+00  0.00000000000E+00  0.15043487909E+03  0.15043487909E+03  0.00000000000E+00 0.  1.
          2   -1    0    0  501    0  0.00000000000E+00 -0.00000000000E+00 -0.16916405729E+03  0.16916405729E+03  0.00000000000E+00 0. -1.
         25    2    1    2    0    0  0.85600449384E+02 -0.56183275264E+02 -0.66774427937E+02  0.17489951198E+03  0.12508803983E+03 0.  0.
         23    2    1    2    0    0 -0.85600449384E+02  0.56183275264E+02  0.48045249738E+02  0.14469942441E+03  0.90252867258E+02 0.  0.
          5    1    3    3  502    0  0.70079204570E+00 -0.59948766453E+02 -0.66743339804E+02  0.89813648835E+02  0.41800000000E+01 0.  1.
         -5    1    3    3    0  502  0.84899657338E+02  0.37654911886E+01 -0.31088133025E-01  0.85085863141E+02  0.41800000000E+01 0.  1.
        -11    1    4    4    0    0 -0.85476155872E+01  0.16778051173E+02  0.54748307407E+02  0.57895957522E+02  0.00000000000E+00 0. -1.
         11    1    4    4    0    0 -0.77052833797E+02  0.39405224091E+02 -0.67030576697E+01  0.86803466889E+02  0.00000000000E+00 0.  1.
</event>
<event>
 8    1  0.6906553E-009  0.1477667E+03  0.7561462E-02  0.1203244E+00
          2   -1    0    0  501    0  0.00000000000E+00  0.00000000000E+00  0.19429451985E+03  0.19429451985E+03  0.00000000000E+00 0.  1.
         -2   -1    0    0    0  501 -0.00000000000E+00 -0.00000000000E+00 -0.11576650220E+03  0.11576650220E+03  0.00000000000E+00 0. -1.
         25    2    1    2    0    0  0.19951939159E+02 -0.97201804689E+02  0.45582322991E+02  0.16604680764E+03  0.12509006134E+03 0.  0.
         23    2    1    2    0    0 -0.19951939159E+02  0.97201804689E+02  0.32945694654E+02  0.14401421441E+03  0.99037389127E+02 0.  0.
          5    1    3    3  502    0 -0.50690916078E+02 -0.43458343922E+02  0.37812485423E+02  0.76846945828E+02  0.41800000000E+01 0.  1.
         -5    1    3    3    0  502  0.70642855237E+02 -0.53743460767E+02  0.77698375679E+01  0.89199861811E+02  0.41800000000E+01 0.  1.
        -11    1    4    4    0    0 -0.15576052403E+01  0.11450666545E+03  0.22619531483E+02  0.11672979813E+03  0.00000000000E+00 0. -1.
         11    1    4    4    0    0 -0.18394333918E+02 -0.17304860758E+02  0.10326163171E+02  0.27284416285E+02  0.00000000000E+00 0.  1.
</event>
<event>
 8    1  0.6906553E-009  0.2659764E+03  0.7561462E-02  0.1103605E+00
         -2   -1    0    0    0  501 -0.00000000000E+00  0.00000000000E+00  0.61586089527E+02  0.61586089527E+02  0.00000000000E+00 0.  1.
          2   -1    0    0  501    0  0.00000000000E+00 -0.00000000000E+00 -0.12074028269E+04  0.12074028269E+04  0.00000000000E+00 0. -1.
         25    2    1    2    0    0 -0.21975118167E+01 -0.24992175953E+03 -0.57121975710E+03  0.63592890784E+03  0.12509136652E+03 0.  0.
         23    2    1    2    0    0  0.21975118167E+01  0.24992175953E+03 -0.57459698028E+03  0.63306000859E+03  0.90208479586E+02 0.  0.
          5    1    3    3  502    0 -0.63511310813E+02 -0.12781224040E+03 -0.29302185200E+03  0.32595848439E+03  0.41800000000E+01 0. -1.
         -5    1    3    3    0  502  0.61313798996E+02 -0.12210951914E+03 -0.27819790509E+03  0.30997042344E+03  0.41800000000E+01 0. -1.
        -11    1    4    4    0    0  0.18969901623E+02  0.13633133952E+03 -0.21241734562E+03  0.25311503318E+03  0.00000000000E+00 0.  1.
         11    1    4    4    0    0 -0.16772389807E+02  0.11359042001E+03 -0.36217963466E+03  0.37994497542E+03  0.00000000000E+00 0. -1.
</event>
<event>
 8    1  0.6906553E-009  0.9759160E+02  0.7561462E-02  0.1285444E+00
          2   -1    0    0  501    0  0.00000000000E+00  0.00000000000E+00  0.25187659324E+03  0.25187659324E+03  0.00000000000E+00 0. -1.
         -2   -1    0    0    0  501 -0.00000000000E+00 -0.00000000000E+00 -0.53454070043E+02  0.53454070043E+02  0.00000000000E+00 0.  1.
         25    2    1    2    0    0 -0.29749553294E+02 -0.24587480673E+02  0.14908469032E+03  0.19839466143E+03  0.12507844207E+03 0.  0.
         23    2    1    2    0    0  0.29749553294E+02  0.24587480673E+02  0.49337832878E+02  0.10693600185E+03  0.86668948371E+02 0.  0.
          5    1    3    3  502    0  0.44323985059E+02  0.23782226636E+01  0.24407014680E+02  0.50827614149E+02  0.41800000000E+01 0. -1.
         -5    1    3    3    0  502 -0.74073538353E+02 -0.26965703337E+02  0.12467767564E+03  0.14756704728E+03  0.41800000000E+01 0. -1.
        -11    1    4    4    0    0  0.20770719150E+02 -0.18397211624E+02  0.56022948267E+02  0.62517604737E+02  0.00000000000E+00 0. -1.
         11    1    4    4    0    0  0.89788341438E+01  0.42984692297E+02 -0.66851153884E+01  0.44418397114E+02  0.00000000000E+00 0.  1.
</event>
<event>
 8    1  0.6906553E-009  0.1031504E+03  0.7561462E-02  0.1273807E+00
          1   -1    0    0  501    0  0.00000000000E+00  0.00000000000E+00  0.90358831813E+02  0.90358831813E+02  0.00000000000E+00 0. -1.
         -1   -1    0    0    0  501 -0.00000000000E+00 -0.00000000000E+00 -0.14646802501E+03  0.14646802501E+03  0.00000000000E+00 0.  1.
         25    2    1    2    0    0  0.11743179406E+02 -0.36428304174E+02 -0.35639864378E+02  0.13558413332E+03  0.12509170104E+03 0.  0.
         23    2    1    2    0    0 -0.11743179406E+02  0.36428304174E+02 -0.20469328816E+02  0.10124272350E+03  0.91466781026E+02 0.  0.
          5    1    3    3  502    0  0.26163005434E+02  0.31739706562E+02 -0.49421387302E+02  0.64434910948E+02  0.41800000000E+01 0. -1.
         -5    1    3    3    0  502 -0.14419826028E+02 -0.68168010736E+02  0.13781522924E+02  0.71149222375E+02  0.41800000000E+01 0. -1.
        -11    1    4    4    0    0 -0.48647130871E+02  0.31421149876E+02 -0.26198533592E+02  0.63562529558E+02  0.00000000000E+00 0. -1.
         11    1    4    4    0    0  0.36903951464E+02  0.50071542977E+01  0.57292047763E+01  0.37680193938E+02  0.00000000000E+00 0.  1.
</event>
<event>
 8    1  0.6906553E-009  0.6437998E+02  0.7561462E-02  0.1380319E+00
         -1   -1    0    0    0  501 -0.00000000000E+00  0.00000000000E+00  0.63692815711E+02  0.63692815711E+02  0.00000000000E+00 0.  1.
          1   -1    0    0  501    0  0.00000000000E+00 -0.00000000000E+00 -0.20346093203E+03  0.20346093203E+03  0.00000000000E+00 0. -1.
         25    2    1    2    0    0 -0.33857955890E+02 -0.75222176726E+01 -0.88433020294E+02  0.15706321545E+03  0.12508201162E+03 0.  0.
         23    2    1    2    0    0  0.33857955890E+02  0.75222176726E+01 -0.51335096026E+02  0.11009053230E+03  0.91003781688E+02 0.  0.
          5    1    3    3  502    0 -0.59855863572E+02 -0.94344703569E+01 -0.10819978683E+03  0.12408223042E+03  0.41800000000E+01 0.  1.
         -5    1    3    3    0  502  0.25997907682E+02  0.19122526843E+01  0.19766766537E+02  0.32980985029E+02  0.41800000000E+01 0.  1.
        -11    1    4    4    0    0  0.17107164795E+02  0.15483376341E+02 -0.75889126256E+02  0.79319288412E+02  0.00000000000E+00 0. -1.
         11    1    4    4    0    0  0.16750791095E+02 -0.79611586681E+01  0.24554030230E+02  0.30771243884E+02  0.00000000000E+00 0.  1.
</event>
<event>
 8    1  0.6906553E-009  0.1231837E+03  0.7561462E-02  0.1237935E+00
         -2   -1    0    0    0  501 -0.00000000000E+00  0.00000000000E+00  0.15605201367E+03  0.15605201367E+03  0.00000000000E+00 0.  1.
          2   -1    0    0  501    0  0.00000000000E+00 -0.00000000000E+00 -0.11344655697E+03  0.11344655697E+03  0.00000000000E+00 0. -1.
         25    2    1    2    0    0 -0.55154524504E+02  0.51533237380E+02  0.25945687270E+02  0.14838508558E+03  0.12508900354E+03 0.  0.
         23    2    1    2    0    0  0.55154524504E+02 -0.51533237380E+02  0.16659769432E+02  0.12111348506E+03  0.93237504357E+02 0.  0.
          5    1    3    3  502    0 -0.69010700577E+01 -0.32750086761E+02 -0.21721310224E+02  0.40118333323E+02  0.41800000000E+01 0. -1.
         -5    1    3    3    0  502 -0.48253454446E+02  0.84283324141E+02  0.47666997493E+02  0.10826675226E+03  0.41800000000E+01 0. -1.
        -11    1    4    4    0    0  0.57008697139E+02 -0.73705370076E+02 -0.22910858695E+00  0.93180070929E+02  0.00000000000E+00 0. -1.
         11    1    4    4    0    0 -0.18541726356E+01  0.22172132697E+02  0.16888878018E+02  0.27933414134E+02  0.00000000000E+00 0.  1.
</event>
<event>
 8    1  0.6906553E-009  0.1343445E+03  0.7561462E-02  0.1221148E+00
         -2   -1    0    0    0  501 -0.00000000000E+00  0.00000000000E+00  0.29135850337E+02  0.29135850337E+02  0.00000000000E+00 0.  1.
          2   -1    0    0  501    0  0.00000000000E+00 -0.00000000000E+00 -0.77233637578E+03  0.77233637578E+03  0.00000000000E+00 0. -1.
         25    2    1    2    0    0 -0.16511078304E+02 -0.93253804942E+02 -0.50794792614E+03  0.53162720548E+03  0.12508997599E+03 0.  0.
         23    2    1    2    0    0  0.16511078304E+02  0.93253804942E+02 -0.23525259930E+03  0.26984502064E+03  0.92215301558E+02 0.  0.
          5    1    3    3  502    0  0.50050964253E+02 -0.23659560171E+02 -0.25409545460E+03  0.26009007336E+03  0.41800000000E+01 0.  1.
         -5    1    3    3    0  502 -0.66562042557E+02 -0.69594244771E+02 -0.25385247154E+03  0.27153713212E+03  0.41800000000E+01 0.  1.
        -11    1    4    4    0    0 -0.19648547428E+01  0.97744922233E+02 -0.23030700352E+03  0.25019841395E+03  0.00000000000E+00 0. -1.
         11    1    4    4    0    0  0.18475933047E+02 -0.44911172911E+01 -0.49455957854E+01  0.19646606683E+02  0.00000000000E+00 0.  1.
</event>
<event>
 8    1  0.6906553E-009  0.9927266E+02  0.7561462E-02  0.1281833E+00
          2   -1    0    0  501    0  0.00000000000E+00  0.00000000000E+00  0.12408348327E+03  0.12408348327E+03  0.00000000000E+00 0. -1.
         -2   -1    0    0    0  501 -0.00000000000E+00 -0.00000000000E+00 -0.12509934971E+03  0.12509934971E+03  0.00000000000E+00 0.  1.
         25    2    1    2    0    0  0.75696695947E+00 -0.64483007731E+02  0.76516692557E+01  0.14094273357E+03  0.12509066639E+03 0.  0.
         23    2    1    2    0    0 -0.75696695947E+00  0.64483007731E+02 -0.86675356890E+01  0.10824009941E+03  0.86499489365E+02 0.  0.
          5    1    3    3  502    0 -0.32138385200E+02 -0.34682806392E+02 -0.49418277258E+02  0.68523071951E+02  0.41800000000E+01 0.  1.
         -5    1    3    3    0  502  0.32895352159E+02 -0.29800201339E+02  0.57069946514E+02  0.72419661616E+02  0.41800000000E+01 0.  1.
        -11    1    4    4    0    0 -0.42143361310E+02  0.41536153945E+02  0.38290714899E+01  0.59295672485E+02  0.00000000000E+00 0.  1.
         11    1    4    4    0    0  0.41386394350E+02  0.22946853786E+02 -0.12496607179E+02  0.48944426925E+02  0.00000000000E+00 0. -1.
</event>
<event>
 8    1  0.6906553E-009  0.1944092E+03  0.7561462E-02  0.1154544E+00
         -2   -1    0    0    0  501 -0.00000000000E+00  0.00000000000E+00  0.10440979026E+03  0.10440979026E+03  0.00000000000E+00 0.  1.
          2   -1    0    0  501    0  0.00000000000E+00 -0.00000000000E+00 -0.45422881212E+03  0.45422881212E+03  0.00000000000E+00 0. -1.
         25    2    1    2    0    0  0.82252737475E+02 -0.14333682789E+03 -0.66103066662E+02  0.21755122552E+03  0.12509181128E+03 0.  0.
         23    2    1    2    0    0 -0.82252737475E+02  0.14333682789E+03 -0.28371595520E+03  0.34108737686E+03  0.92384502863E+02 0.  0.
          5    1    3    3  502    0  0.55746677696E+02 -0.14380125239E+01  0.58105460432E+01  0.56222724938E+02  0.41800000000E+01 0.  1.
         -5    1    3    3    0  502  0.26506059779E+02 -0.14189881536E+03 -0.71913612705E+02  0.16132850058E+03  0.41800000000E+01 0.  1.
        -11    1    4    4    0    0 -0.48939839282E+02  0.14703472351E+03 -0.24480891403E+03  0.28973388165E+03  0.00000000000E+00 0. -1.
         11    1    4    4    0    0 -0.33312898192E+02 -0.36978956244E+01 -0.38907041170E+02  0.51353495213E+02  0.00000000000E+00 0.  1.
</event>
<event>
 8    1  0.6906553E-009  0.1122922E+03  0.7561462E-02  0.1256383E+00
          1   -1    0    0  501    0  0.00000000000E+00  0.00000000000E+00  0.12617695953E+03  0.12617695953E+03  0.00000000000E+00 0. -1.
         -1   -1    0    0    0  501 -0.00000000000E+00 -0.00000000000E+00 -0.29689529699E+03  0.29689529699E+03  0.00000000000E+00 0.  1.
         25    2    1    2    0    0 -0.41671667483E+01  0.72043303284E+02 -0.24868231470E+03  0.28757226546E+03  0.12508921372E+03 0.  0.
         23    2    1    2    0    0  0.41671667483E+01 -0.72043303284E+02  0.77963977242E+02  0.13549999106E+03  0.84108638093E+02 0.  0.
          5    1    3    3  502    0  0.33141967582E+02  0.68321728177E+02 -0.64963510381E+02  0.10001989121E+03  0.41800000000E+01 0.  1.
         -5    1    3    3    0  502 -0.37309134330E+02  0.37215751075E+01 -0.18371880432E+03  0.18755237425E+03  0.41800000000E+01 0.  1.
        -11    1    4    4    0    0 -0.39924775040E+01  0.18991805547E+02  0.14553806665E+02  0.24257820244E+02  0.00000000000E+00 0. -1.
         11    1    4    4    0    0  0.81596442523E+01 -0.91035108831E+02  0.63410170578E+02  0.11124217081E+03  0.00000000000E+00 0.  1.
</event>
<event>
 8    1  0.6906553E-009  0.1209510E+03  0.7561462E-02  0.1241536E+00
          3   -1    0    0  501    0  0.00000000000E+00  0.00000000000E+00  0.13352104666E+03  0.13352104666E+03  0.00000000000E+00 0. -1.
         -3   -1    0    0    0  501 -0.00000000000E+00 -0.00000000000E+00 -0.24337325946E+03  0.24337325946E+03  0.00000000000E+00 0.  1.
         25    2    1    2    0    0 -0.19008295295E+02  0.78729205241E+02 -0.18224105555E+03  0.23541189540E+03  0.12508938851E+03 0.  0.
         23    2    1    2    0    0  0.19008295295E+02 -0.78729205241E+02  0.72388842755E+02  0.14148241072E+03  0.90650565031E+02 0.  0.
          5    1    3    3  502    0 -0.16425164367E+02  0.10567906220E+03 -0.92102852147E+02  0.14120289652E+03  0.41800000000E+01 0. -1.
         -5    1    3    3    0  502 -0.25831309286E+01 -0.26949856963E+02 -0.90138203405E+02  0.94208998874E+02  0.41800000000E+01 0. -1.
        -11    1    4    4    0    0  0.10015407032E+02 -0.91396390213E+02  0.82014603238E+02  0.12320715753E+03  0.00000000000E+00 0. -1.
         11    1    4    4    0    0  0.89928882627E+01  0.12667184972E+02 -0.96257604833E+01  0.18275253194E+02  0.00000000000E+00 0.  1.
</event>
<event>
 8    1  0.6906553E-009  0.1833756E+03  0.7561462E-02  0.1164576E+00
         -3   -1    0    0    0  501 -0.00000000000E+00  0.00000000000E+00  0.12496441043E+03  0.12496441043E+03  0.00000000000E+00 0.  1.
          3   -1    0    0  501    0  0.00000000000E+00 -0.00000000000E+00 -0.32807265575E+03  0.32807265575E+03  0.00000000000E+00 0. -1.
         25    2    1    2    0    0  0.10095172956E+03 -0.13608932081E+03 -0.12506538048E+03  0.24495005043E+03  0.12509045874E+03 0.  0.
         23    2    1    2    0    0 -0.10095172956E+03  0.13608932081E+03 -0.78042864834E+02  0.20808701575E+03  0.92184393650E+02 0.  0.
          5    1    3    3  502    0 -0.43942186161E+01 -0.51170420639E+02  0.11349852134E+02  0.52763743698E+02  0.41800000000E+01 0. -1.
         -5    1    3    3    0  502  0.10534594818E+03 -0.84918900169E+02 -0.13641523262E+03  0.19218630673E+03  0.41800000000E+01 0. -1.
        -11    1    4    4    0    0 -0.83020410895E+02  0.13877868087E+03 -0.40980699557E+02  0.16682724186E+03  0.00000000000E+00 0.  1.
         11    1    4    4    0    0 -0.17931318668E+02 -0.26893600628E+01 -0.37062165277E+02  0.41259773893E+02  0.00000000000E+00 0. -1.
</event>
<event>
 8    1  0.6906553E-009  0.8719735E+02  0.7561462E-02  0.1309784E+00
         -2   -1    0    0    0  501 -0.00000000000E+00  0.00000000000E+00  0.16514394467E+04  0.16514394467E+04  0.00000000000E+00 0.  1.
          2   -1    0    0  501    0  0.00000000000E+00 -0.00000000000E+00 -0.38866960606E+02  0.38866960606E+02  0.00000000000E+00 0. -1.
         25    2    1    2    0    0  0.53557615179E+02  0.59290228475E+02  0.15410803969E+04  0.15482118053E+04  0.12508898858E+03 0.  0.
         23    2    1    2    0    0 -0.53557615179E+02 -0.59290228475E+02  0.71492089202E+02  0.14209460200E+03  0.93252387441E+02 0.  0.
          5    1    3    3  502    0  0.49221791187E+02  0.42570726654E+02  0.15163867896E+04  0.15177883316E+04  0.41800000000E+01 0. -1.
         -5    1    3    3    0  502  0.43358239927E+01  0.16719501821E+02  0.24693607313E+02  0.30423473716E+02  0.41800000000E+01 0. -1.
        -11    1    4    4    0    0  0.27885037868E+01 -0.25622461130E+02  0.71979049360E+02  0.76454364261E+02  0.00000000000E+00 0.  1.
         11    1    4    4    0    0 -0.56346118966E+02 -0.33667767345E+02 -0.48696015801E+00  0.65640237741E+02  0.00000000000E+00 0. -1.
</event>
<event>
 8    1  0.6906553E-009  0.1299020E+03  0.7561462E-02  0.1227601E+00
          2   -1    0    0  501    0  0.00000000000E+00  0.00000000000E+00  0.15993730611E+04  0.15993730611E+04  0.00000000000E+00 0. -1.
         -2   -1    0    0    0  501 -0.00000000000E+00 -0.00000000000E+00 -0.21123919761E+02  0.21123919761E+02  0.00000000000E+00 0.  1.
         25    2    1    2    0    0  0.12046860441E+02  0.85990565671E+02  0.13626792851E+04  0.13711612598E+04  0.12509541263E+03 0.  0.
         23    2    1    2    0    0 -0.12046860441E+02 -0.85990565671E+02  0.21556985623E+03  0.24933572100E+03  0.90324053375E+02 0.  0.
          5    1    3    3  502    0 -0.16566720045E+02 -0.24333669882E+02  0.51310674704E+03  0.51396749894E+03  0.41800000000E+01 0. -1.
         -5    1    3    3    0  502  0.28613580486E+02  0.11032423555E+03  0.84957253804E+03  0.85719376090E+03  0.41800000000E+01 0. -1.
        -11    1    4    4    0    0 -0.27136634474E+02  0.15570218828E+01  0.17696146298E+02  0.32434161643E+02  0.00000000000E+00 0.  1.
         11    1    4    4    0    0  0.15089774032E+02 -0.87547587554E+02  0.19787370994E+03  0.21690155935E+03  0.00000000000E+00 0. -1.
</event>
<event>
 8    1  0.6906553E-009  0.1347747E+03  0.7561462E-02  0.1220538E+00
         -2   -1    0    0    0  501 -0.00000000000E+00  0.00000000000E+00  0.20202766997E+02  0.20202766997E+02  0.00000000000E+00 0.  1.
          2   -1    0    0  501    0  0.00000000000E+00 -0.00000000000E+00 -0.10431006546E+04  0.10431006546E+04  0.00000000000E+00 0. -1.
         25    2    1    2    0    0 -0.35095806664E+02  0.78701782441E+02 -0.42502532140E+03  0.45135288723E+03  0.12508884351E+03 0.  0.
         23    2    1    2    0    0  0.35095806664E+02 -0.78701782441E+02 -0.59787256622E+03  0.61195053439E+03  0.98011044769E+02 0.  0.
          5    1    3    3  502    0 -0.28167951446E+02 -0.23741629515E+02 -0.48449584259E+02  0.61007647681E+02  0.41800000000E+01 0.  1.
         -5    1    3    3    0  502 -0.69278552180E+01  0.10244341196E+03 -0.37657573714E+03  0.39034523954E+03  0.41800000000E+01 0.  1.
        -11    1    4    4    0    0 -0.33676350354E+02 -0.19158178002E+02 -0.14915119022E+03  0.15410129754E+03  0.00000000000E+00 0. -1.
         11    1    4    4    0    0  0.68772157018E+02 -0.59543604438E+02 -0.44872137600E+03  0.45784923685E+03  0.00000000000E+00 0.  1.
</event>
<event>
 8    1  0.6906553E-009  0.8194048E+02  0.7561462E-02  0.1323633E+00
          2   -1    0    0  501    0  0.00000000000E+00  0.00000000000E+00  0.31116436472E+03  0.31116436472E+03  0.00000000000E+00 0. -1.
         -2   -1    0    0    0  501 -0.00000000000E+00 -0.00000000000E+00 -0.44529396723E+02  0.44529396723E+02  0.00000000000E+00 0.  1.
         25    2    1    2    0    0  0.82387768697E+01  0.33511392960E+02  0.19678034323E+03  0.23571225066E+03  0.12508745232E+03 0.  0.
         23    2    1    2    0    0 -0.82387768697E+01 -0.33511392960E+02  0.69854624765E+02  0.11998151078E+03  0.91241456728E+02 0.  0.
          5    1    3    3  502    0 -0.92177843020E+00  0.48296798403E+02  0.11842660720E+02  0.49911435808E+02  0.41800000000E+01 0. -1.
         -5    1    3    3    0  502  0.91605552999E+01 -0.14785405443E+02  0.18493768251E+03  0.18580081485E+03  0.41800000000E+01 0. -1.
        -11    1    4    4    0    0 -0.43034746898E+02 -0.43616259898E+02  0.45610658711E+02  0.76385206396E+02  0.00000000000E+00 0. -1.
         11    1    4    4    0    0  0.34795970028E+02  0.10104866939E+02  0.24243966054E+02  0.43596304386E+02  0.00000000000E+00 0.  1.
</event>
<event>
 8    1  0.6906553E-009  0.1100324E+03  0.7561462E-02  0.1260510E+00
         -1   -1    0    0    0  501 -0.00000000000E+00  0.00000000000E+00  0.52527771115E+02  0.52527771115E+02  0.00000000000E+00 0.  1.
          1   -1    0    0  501    0  0.00000000000E+00 -0.00000000000E+00 -0.25051489110E+03  0.25051489110E+03  0.00000000000E+00 0. -1.
         25    2    1    2    0    0 -0.28213798473E+02 -0.92726042595E+01 -0.82255674093E+02  0.15263274288E+03  0.12509499855E+03 0.  0.
         23    2    1    2    0    0  0.28213798473E+02  0.92726042595E+01 -0.11573144589E+03  0.15040991934E+03  0.91363978969E+02 0.  0.
          5    1    3    3  502    0  0.37382350337E+02 -0.37667778218E+02 -0.53505340892E+02  0.75475794375E+02  0.41800000000E+01 0.  1.
         -5    1    3    3    0  502 -0.65596148809E+02  0.28395173958E+02 -0.28750333201E+02  0.77156948500E+02  0.41800000000E+01 0.  1.
        -11    1    4    4    0    0  0.56470612959E+02 -0.14502344620E+02 -0.60963152904E+02  0.84354929550E+02  0.00000000000E+00 0.  1.
         11    1    4    4    0    0 -0.28256814486E+02  0.23774948879E+02 -0.54768292985E+02  0.66054989786E+02  0.00000000000E+00 0. -1.
</event>
<event>
 8    1  0.6906553E-009  0.1587459E+03  0.7561462E-02  0.1190120E+00
         -1   -1    0    0    0  501 -0.00000000000E+00  0.00000000000E+00  0.16770044893E+03  0.16770044893E+03  0.00000000000E+00 0.  1.
          1   -1    0    0  501    0  0.00000000000E+00 -0.00000000000E+00 -0.17168964424E+03  0.17168964424E+03  0.00000000000E+00 0. -1.
         25    2    1    2    0    0  0.10187811435E+03  0.64865623477E+02  0.45349040796E+02  0.17969628555E+03  0.12509004855E+03 0.  0.
         23    2    1    2    0    0 -0.10187811435E+03 -0.64865623477E+02 -0.49338236107E+02  0.15969380763E+03  0.92093166735E+02 0.  0.
          5    1    3    3  502    0 -0.23709169605E+02  0.24847864220E+02 -0.10974649858E+02  0.36296782491E+02  0.41800000000E+01 0.  1.
         -5    1    3    3    0  502  0.12558728396E+03  0.40017759257E+02  0.56323690654E+02  0.14339950306E+03  0.41800000000E+01 0.  1.
        -11    1    4    4    0    0 -0.73466214507E+02  0.69430722261E+01 -0.15620641758E+02  0.75428743691E+02  0.00000000000E+00 0. -1.
         11    1    4    4    0    0 -0.28411899845E+02 -0.71808695703E+02 -0.33717594350E+02  0.84265063936E+02  0.00000000000E+00 0.  1.
</event>
<event>
 8    1  0.6906553E-009  0.2010956E+03  0.7561462E-02  0.1148818E+00
         -2   -1    0    0    0  501 -0.00000000000E+00  0.00000000000E+00  0.14587543910E+04  0.14587543910E+04  0.00000000000E+00 0.  1.
          2   -1    0    0  501    0  0.00000000000E+00 -0.00000000000E+00 -0.35122707838E+02  0.35122707838E+02  0.00000000000E+00 0. -1.
         25    2    1    2    0    0  0.31732412537E+02  0.19019258800E+03  0.58314319495E+03  0.62680421543E+03  0.12508945652E+03 0.  0.
         23    2    1    2    0    0 -0.31732412537E+02 -0.19019258800E+03  0.84048848822E+03  0.86707288342E+03  0.90632884670E+02 0.  0.
          5    1    3    3  502    0  0.58802978800E+02  0.13069872524E+03  0.50439882882E+03  0.52438115718E+03  0.41800000000E+01 0.  1.
         -5    1    3    3    0  502 -0.27070566262E+02  0.59493862759E+02  0.78744366126E+02  0.10242305825E+03  0.41800000000E+01 0.  1.
        -11    1    4    4    0    0 -0.30159497474E+02 -0.14536008218E+03  0.76491285883E+03  0.77918600500E+03  0.00000000000E+00 0.  1.
         11    1    4    4    0    0 -0.15729150633E+01 -0.44832505822E+02  0.75575629392E+02  0.87886878418E+02  0.00000000000E+00 0. -1.
</event>
<event>
 8    1  0.6906553E-009  0.8497097E+02  0.7561462E-02  0.1315508E+00
         -2   -1    0    0    0  501 -0.00000000000E+00  0.00000000000E+00  0.92165222783E+03  0.92165222783E+03  0.00000000000E+00 0. -1.
          2   -1    0    0  501    0  0.00000000000E+00 -0.00000000000E+00 -0.30588826603E+02  0.30588826603E+02  0.00000000000E+00 0.  1.
         25    2    1    2    0    0  0.49644288154E+02  0.90342036275E+01  0.80455546454E+03  0.81578389992E+03  0.12509078173E+03 0.  0.
         23    2    1    2    0    0 -0.49644288154E+02 -0.90342036275E+01  0.86507936689E+02  0.13645715451E+03  0.92686351344E+02 0.  0.
          5    1    3    3  502    0 -0.14792450622E+02  0.14276668057E+02  0.61696797533E+03  0.61732454578E+03  0.41800000000E+01 0. -1.
         -5    1    3    3    0  502  0.64436738777E+02 -0.52424644295E+01  0.18758748921E+03  0.19845935414E+03  0.41800000000E+01 0. -1.
        -11    1    4    4    0    0 -0.30865315818E+02 -0.38433719227E+02  0.72006239268E+01  0.49816337472E+02  0.00000000000E+00 0.  1.
         11    1    4    4    0    0 -0.18778972336E+02  0.29399515600E+02  0.79307312762E+02  0.86640817039E+02  0.00000000000E+00 0. -1.
</event>
<event>
 8    1  0.6906553E-009  0.7747397E+02  0.7561462E-02  0.1336377E+00
         -1   -1    0    0    0  501 -0.00000000000E+00  0.00000000000E+00  0.53682636073E+03  0.53682636073E+03  0.00000000000E+00 0.  1.
          1   -1    0    0  501    0  0.00000000000E+00 -0.00000000000E+00 -0.30293663756E+02  0.30293663756E+02  0.00000000000E+00 0. -1.
         25    2    1    2    0    0  0.22086236920E+02 -0.42736007275E+02  0.39085177476E+03  0.41319170108E+03  0.12509238116E+03 0.  0.
         23    2    1    2    0    0 -0.22086236920E+02  0.42736007275E+02  0.11568092221E+03  0.15392832341E+03  0.89429775825E+02 0.  0.
          5    1    3    3  502    0 -0.22095133090E+02 -0.43320521273E+02  0.34830981464E+03  0.35171303906E+03  0.41800000000E+01 0.  1.
         -5    1    3    3    0  502  0.44181370009E+02  0.58451399768E+00  0.42541960123E+02  0.61478662018E+02  0.41800000000E+01 0.  1.
        -11    1    4    4    0    0 -0.11058408450E+02  0.48197690277E+02  0.12756891010E+03  0.13681788103E+03  0.00000000000E+00 0.  1.
         11    1    4    4    0    0 -0.11027828469E+02 -0.54616830014E+01 -0.11887987895E+02  0.17110442371E+02  0.00000000000E+00 0. -1.
</event>
<event>
 8    1  0.6906553E-009  0.7653738E+02  0.7561462E-02  0.1339175E+00
         -1   -1    0    0    0  501 -0.00000000000E+00  0.00000000000E+00  0.28987112053E+02  0.28987112053E+02  0.00000000000E+00 0.  1.
          1   -1    0    0  501    0  0.00000000000E+00 -0.00000000000E+00 -0.42101853023E+03  0.42101853023E+03  0.00000000000E+00 0. -1.
         25    2    1    2    0    0  0.71858395839E+01  0.16316189077E+02 -0.20744548373E+03  0.24289758651E+03  0.12509098487E+03 0.  0.
         23    2    1    2    0    0 -0.71858395839E+01 -0.16316189077E+02 -0.18458593445E+03  0.20710805577E+03  0.92216729789E+02 0.  0.
          5    1    3    3  502    0  0.33546294973E+02  0.15702741359E+02 -0.37531130958E+01  0.37463158576E+02  0.41800000000E+01 0. -1.
         -5    1    3    3    0  502 -0.26360455389E+02  0.61344771857E+00 -0.20369237064E+03  0.20543442794E+03  0.41800000000E+01 0. -1.
        -11    1    4    4    0    0 -0.33207023103E+02 -0.41324099101E+02 -0.75853714071E+02  0.92542819755E+02  0.00000000000E+00 0.  1.
         11    1    4    4    0    0  0.26021183519E+02  0.25007910023E+02 -0.10873222038E+03  0.11456523602E+03  0.00000000000E+00 0. -1.
</event>
<event>
 8    1  0.6906553E-009  0.1040685E+03  0.7561462E-02  0.1271966E+00
         -1   -1    0    0    0  501 -0.00000000000E+00  0.00000000000E+00  0.32097102616E+02  0.32097102616E+02  0.00000000000E+00 0.  1.
          1   -1    0    0  501    0  0.00000000000E+00 -0.00000000000E+00 -0.47064885697E+03  0.47064885697E+03  0.00000000000E+00 0. -1.
         25    2    1    2    0    0 -0.20636153507E+01 -0.29724223951E+02 -0.34518820279E+03  0.36836251379E+03  0.12509299828E+03 0.  0.
         23    2    1    2    0    0  0.20636153507E+01  0.29724223951E+02 -0.93363551558E+02  0.13438344580E+03  0.91947646771E+02 0.  0.
          5    1    3    3  502    0 -0.56728927772E+02  0.86688213140E+01 -0.20652728607E+03  0.21439289168E+03  0.41800000000E+01 0.  1.
         -5    1    3    3    0  502  0.54665312421E+02 -0.38393045265E+02 -0.13866091672E+03  0.15396962211E+03  0.41800000000E+01 0.  1.
        -11    1    4    4    0    0 -0.15996991554E+02 -0.22953825540E+02 -0.67327913120E+02  0.72909736873E+02  0.00000000000E+00 0. -1.
         11    1    4    4    0    0  0.18060606905E+02  0.52678049492E+02 -0.26035638438E+02  0.61473708924E+02  0.00000000000E+00 0.  1.
</event>
<event>
 8    1  0.6906553E-009  0.1793241E+03  0.7561462E-02  0.1168459E+00
          4   -1    0    0  501    0  0.00000000000E+00  0.00000000000E+00  0.86257971954E+03  0.86257971954E+03  0.00000000000E+00 0. -1.
         -4   -1    0    0    0  501 -0.00000000000E+00 -0.00000000000E+00 -0.42839139704E+02  0.42839139704E+02  0.00000000000E+00 0.  1.
         25    2    1    2    0    0  0.21872528916E+02 -0.14428241558E+03  0.28540389412E+03  0.34409075701E+03  0.12508894161E+03 0.  0.
         23    2    1    2    0    0 -0.21872528916E+02  0.14428241558E+03  0.53433668572E+03  0.56132810224E+03  0.90981985531E+02 0.  0.
          5    1    3    3  502    0  0.60631135808E+02 -0.13894782087E+03  0.24115079397E+03  0.28487507680E+03  0.41800000000E+01 0. -1.
         -5    1    3    3    0  502 -0.38758606893E+02 -0.53345947119E+01  0.44253100151E+02  0.59215680204E+02  0.41800000000E+01 0. -1.
        -11    1    4    4    0    0  0.21275167650E+02  0.50325891961E+01  0.36119407222E+02  0.42220507939E+02  0.00000000000E+00 0. -1.
         11    1    4    4    0    0 -0.43147696566E+02  0.13924982638E+03  0.49821727850E+03  0.51910759430E+03  0.00000000000E+00 0.  1.
</event>
<event>
 8    1  0.6906553E-009  0.1404444E+03  0.7561462E-02  0.1212732E+00
         -1   -1    0    0    0  501 -0.00000000000E+00  0.00000000000E+00  0.21220051496E+03  0.21220051496E+03  0.00000000000E+00 0.  1.
          1   -1    0    0  501    0  0.00000000000E+00 -0.00000000000E+00 -0.14536968246E+03  0.14536968246E+03  0.00000000000E+00 0. -1.
         25    2    1    2    0    0 -0.89896956654E+02  0.98673858384E+02  0.32075570135E+00  0.18293559697E+03  0.12508931453E+03 0.  0.
         23    2    1    2    0    0  0.89896956654E+02 -0.98673858384E+02  0.66510076796E+02  0.17463460045E+03  0.90860663741E+02 0.  0.
          5    1    3    3  502    0 -0.65776896683E-01  0.23481769409E+02  0.50172905139E+02  0.55553493421E+02  0.41800000000E+01 0. -1.
         -5    1    3    3    0  502 -0.89831179758E+02  0.75192088975E+02 -0.49852149438E+02  0.12738210355E+03  0.41800000000E+01 0. -1.
        -11    1    4    4    0    0 -0.10922543324E+00 -0.20791314971E+02 -0.18930632324E+02  0.28118669040E+02  0.00000000000E+00 0.  1.
         11    1    4    4    0    0  0.90006182087E+02 -0.77882543413E+02  0.85440709120E+02  0.14651593141E+03  0.00000000000E+00 0. -1.
</event>
<event>
 8    1  0.6906553E-009  0.8471519E+02  0.7561462E-02  0.1316179E+00
         -1   -1    0    0    0  501 -0.00000000000E+00  0.00000000000E+00  0.11858659943E+03  0.11858659943E+03  0.00000000000E+00 0.  1.
          1   -1    0    0  501    0  0.00000000000E+00 -0.00000000000E+00 -0.17018607903E+03  0.17018607903E+03  0.00000000000E+00 0. -1.
         25    2    1    2    0    0 -0.70658113383E+01  0.60504420705E+02 -0.10221613138E+03  0.17264581961E+03  0.12509089056E+03 0.  0.
         23    2    1    2    0    0  0.70658113383E+01 -0.60504420705E+02  0.50616651779E+02  0.11612685885E+03  0.84927564985E+02 0.  0.
          5    1    3    3  502    0  0.46331995111E+01  0.49346066343E+02  0.16772731190E+02  0.52490929814E+02  0.41800000000E+01 0. -1.
         -5    1    3    3    0  502 -0.11699010849E+02  0.11158354362E+02 -0.11898886257E+03  0.12015488980E+03  0.41800000000E+01 0. -1.
        -11    1    4    4    0    0 -0.28011158030E+02  0.52202362156E+01  0.23196773080E+02  0.36741885113E+02  0.00000000000E+00 0.  1.
         11    1    4    4    0    0  0.35076969368E+02 -0.65724656920E+02  0.27419878699E+02  0.79384973737E+02  0.00000000000E+00 0. -1.
</event>
<event>
 8    1  0.6906553E-009  0.1393811E+03  0.7561462E-02  0.1214164E+00
         -2   -1    0    0    0  501 -0.00000000000E+00  0.00000000000E+00  0.35606278776E+03  0.35606278776E+03  0.00000000000E+00 0. -1.
          2   -1    0    0  501    0  0.00000000000E+00 -0.00000000000E+00 -0.83668458079E+02  0.83668458079E+02  0.00000000000E+00 0.  1.
         25    2    1    2    0    0  0.20807440335E+02 -0.11646018080E+03  0.67552905804E+02  0.18495093806E+03  0.12509009202E+03 0.  0.
         23    2    1    2    0    0 -0.20807440335E+02  0.11646018080E+03  0.20484142388E+03  0.25478030778E+03  0.94641814285E+02 0.  0.
          5    1    3    3  502    0 -0.32383622076E+02 -0.12038381589E+01  0.45541846143E+02  0.56050694511E+02  0.41800000000E+01 0.  1.
         -5    1    3    3    0  502  0.53191062412E+02 -0.11525634264E+03  0.22011059661E+02  0.12890024355E+03  0.41800000000E+01 0.  1.
        -11    1    4    4    0    0 -0.21496948137E+02  0.87138427879E+02  0.20674808328E+03  0.22538854082E+03  0.00000000000E+00 0. -1.
         11    1    4    4    0    0  0.68950780174E+00  0.29321752921E+02 -0.19066593966E+01  0.29391766966E+02  0.00000000000E+00 0.  1.
</event>
<event>
 8    1  0.6906553E-009  0.1038913E+03  0.7561462E-02  0.1272320E+00
         -2   -1    0    0    0  501 -0.00000000000E+00  0.00000000000E+00  0.27841934754E+02  0.27841934754E+02  0.00000000000E+00 0.  1.
          2   -1    0    0  501    0  0.00000000000E+00 -0.00000000000E+00 -0.61616462851E+03  0.61616462851E+03  0.00000000000E+00 0. -1.
         25    2    1    2    0    0  0.39827050604E-01  0.68865817031E+02 -0.38705484480E+03  0.41255413019E+03  0.12508778961E+03 0.  0.
         23    2    1    2    0    0 -0.39827050604E-01 -0.68865817031E+02 -0.20126784896E+03  0.23145243308E+03  0.91208439369E+02 0.  0.
          5    1    3    3  502    0  0.35886768646E+02  0.80439655774E+02 -0.16306887797E+03  0.18538427589E+03  0.41800000000E+01 0.  1.
         -5    1    3    3    0  502 -0.35846941595E+02 -0.11573838743E+02 -0.22398596682E+03  0.22716985429E+03  0.41800000000E+01 0.  1.
        -11    1    4    4    0    0  0.18276609949E+02 -0.11767551397E+02 -0.31062217632E+00  0.21739508349E+02  0.00000000000E+00 0.  1.
         11    1    4    4    0    0 -0.18316437000E+02 -0.57098265634E+02 -0.20095722679E+03  0.20971292473E+03  0.00000000000E+00 0. -1.
</event>
<event>
 8    1  0.6906553E-009  0.1171137E+03  0.7561462E-02  0.1247936E+00
          2   -1    0    0  501    0  0.00000000000E+00  0.00000000000E+00  0.43089141825E+03  0.43089141825E+03  0.00000000000E+00 0. -1.
         -2   -1    0    0    0  501 -0.00000000000E+00 -0.00000000000E+00 -0.33915780094E+02  0.33915780094E+02  0.00000000000E+00 0.  1.
         25    2    1    2    0    0 -0.44338206673E+02 -0.21820186267E+02  0.17544252623E+03  0.22105986531E+03  0.12508152119E+03 0.  0.
         23    2    1    2    0    0  0.44338206673E+02  0.21820186267E+02  0.22153311192E+03  0.24374733303E+03  0.88847316109E+02 0.  0.
          5    1    3    3  502    0  0.29108378041E+02  0.31902992758E+02  0.57668223702E+02  0.72167825546E+02  0.41800000000E+01 0. -1.
         -5    1    3    3    0  502 -0.73446584714E+02 -0.53723179024E+02  0.11777430253E+03  0.14889203977E+03  0.41800000000E+01 0. -1.
        -11    1    4    4    0    0 -0.20748325128E+02  0.27457208254E+02  0.55261535562E+02  0.65101678883E+02  0.00000000000E+00 0.  1.
         11    1    4    4    0    0  0.65086531801E+02 -0.56370219878E+01  0.16627157636E+03  0.17864565414E+03  0.00000000000E+00 0. -1.
</event>
<event>
 8    1  0.6906553E-009  0.1087939E+03  0.7561462E-02  0.1262820E+00
         -2   -1    0    0    0  501 -0.00000000000E+00  0.00000000000E+00  0.89297010314E+02  0.89297010314E+02  0.00000000000E+00 0.  1.
          2   -1    0    0  501    0  0.00000000000E+00 -0.00000000000E+00 -0.19917267008E+03  0.19917267008E+03  0.00000000000E+00 0. -1.
         25    2    1    2    0    0  0.12671196564E+02 -0.25447914564E+02  0.17407523288E+02  0.12945543078E+03  0.12509009199E+03 0.  0.
         23    2    1    2    0    0 -0.12671196564E+02  0.25447914564E+02 -0.12728318305E+03  0.15901424961E+03  0.90974542115E+02 0.  0.
          5    1    3    3  502    0  0.51894902116E+02 -0.53376422934E+02 -0.77565034053E+01  0.74965052765E+02  0.41800000000E+01 0.  1.
         -5    1    3    3    0  502 -0.39223705552E+02  0.27928508370E+02  0.25164026693E+02  0.54490378017E+02  0.41800000000E+01 0.  1.
        -11    1    4    4    0    0 -0.51530504207E+02  0.82033847528E+01 -0.79057934720E+02  0.94725104526E+02  0.00000000000E+00 0. -1.
         11    1    4    4    0    0  0.38859307643E+02  0.17244529811E+02 -0.48225248330E+02  0.64289145082E+02  0.00000000000E+00 0.  1.
</event>
<event>
 8    1  0.6906553E-009  0.1301058E+03  0.7561462E-02  0.1227299E+00
          2   -1    0    0  501    0  0.00000000000E+00  0.00000000000E+00  0.23286397682E+03  0.23286397682E+03  0.00000000000E+00 0. -1.
         -2   -1    0    0    0  501 -0.00000000000E+00 -0.00000000000E+00 -0.10879004902E+03  0.10879004902E+03  0.00000000000E+00 0.  1.
         25    2    1    2    0    0 -0.65602209663E+02 -0.92516236901E+02  0.77383548976E+02  0.18573641494E+03  0.12508756206E+03 0.  0.
         23    2    1    2    0    0  0.65602209663E+02  0.92516236901E+02  0.46690378821E+02  0.15591761089E+03  0.96267366787E+02 0.  0.
          5    1    3    3  502    0 -0.86615676525E+02 -0.53599006378E+02  0.65883026748E+01  0.10215677675E+03  0.41800000000E+01 0.  1.
         -5    1    3    3    0  502  0.21013466861E+02 -0.38917230523E+02  0.70795246301E+02  0.83579638190E+02  0.41800000000E+01 0.  1.
        -11    1    4    4    0    0  0.53946202369E+02  0.68902441166E+02  0.76435804226E+02  0.11619023761E+03  0.00000000000E+00 0. -1.
         11    1    4    4    0    0  0.11656007294E+02  0.23613795735E+02 -0.29745425404E+02  0.39727373278E+02  0.00000000000E+00 0.  1.
</event>
<event>
 8    1  0.6906553E-009  0.9124876E+02  0.7561462E-02  0.1299856E+00
         -2   -1    0    0    0  501 -0.00000000000E+00  0.00000000000E+00  0.16951796319E+03  0.16951796319E+03  0.00000000000E+00 0.  1.
          2   -1    0    0  501    0  0.00000000000E+00 -0.00000000000E+00 -0.83962641401E+02  0.83962641401E+02  0.00000000000E+00 0. -1.
         25    2    1    2    0    0  0.47231858733E+02 -0.74694484942E+01  0.71259106248E+02  0.15169751588E+03  0.12509050707E+03 0.  0.
         23    2    1    2    0    0 -0.47231858733E+02  0.74694484942E+01  0.14296215546E+02  0.10178308872E+03  0.88706111571E+02 0.  0.
          5    1    3    3  502    0  0.62171719420E+02  0.33624125939E+02  0.34300113595E+01  0.70888235404E+02  0.41800000000E+01 0.  1.
         -5    1    3    3    0  502 -0.14939860687E+02 -0.41093574433E+02  0.67829094889E+02  0.80809280472E+02  0.41800000000E+01 0.  1.
        -11    1    4    4    0    0  0.94898763038E+01 -0.32719173615E+01 -0.28307661324E+02  0.30034761279E+02  0.00000000000E+00 0. -1.
         11    1    4    4    0    0 -0.56721735037E+02  0.10741365856E+02  0.42603876870E+02  0.71748327439E+02  0.00000000000E+00 0.  1.
</event>
<event>
 8    1  0.6906553E-009  0.9334936E+02  0.7561462E-02  0.1294938E+00
         -2   -1    0    0    0  501 -0.00000000000E+00  0.00000000000E+00  0.13384744741E+03  0.13384744741E+03  0.00000000000E+00 0.  1.
          2   -1    0    0  501    0  0.00000000000E+00 -0.00000000000E+00 -0.13994786594E+03  0.13994786594E+03  0.00000000000E+00 0. -1.
         25    2    1    2    0    0  0.62682101092E+02 -0.24366730784E+02 -0.39262071503E+02  0.14735748799E+03  0.12509970280E+03 0.  0.
         23    2    1    2    0    0 -0.62682101092E+02  0.24366730784E+02  0.33161652980E+02  0.12643782536E+03  0.10180395418E+03 0.  0.
          5    1    3    3  502    0 -0.18036619010E+02 -0.12899054514E+02  0.31889826356E+02  0.39065824677E+02  0.41800000000E+01 0.  1.
         -5    1    3    3    0  502  0.80718720102E+02 -0.11467676270E+02 -0.71151897860E+02  0.10829166331E+03  0.41800000000E+01 0.  1.
        -11    1    4    4    0    0 -0.50078543471E+02 -0.52084600444E+01  0.64309788231E+02  0.81674582549E+02  0.00000000000E+00 0.  1.
         11    1    4    4    0    0 -0.12603557622E+02  0.29575190829E+02 -0.31148135251E+02  0.44763242810E+02  0.00000000000E+00 0. -1.
</event>
<event>
 8    1  0.6906553E-009  0.1329886E+03  0.7561462E-02  0.1223087E+00
         -2   -1    0    0    0  501 -0.00000000000E+00  0.00000000000E+00  0.60292543938E+02  0.60292543938E+02  0.00000000000E+00 0.  1.
          2   -1    0    0  501    0  0.00000000000E+00 -0.00000000000E+00 -0.32884702093E+03  0.32884702093E+03  0.00000000000E+00 0. -1.
         25    2    1    2    0    0 -0.87222228491E+02  0.21245124948E+02 -0.13434570926E+03  0.20434265187E+03  0.12509227514E+03 0.  0.
         23    2    1    2    0    0  0.87222228491E+02 -0.21245124948E+02 -0.13420876773E+03  0.18479691300E+03  0.89882329973E+02 0.  0.
          5    1    3    3  502    0 -0.94346268208E+02 -0.20382728611E+02 -0.47449055778E+02  0.10763623574E+03  0.41800000000E+01 0.  1.
         -5    1    3    3    0  502  0.71240397173E+01  0.41627853559E+02 -0.86896653483E+02  0.96706416128E+02  0.41800000000E+01 0.  1.
        -11    1    4    4    0    0  0.19128596365E+02 -0.49601785677E+02 -0.60036008482E+02  0.80190789095E+02  0.00000000000E+00 0.  1.
         11    1    4    4    0    0  0.68093632125E+02  0.28356660729E+02 -0.74172759252E+02  0.10460612391E+03  0.00000000000E+00 0. -1.
</event>
<event>
 8    1  0.6906553E-009  0.1691473E+03  0.7561462E-02  0.1178740E+00
         -2   -1    0    0    0  501 -0.00000000000E+00  0.00000000000E+00  0.99562236996E+02  0.99562236996E+02  0.00000000000E+00 0.  1.
          2   -1    0    0  501    0  0.00000000000E+00 -0.00000000000E+00 -0.35912201437E+03  0.35912201437E+03  0.00000000000E+00 0. -1.
         25    2    1    2    0    0 -0.10795892215E+03 -0.92586091204E+02 -0.20827045780E+03  0.28151651769E+03  0.12509057912E+03 0.  0.
         23    2    1    2    0    0  0.10795892215E+03  0.92586091204E+02 -0.51289319571E+02  0.17716773367E+03  0.92360697245E+02 0.  0.
          5    1    3    3  502    0 -0.10541840465E+03 -0.30989515148E+02 -0.70753510612E+02  0.13075519780E+03  0.41800000000E+01 0.  1.
         -5    1    3    3    0  502 -0.25405175012E+01 -0.61596576056E+02 -0.13751694719E+03  0.15076131989E+03  0.41800000000E+01 0.  1.
        -11    1    4    4    0    0  0.13124825219E+02  0.67065535109E+02 -0.47834561635E+01  0.68504952298E+02  0.00000000000E+00 0.  1.
         11    1    4    4    0    0  0.94834096934E+02  0.25520556095E+02 -0.46505863407E+02  0.10866278137E+03  0.00000000000E+00 0. -1.
</event>
<event>
 8    1  0.6906553E-009  0.1681007E+03  0.7561462E-02  0.1179843E+00
         -2   -1    0    0    0  501 -0.00000000000E+00  0.00000000000E+00  0.35520115183E+02  0.35520115183E+02  0.00000000000E+00 0.  1.
          2   -1    0    0  501    0  0.00000000000E+00 -0.00000000000E+00 -0.82570129923E+03  0.82570129923E+03  0.00000000000E+00 0. -1.
         25    2    1    2    0    0 -0.45426120522E+02  0.12385052723E+03 -0.47398990194E+03  0.50765788164E+03  0.12509041581E+03 0.  0.
         23    2    1    2    0    0  0.45426120522E+02 -0.12385052723E+03 -0.31619128210E+03  0.35356353277E+03  0.87337044309E+02 0.  0.
          5    1    3    3  502    0 -0.86670168887E+02  0.87898101291E+02 -0.37011184842E+03  0.39017694335E+03  0.41800000000E+01 0. -1.
         -5    1    3    3    0  502  0.41244048365E+02  0.35952425937E+02 -0.10387805352E+03  0.11748093828E+03  0.41800000000E+01 0. -1.
        -11    1    4    4    0    0 -0.10661171474E+01 -0.10900555696E+03 -0.20657814923E+03  0.23357628260E+03  0.00000000000E+00 0.  1.
         11    1    4    4    0    0  0.46492237669E+02 -0.14844970267E+02 -0.10961313287E+03  0.11998725017E+03  0.00000000000E+00 0. -1.
</event>
<event>
 8    1  0.6906553E-009  0.6517520E+02  0.7561462E-02  0.1377314E+00
         -1   -1    0    0    0  501 -0.00000000000E+00  0.00000000000E+00  0.38488039595E+03  0.38488039595E+03  0.00000000000E+00 0.  1.
          1   -1    0    0  501    0  0.00000000000E+00 -0.00000000000E+00 -0.38161496591E+02  0.38161496591E+02  0.00000000000E+00 0. -1.
         25    2    1    2    0    0 -0.28849636113E+02  0.30271604093E+01  0.27615820150E+03  0.30455227397E+03  0.12508904876E+03 0.  0.
         23    2    1    2    0    0  0.28849636113E+02 -0.30271604093E+01  0.70560697856E+02  0.11848961857E+03  0.90661526696E+02 0.  0.
          5    1    3    3  502    0  0.14664489015E+01 -0.30294274547E+02  0.67240759991E+01  0.31346118432E+02  0.41800000000E+01 0. -1.
         -5    1    3    3    0  502 -0.30316085015E+02  0.33321434956E+02  0.26943412550E+03  0.27320615554E+03  0.41800000000E+01 0. -1.
        -11    1    4    4    0    0 -0.10895425006E+02 -0.92126733867E+01  0.76509518396E+02  0.77828593988E+02  0.00000000000E+00 0.  1.
         11    1    4    4    0    0  0.39745061119E+02  0.61855129774E+01 -0.59488205404E+01  0.40661024581E+02  0.00000000000E+00 0. -1.
</event>
<event>
 8    1  0.6906553E-009  0.9785161E+02  0.7561462E-02  0.1284880E+00
         -1   -1    0    0    0  501 -0.00000000000E+00  0.00000000000E+00  0.58115127978E+02  0.58115127978E+02  0.00000000000E+00 0.  1.
          1   -1    0    0  501    0  0.00000000000E+00 -0.00000000000E+00 -0.41537124979E+03  0.41537124979E+03  0.00000000000E+00 0. -1.
         25    2    1    2    0    0 -0.58916212305E+02  0.24678029168E+02 -0.32996356721E+03  0.35861092252E+03  0.12508282403E+03 0.  0.
         23    2    1    2    0    0  0.58916212305E+02 -0.24678029168E+02 -0.27292554601E+02  0.11487545525E+03  0.91495144601E+02 0.  0.
          5    1    3    3  502    0 -0.19091689792E+02  0.52731029820E+02 -0.29017665744E+03  0.29557574165E+03  0.41800000000E+01 0.  1.
         -5    1    3    3    0  502 -0.39824522513E+02 -0.28053000653E+02 -0.39786909771E+02  0.63035180876E+02  0.41800000000E+01 0.  1.
        -11    1    4    4    0    0  0.52649965010E+02  0.11472320387E+02  0.17793747195E+02  0.56747250064E+02  0.00000000000E+00 0.  1.
         11    1    4    4    0    0  0.62662472953E+01 -0.36150349555E+02 -0.45086301796E+02  0.58128205183E+02  0.00000000000E+00 0. -1.
</event>
<event>
 8    1  0.6906553E-009  0.1456456E+03  0.7561462E-02  0.1205928E+00
          1   -1    0    0  501    0  0.00000000000E+00  0.00000000000E+00  0.35982532273E+03  0.35982532273E+03  0.00000000000E+00 0. -1.
         -1   -1    0    0    0  501 -0.00000000000E+00 -0.00000000000E+00 -0.71983789270E+02  0.71983789270E+02  0.00000000000E+00 0.  1.
         25    2    1    2    0    0 -0.17600891373E+02  0.11212206951E+03  0.10953086614E+03  0.20130897154E+03  0.12508853479E+03 0.  0.
         23    2    1    2    0    0  0.17600891373E+02 -0.11212206951E+03  0.17831066732E+03  0.23050014046E+03  0.91948196412E+02 0.  0.
          5    1    3    3  502    0 -0.66763720396E+02  0.34205929966E+02  0.62791691755E+02  0.97916847169E+02  0.41800000000E+01 0.  1.
         -5    1    3    3    0  502  0.49162829023E+02  0.77916139546E+02  0.46739174383E+02  0.10339212437E+03  0.41800000000E+01 0.  1.
        -11    1    4    4    0    0 -0.99454125709E+00 -0.10338236860E+03  0.18229375956E+03  0.20957079478E+03  0.00000000000E+00 0. -1.
         11    1    4    4    0    0  0.18595432630E+02 -0.87397009117E+01 -0.39830922432E+01  0.20929345679E+02  0.00000000000E+00 0.  1.
</event>
<event>
 8    1  0.6906553E-009  0.1004401E+03  0.7561462E-02  0.1279373E+00
          4   -1    0    0  501    0  0.00000000000E+00  0.00000000000E+00  0.20298564301E+03  0.20298564301E+03  0.00000000000E+00 0. -1.
         -4   -1    0    0    0  501 -0.00000000000E+00 -0.00000000000E+00 -0.10607896172E+03  0.10607896172E+03  0.00000000000E+00 0.  1.
         25    2    1    2    0    0 -0.51507873512E+02 -0.63395973017E+02 -0.99837011798E+01  0.14973064464E+03  0.12508989258E+03 0.  0.
         23    2    1    2    0    0  0.51507873512E+02  0.63395973017E+02  0.10689038247E+03  0.15933396009E+03  0.85379426936E+02 0.  0.
          5    1    3    3  502    0 -0.37951043945E+02 -0.39536911917E+02 -0.66794516655E+02  0.86501034651E+02  0.41800000000E+01 0.  1.
         -5    1    3    3    0  502 -0.13556829567E+02 -0.23859061100E+02  0.56810815476E+02  0.63229609990E+02  0.41800000000E+01 0.  1.
        -11    1    4    4    0    0 -0.51592368085E+01 -0.18143249988E+02  0.16851236349E+02  0.25293465778E+02  0.00000000000E+00 0. -1.
         11    1    4    4    0    0  0.56667110321E+02  0.81539223005E+02  0.90039146121E+02  0.13404049431E+03  0.00000000000E+00 0.  1.
</event>
<event>
 8    1  0.6906553E-009  0.9498230E+02  0.7561462E-02  0.1291216E+00
         -1   -1    0    0    0  501 -0.00000000000E+00  0.00000000000E+00  0.45592056801E+02  0.45592056801E+02  0.00000000000E+00 0. -1.
          1   -1    0    0  501    0  0.00000000000E+00 -0.00000000000E+00 -0.37997291304E+03  0.37997291304E+03  0.00000000000E+00 0.  1.
         25    2    1    2    0    0 -0.12845317278E+02  0.42386667567E+02 -0.89026023699E+02  0.15979586062E+03  0.12508977741E+03 0.  0.
         23    2    1    2    0    0  0.12845317278E+02 -0.42386667567E+02 -0.24535483254E+03  0.26576910921E+03  0.92046693580E+02 0.  0.
          5    1    3    3  502    0  0.22806357954E+02  0.62923955290E+02 -0.96756736681E+02  0.11772379796E+03  0.41800000000E+01 0. -1.
         -5    1    3    3    0  502 -0.35651675232E+02 -0.20537287722E+02  0.77307129818E+01  0.42072062667E+02  0.41800000000E+01 0. -1.
        -11    1    4    4    0    0  0.39350409430E+02 -0.37962375867E+02 -0.22633890185E+03  0.23284951190E+03  0.00000000000E+00 0.  1.
         11    1    4    4    0    0 -0.26505092152E+02 -0.44242917004E+01 -0.19015930689E+02  0.32919597309E+02  0.00000000000E+00 0. -1.
</event>
<event>
 8    1  0.6906553E-009  0.5283781E+02  0.7561462E-02  0.1430610E+00
          1   -1    0    0  501    0  0.00000000000E+00  0.00000000000E+00  0.40782829900E+02  0.40782829900E+02  0.00000000000E+00 0. -1.
         -1   -1    0    0    0  501 -0.00000000000E+00 -0.00000000000E+00 -0.34087295698E+03  0.34087295698E+03  0.00000000000E+00 0.  1.
         25    2    1    2    0    0  0.29450322321E+02  0.36202197864E+02 -0.18847238170E+03  0.23096531880E+03  0.12508085070E+03 0.  0.
         23    2    1    2    0    0 -0.29450322321E+02 -0.36202197864E+02 -0.11161774538E+03  0.15069046808E+03  0.89839721008E+02 0.  0.
          5    1    3    3  502    0  0.33743036844E+02  0.37806171118E+02 -0.93054243083E+01  0.51691028541E+02  0.41800000000E+01 0.  1.
         -5    1    3    3    0  502 -0.42927145231E+01 -0.16039732543E+01 -0.17916695739E+03  0.17927429026E+03  0.41800000000E+01 0.  1.
        -11    1    4    4    0    0 -0.18454837042E+02 -0.11917121797E+02  0.11446894915E+02  0.24771560414E+02  0.00000000000E+00 0. -1.
         11    1    4    4    0    0 -0.10995485279E+02 -0.24285076067E+02 -0.12306464030E+03  0.12591890767E+03  0.00000000000E+00 0.  1.
</event>
<event>
 8    1  0.6906553E-009  0.1023159E+03  0.7561462E-02  0.1275500E+00
          2   -1    0    0  501    0  0.00000000000E+00  0.00000000000E+00  0.36916020706E+03  0.36916020706E+03  0.00000000000E+00 0.  1.
         -2   -1    0    0    0  501 -0.00000000000E+00 -0.00000000000E+00 -0.39005621522E+02  0.39005621522E+02  0.00000000000E+00 0. -1.
         25    2    1    2    0    0 -0.24371558269E+02  0.39765746865E+02  0.22276302901E+03  0.25970515063E+03  0.12509240862E+03 0.  0.
         23    2    1    2    0    0  0.24371558269E+02 -0.39765746865E+02  0.10739155653E+03  0.14846067795E+03  0.91281646611E+02 0.  0.
          5    1    3    3  502    0 -0.48428474422E+02 -0.23198325958E+02  0.15476701254E+03  0.16387123003E+03  0.41800000000E+01 0.  1.
         -5    1    3    3    0  502  0.24056916153E+02  0.62964072823E+02  0.67996016470E+02  0.95833920597E+02  0.41800000000E+01 0.  1.
        -11    1    4    4    0    0 -0.57984131988E+01 -0.50788206125E+02  0.10434815945E+03  0.11619639348E+03  0.00000000000E+00 0.  1.
         11    1    4    4    0    0  0.30169971468E+02  0.11022459260E+02  0.30433970747E+01  0.32264284468E+02  0.00000000000E+00 0. -1.
</event>
<event>
 8    1  0.6906553E-009  0.1172736E+03  0.7561462E-02  0.1247664E+00
         -1   -1    0    0    0  501 -0.00000000000E+00  0.00000000000E+00  0.75529339537E+02  0.75529339537E+02  0.00000000000E+00 0.  1.
          1   -1    0    0  501    0  0.00000000000E+00 -0.00000000000E+00 -0.30084387613E+03  0.30084387613E+03  0.00000000000E+00 0. -1.
         25    2    1    2    0    0 -0.63048982632E+02 -0.16861462210E+02 -0.20041440345E+02  0.14250917316E+03  0.12509085492E+03 0.  0.
         23    2    1    2    0    0  0.63048982632E+02  0.16861462210E+02 -0.20527309624E+03  0.23386404251E+03  0.91081629416E+02 0.  0.
          5    1    3    3  502    0 -0.92156706890E+02  0.19459155596E+02 -0.11150724682E+02  0.94938550770E+02  0.41800000000E+01 0.  1.
         -5    1    3    3    0  502  0.29107724258E+02 -0.36320617806E+02 -0.88907156634E+01  0.47570622387E+02  0.41800000000E+01 0.  1.
        -11    1    4    4    0    0  0.14183163818E+02 -0.25292505613E+02 -0.14400516573E+02  0.32376655999E+02  0.00000000000E+00 0.  1.
         11    1    4    4    0    0  0.48865818814E+02  0.42153967823E+02 -0.19087257967E+03  0.20148738651E+03  0.00000000000E+00 0. -1.
</event>
<event>
 8    1  0.6906553E-009  0.1387565E+03  0.7561462E-02  0.1215012E+00
          2   -1    0    0  501    0  0.00000000000E+00  0.00000000000E+00  0.71043640642E+03  0.71043640642E+03  0.00000000000E+00 0.  1.
         -2   -1    0    0    0  501 -0.00000000000E+00 -0.00000000000E+00 -0.32987415460E+02  0.32987415460E+02  0.00000000000E+00 0. -1.
         25    2    1    2    0    0  0.28783673229E+02 -0.10299354779E+03  0.33495522091E+03  0.37320188186E+03  0.12509386028E+03 0.  0.
         23    2    1    2    0    0 -0.28783673229E+02  0.10299354779E+03  0.34249377005E+03  0.37022194002E+03  0.91247638968E+02 0.  0.
          5    1    3    3  502    0 -0.40030533798E+02 -0.30984758883E+02  0.19411297609E+03  0.20064849565E+03  0.41800000000E+01 0.  1.
         -5    1    3    3    0  502  0.68814207026E+02 -0.72008788905E+02  0.14084224482E+03  0.17255338621E+03  0.41800000000E+01 0.  1.
        -11    1    4    4    0    0 -0.46910536156E+02  0.40547269157E+02  0.24719553453E+03  0.25485351033E+03  0.00000000000E+00 0.  1.
         11    1    4    4    0    0  0.18126862927E+02  0.62446278631E+02  0.95298235523E+02  0.11536842969E+03  0.00000000000E+00 0. -1.
</event>
<event>
 8    1  0.6906553E-009  0.9484879E+02  0.7561462E-02  0.1291517E+00
         -4   -1    0    0    0  501 -0.00000000000E+00  0.00000000000E+00  0.41236275672E+03  0.41236275672E+03  0.00000000000E+00 0.  1.
          4   -1    0    0  501    0  0.00000000000E+00 -0.00000000000E+00 -0.52992234212E+02  0.52992234212E+02  0.00000000000E+00 0. -1.
         25    2    1    2    0    0  0.75144462358E+02 -0.56703157090E+02  0.25452288549E+03  0.29881582782E+03  0.12508821477E+03 0.  0.
         23    2    1    2    0    0 -0.75144462358E+02  0.56703157090E+02  0.10484763702E+03  0.16653916311E+03  0.88771209369E+02 0.  0.
          5    1    3    3  502    0  0.64426359225E+02 -0.52647346100E+02  0.57054931846E+02  0.10097146360E+03  0.41800000000E+01 0. -1.
         -5    1    3    3    0  502  0.10718103134E+02 -0.40558109896E+01  0.19746795364E+03  0.19784436422E+03  0.41800000000E+01 0. -1.
        -11    1    4    4    0    0 -0.37594689928E+02  0.30381431498E+02  0.11023554708E+03  0.12036722117E+03  0.00000000000E+00 0.  1.
         11    1    4    4    0    0 -0.37549772430E+02  0.26321725592E+02 -0.53879100647E+01  0.46171941941E+02  0.00000000000E+00 0. -1.
</event>
<event>
 8    1  0.6906553E-009  0.1760907E+03  0.7561462E-02  0.1171641E+00
         -1   -1    0    0    0  501 -0.00000000000E+00  0.00000000000E+00  0.35270342536E+03  0.35270342536E+03  0.00000000000E+00 0.  1.
          1   -1    0    0  501    0  0.00000000000E+00 -0.00000000000E+00 -0.10269474695E+03  0.10269474695E+03  0.00000000000E+00 0. -1.
         25    2    1    2    0    0 -0.11155349686E+03  0.10225276649E+03  0.86222823637E+02  0.21443598360E+03  0.12509438368E+03 0.  0.
         23    2    1    2    0    0  0.11155349686E+03 -0.10225276649E+03  0.16378585477E+03  0.24096218871E+03  0.91308045922E+02 0.  0.
          5    1    3    3  502    0  0.41929080880E+01  0.47577855227E+02  0.70695522389E+02  0.85419916133E+02  0.41800000000E+01 0. -1.
         -5    1    3    3    0  502 -0.11574640495E+03  0.54674911260E+02  0.15527301248E+02  0.12901606746E+03  0.41800000000E+01 0. -1.
        -11    1    4    4    0    0  0.45649021754E+02 -0.10032883805E+03  0.92894581868E+02  0.14414961766E+03  0.00000000000E+00 0.  1.
         11    1    4    4    0    0  0.65904475107E+02 -0.19239284363E+01  0.70891272899E+02  0.96812571048E+02  0.00000000000E+00 0. -1.
</event>
<event>
 8    1  0.6906553E-009  0.1624620E+03  0.7561462E-02  0.1185945E+00
          2   -1    0    0  501    0  0.00000000000E+00  0.00000000000E+00  0.12751010414E+04  0.12751010414E+04  0.00000000000E+00 0. -1.
         -2   -1    0    0    0  501 -0.00000000000E+00 -0.00000000000E+00 -0.26085377337E+02  0.26085377337E+02  0.00000000000E+00 0.  1.
         25    2    1    2    0    0  0.14520112890E+03  0.17986715823E+01  0.71559076555E+03  0.74081344093E+03  0.12509119659E+03 0.  0.
         23    2    1    2    0    0 -0.14520112890E+03 -0.17986715823E+01  0.53342489855E+03  0.56037297785E+03  0.91592296903E+02 0.  0.
          5    1    3    3  502    0  0.70172766526E+02 -0.39216835340E+02  0.16479233793E+03  0.18340164769E+03  0.41800000000E+01 0. -1.
         -5    1    3    3    0  502  0.75028362377E+02  0.41015506922E+02  0.55079842762E+03  0.55741179324E+03  0.41800000000E+01 0. -1.
        -11    1    4    4    0    0 -0.10699883425E+03  0.27730405565E+02  0.25698751771E+03  0.27975044269E+03  0.00000000000E+00 0.  1.
         11    1    4    4    0    0 -0.38202294651E+02 -0.29529077147E+02  0.27643738084E+03  0.28062253516E+03  0.00000000000E+00 0. -1.
</event>
<event>
 8    1  0.6906553E-009  0.1786808E+03  0.7561462E-02  0.1169086E+00
         -2   -1    0    0    0  501 -0.00000000000E+00  0.00000000000E+00  0.22327757077E+02  0.22327757077E+02  0.00000000000E+00 0.  1.
          2   -1    0    0  501    0  0.00000000000E+00 -0.00000000000E+00 -0.19407964000E+04  0.19407964000E+04  0.00000000000E+00 0. -1.
         25    2    1    2    0    0 -0.76298559770E+02  0.14166814561E+03 -0.13146143776E+04  0.13303195061E+04  0.12509073767E+03 0.  0.
         23    2    1    2    0    0  0.76298559770E+02 -0.14166814561E+03 -0.60385426529E+03  0.63280465101E+03  0.99551087012E+02 0.  0.
          5    1    3    3  502    0 -0.15073106959E+02  0.11410099473E+03 -0.10837620271E+04  0.10898641380E+04  0.41800000000E+01 0. -1.
         -5    1    3    3    0  502 -0.61225452811E+02  0.27567150879E+02 -0.23085235055E+03  0.24045536807E+03  0.41800000000E+01 0. -1.
        -11    1    4    4    0    0  0.82817676194E+02 -0.87948661375E+02 -0.51320948386E+03  0.52723591384E+03  0.00000000000E+00 0. -1.
         11    1    4    4    0    0 -0.65191164242E+01 -0.53719484231E+02 -0.90644781439E+02  0.10556873717E+03  0.00000000000E+00 0.  1.
</event>
<event>
 8    1  0.6906553E-009  0.7068432E+02  0.7561462E-02  0.1357781E+00
         -2   -1    0    0    0  501 -0.00000000000E+00  0.00000000000E+00  0.10910156149E+02  0.10910156149E+02  0.00000000000E+00 0. -1.
          2   -1    0    0  501    0  0.00000000000E+00 -0.00000000000E+00 -0.13333569843E+04  0.13333569843E+04  0.00000000000E+00 0.  1.
         25    2    1    2    0    0 -0.24479172703E+02 -0.22679531819E+02 -0.96092755725E+03  0.96960777668E+03  0.12507549428E+03 0.  0.
         23    2    1    2    0    0  0.24479172703E+02  0.22679531819E+02 -0.36151927088E+03  0.37465936374E+03  0.92519536108E+02 0.  0.
          5    1    3    3  502    0 -0.22999354356E+02 -0.27768553451E+02 -0.71790335958E+02  0.80444935195E+02  0.41800000000E+01 0. -1.
         -5    1    3    3    0  502 -0.14798183476E+01  0.50890216315E+01 -0.88913722129E+03  0.88916284149E+03  0.41800000000E+01 0. -1.
        -11    1    4    4    0    0 -0.25570919032E+02  0.38156534832E+02 -0.16407156348E+03  0.17037978458E+03  0.00000000000E+00 0. -1.
         11    1    4    4    0    0  0.50050091736E+02 -0.15477003013E+02 -0.19744770740E+03  0.20427957916E+03  0.00000000000E+00 0.  1.
</event>
<event>
 8    1  0.6906553E-009  0.8844136E+02  0.7561462E-02  0.1306671E+00
          2   -1    0    0  501    0  0.00000000000E+00  0.00000000000E+00  0.87946455182E+02  0.87946455182E+02  0.00000000000E+00 0. -1.
         -2   -1    0    0    0  501 -0.00000000000E+00 -0.00000000000E+00 -0.15726360579E+03  0.15726360579E+03  0.00000000000E+00 0.  1.
         25    2    1    2    0    0 -0.20997378854E+02 -0.13184229515E+02  0.17432007405E+00  0.12752070475E+03  0.12508711335E+03 0.  0.
         23    2    1    2    0    0  0.20997378854E+02  0.13184229515E+02 -0.69491470680E+02  0.11768935622E+03  0.91689728128E+02 0.  0.
          5    1    3    3  502    0 -0.35105868973E+02  0.23454765303E+02 -0.48766371385E+02  0.64638838401E+02  0.41800000000E+01 0. -1.
         -5    1    3    3    0  502  0.14108490119E+02 -0.36638994817E+02  0.48940691459E+02  0.62881866346E+02  0.41800000000E+01 0. -1.
        -11    1    4    4    0    0 -0.27500228191E+02 -0.21867065026E+02 -0.24883000861E+02  0.43053394933E+02  0.00000000000E+00 0.  1.
         11    1    4    4    0    0  0.48497607045E+02  0.35051294540E+02 -0.44608469819E+02  0.74635961290E+02  0.00000000000E+00 0. -1.
</event>
<event>
 8    1  0.6906553E-009  0.1284674E+03  0.7561462E-02  0.1229748E+00
          2   -1    0    0  501    0  0.00000000000E+00  0.00000000000E+00  0.13079181678E+03  0.13079181678E+03  0.00000000000E+00 0. -1.
         -2   -1    0    0    0  501 -0.00000000000E+00 -0.00000000000E+00 -0.16190252571E+03  0.16190252571E+03  0.00000000000E+00 0.  1.
         25    2    1    2    0    0  0.40960863460E+01 -0.92602655082E+02  0.59442151420E+01  0.15580444749E+03  0.12509061721E+03 0.  0.
         23    2    1    2    0    0 -0.40960863460E+01  0.92602655082E+02 -0.37054924079E+02  0.13688989500E+03  0.93668277991E+02 0.  0.
          5    1    3    3  502    0  0.44738183498E+02 -0.35514671758E+02 -0.41800651168E+02  0.70905315815E+02  0.41800000000E+01 0.  1.
         -5    1    3    3    0  502 -0.40642097152E+02 -0.57087983323E+02  0.47744866310E+02  0.84899131679E+02  0.41800000000E+01 0.  1.
        -11    1    4    4    0    0  0.29608202346E+02 -0.13553169524E+01  0.19880030238E+01  0.29705802231E+02  0.00000000000E+00 0. -1.
         11    1    4    4    0    0 -0.33704288692E+02  0.93957972034E+02 -0.39042927103E+02  0.10718409276E+03  0.00000000000E+00 0.  1.
</event>
<event>
 8    1  0.6906553E-009  0.1410728E+03  0.7561462E-02  0.1211893E+00
         -1   -1    0    0    0  501 -0.00000000000E+00  0.00000000000E+00  0.27901048216E+03  0.27901048216E+03  0.00000000000E+00 0.  1.
          1   -1    0    0  501    0  0.00000000000E+00 -0.00000000000E+00 -0.92469165806E+02  0.92469165806E+02  0.00000000000E+00 0. -1.
         25    2    1    2    0    0  0.88344125949E+02  0.25880554596E+02  0.18307075115E+03  0.24007628743E+03  0.12508891303E+03 0.  0.
         23    2    1    2    0    0 -0.88344125949E+02 -0.25880554596E+02  0.34705652019E+01  0.13140336054E+03  0.93703311797E+02 0.  0.
          5    1    3    3  502    0  0.14230605177E+02  0.67437905783E+02  0.96914768265E+02  0.11899716790E+03  0.41800000000E+01 0.  1.
         -5    1    3    3    0  502  0.74113520772E+02 -0.41557351186E+02  0.86155982885E+02  0.12107911953E+03  0.41800000000E+01 0.  1.
        -11    1    4    4    0    0 -0.10068258040E+03 -0.14943033609E+01  0.14880522124E+02  0.10178725302E+03  0.00000000000E+00 0.  1.
         11    1    4    4    0    0  0.12338454451E+02 -0.24386251235E+02 -0.11409956922E+02  0.29616107518E+02  0.00000000000E+00 0. -1.
</event>
<event>
 8    1  0.6906553E-009  0.1089820E+03  0.7561462E-02  0.1262467E+00
         -2   -1    0    0    0  501 -0.00000000000E+00  0.00000000000E+00  0.71770043092E+02  0.71770043092E+02  0.00000000000E+00 0.  1.
          2   -1    0    0  501    0  0.00000000000E+00 -0.00000000000E+00 -0.18740278886E+03  0.18740278886E+03  0.00000000000E+00 0. -1.
         25    2    1    2    0    0 -0.40378877134E+02 -0.45697714810E+01 -0.66250610459E+02  0.14725732644E+03  0.12507693742E+03 0.  0.
         23    2    1    2    0    0  0.40378877134E+02  0.45697714810E+01 -0.49382135307E+02  0.11191550551E+03  0.91843064824E+02 0.  0.
          5    1    3    3  502    0 -0.62224705778E+02  0.37679592270E+02 -0.10115115249E+02  0.73562583147E+02  0.41800000000E+01 0.  1.
         -5    1    3    3    0  502  0.21845828644E+02 -0.42249363751E+02 -0.56135495211E+02  0.73694743293E+02  0.41800000000E+01 0.  1.
        -11    1    4    4    0    0  0.21362769117E+02  0.46577195805E+02 -0.12184998619E+02  0.52671408418E+02  0.00000000000E+00 0.  1.
         11    1    4    4    0    0  0.19016108017E+02 -0.42007424324E+02 -0.37197136689E+02  0.59244097092E+02  0.00000000000E+00 0. -1.
</event>
<event>
 8    1  0.6906553E-009  0.1364438E+03  0.7561462E-02  0.1218196E+00
         -2   -1    0    0    0  501 -0.00000000000E+00  0.00000000000E+00  0.89636436452E+03  0.89636436452E+03  0.00000000000E+00 0.  1.
          2   -1    0    0  501    0  0.00000000000E+00 -0.00000000000E+00 -0.22474128305E+02  0.22474128305E+02  0.00000000000E+00 0. -1.
         25    2    1    2    0    0  0.62836435845E+02 -0.62814926926E+02  0.43711376635E+03  0.46326002768E+03  0.12508907146E+03 0.  0.
         23    2    1    2    0    0 -0.62836435845E+02  0.62814926926E+02  0.43677646986E+03  0.45557846514E+03  0.94254551941E+02 0.  0.
          5    1    3    3  502    0 -0.16430855704E+02 -0.62305443040E+02  0.11897588264E+03  0.13536866070E+03  0.41800000000E+01 0. -1.
         -5    1    3    3    0  502  0.79267291550E+02 -0.50948388583E+00  0.31813788372E+03  0.32789136698E+03  0.41800000000E+01 0. -1.
        -11    1    4    4    0    0 -0.56229577007E+02 -0.88908112683E+01  0.17146231107E+03  0.18066581296E+03  0.00000000000E+00 0. -1.
         11    1    4    4    0    0 -0.66068588381E+01  0.71705738194E+02  0.26531415879E+03  0.27491265218E+03  0.00000000000E+00 0.  1.
</event>
<event>
 8    1  0.6906553E-009  0.9913143E+02  0.7561462E-02  0.1282133E+00
         -2   -1    0    0    0  501 -0.00000000000E+00  0.00000000000E+00  0.91345646324E+02  0.91345646324E+02  0.00000000000E+00 0.  1.
          2   -1    0    0  501    0  0.00000000000E+00 -0.00000000000E+00 -0.14283360284E+03  0.14283360284E+03  0.00000000000E+00 0. -1.
         25    2    1    2    0    0 -0.12429937206E+02 -0.13312537567E+02  0.52094004846E+01  0.12651726544E+03  0.12509098131E+03 0.  0.
         23    2    1    2    0    0  0.12429937206E+02  0.13312537567E+02 -0.56697356999E+02  0.10766198372E+03  0.89692727981E+02 0.  0.
          5    1    3    3  502    0 -0.74049386513E+01  0.48480729708E+02 -0.27409569881E+02  0.56338008400E+02  0.41800000000E+01 0. -1.
         -5    1    3    3    0  502 -0.50249985550E+01 -0.61793267275E+02  0.32618970366E+02  0.70179257040E+02  0.41800000000E+01 0. -1.
        -11    1    4    4    0    0 -0.18658399175E+02  0.41144537556E+02 -0.46237200834E+02  0.64644315847E+02  0.00000000000E+00 0. -1.
         11    1    4    4    0    0  0.31088336381E+02 -0.27831999989E+02 -0.10460156165E+02  0.43017667874E+02  0.00000000000E+00 0.  1.
</event>
<event>
 8    1  0.6906553E-009  0.1379874E+03  0.7561462E-02  0.1216063E+00
          3   -1    0    0  501    0  0.00000000000E+00  0.00000000000E+00  0.42679000736E+02  0.42679000736E+02  0.00000000000E+00 0. -1.
         -3   -1    0    0    0  501 -0.00000000000E+00 -0.00000000000E+00 -0.56050651402E+03  0.56050651402E+03  0.00000000000E+00 0.  1.
         25    2    1    2    0    0 -0.56618292810E+02  0.82760647242E+02 -0.20247676346E+03  0.25826356307E+03  0.12509305519E+03 0.  0.
         23    2    1    2    0    0  0.56618292810E+02 -0.82760647242E+02 -0.31535074982E+03  0.34492195169E+03  0.97314446657E+02 0.  0.
          5    1    3    3  502    0  0.29115216160E+02  0.51201286660E+02 -0.12561089577E+03  0.13879782816E+03  0.41800000000E+01 0. -1.
         -5    1    3    3    0  502 -0.85733508970E+02  0.31559360581E+02 -0.76865867697E+02  0.11946573491E+03  0.41800000000E+01 0. -1.
        -11    1    4    4    0    0 -0.18507665826E+02 -0.10723233075E+02 -0.12704715168E+02  0.24878328107E+02  0.00000000000E+00 0. -1.
         11    1    4    4    0    0  0.75125958636E+02 -0.72037414167E+02 -0.30264603466E+03  0.32004362358E+03  0.00000000000E+00 0.  1.
</event>
<event>
 8    1  0.6906553E-009  0.8404079E+02  0.7561462E-02  0.1317960E+00
         -2   -1    0    0    0  501 -0.00000000000E+00  0.00000000000E+00  0.49833147436E+03  0.49833147436E+03  0.00000000000E+00 0.  1.
          2   -1    0    0  501    0  0.00000000000E+00 -0.00000000000E+00 -0.30873214370E+02  0.30873214370E+02  0.00000000000E+00 0. -1.
         25    2    1    2    0    0  0.10751616245E+02  0.39512082557E+02  0.33058364897E+03  0.35582287206E+03  0.12509022902E+03 0.  0.
         23    2    1    2    0    0 -0.10751616245E+02 -0.39512082557E+02  0.13687461102E+03  0.17338181666E+03  0.98233361386E+02 0.  0.
          5    1    3    3  502    0  0.31170533654E+02  0.35344175892E+02  0.33119698045E+03  0.33455900107E+03  0.41800000000E+01 0.  1.
         -5    1    3    3    0  502 -0.20418917409E+02  0.41679066652E+01 -0.61333147747E+00  0.21263870994E+02  0.41800000000E+01 0.  1.
        -11    1    4    4    0    0  0.25605078924E+02 -0.54481291756E+02  0.11112449534E+03  0.12638229576E+03  0.00000000000E+00 0.  1.
         11    1    4    4    0    0 -0.36356695169E+02  0.14969209199E+02  0.25750115680E+02  0.46999520904E+02  0.00000000000E+00 0. -1.
</event>
<event>
 8    1  0.6906553E-009  0.1091363E+03  0.7561462E-02  0.1262178E+00
         -1   -1    0    0    0  501 -0.00000000000E+00  0.00000000000E+00  0.23301325976E+02  0.23301325976E+02  0.00000000000E+00 0.  1.
          1   -1    0    0  501    0  0.00000000000E+00 -0.00000000000E+00 -0.65813487538E+03  0.65813487538E+03  0.00000000000E+00 0. -1.
         25    2    1    2    0    0  0.65937898998E+01 -0.59865940173E+02 -0.36979268044E+03  0.39499647097E+03  0.12509267252E+03 0.  0.
         23    2    1    2    0    0 -0.65937898998E+01  0.59865940173E+02 -0.26504086897E+03  0.28643973038E+03  0.90408230055E+02 0.  0.
          5    1    3    3  502    0 -0.52186665939E+02 -0.14393830330E+02 -0.86839035344E+02  0.10241640939E+03  0.41800000000E+01 0. -1.
         -5    1    3    3    0  502  0.58780455838E+02 -0.45472109843E+02 -0.28295364509E+03  0.29258006158E+03  0.41800000000E+01 0. -1.
        -11    1    4    4    0    0  0.25125745009E+02  0.50604398788E+02 -0.76926896524E+02  0.95445563793E+02  0.00000000000E+00 0.  1.
         11    1    4    4    0    0 -0.31719534909E+02  0.92615413855E+01 -0.18811397244E+03  0.19099416659E+03  0.00000000000E+00 0. -1.
</event>
<event>
 8    1  0.6906553E-009  0.1208697E+03  0.7561462E-02  0.1241669E+00
         -1   -1    0    0    0  501 -0.00000000000E+00  0.00000000000E+00  0.20087057884E+02  0.20087057884E+02  0.00000000000E+00 0.  1.
          1   -1    0    0  501    0  0.00000000000E+00 -0.00000000000E+00 -0.90940390905E+03  0.90940390905E+03  0.00000000000E+00 0. -1.
         25    2    1    2    0    0  0.30257982767E+02 -0.45967089179E+02 -0.69081995921E+03  0.70420776330E+03  0.12509132279E+03 0.  0.
         23    2    1    2    0    0 -0.30257982767E+02  0.45967089179E+02 -0.19849689196E+03  0.22528320364E+03  0.91230405655E+02 0.  0.
          5    1    3    3  502    0 -0.71554021513E+01 -0.82613453933E+02 -0.37847597806E+03  0.38747609077E+03  0.41800000000E+01 0.  1.
         -5    1    3    3    0  502  0.37413384918E+02  0.36646364753E+02 -0.31234398115E+03  0.31673167253E+03  0.41800000000E+01 0.  1.
        -11    1    4    4    0    0 -0.25403798779E+02 -0.24645650266E+02 -0.75243879609E+02  0.83152886228E+02  0.00000000000E+00 0. -1.
         11    1    4    4    0    0 -0.48541839882E+01  0.70612739445E+02 -0.12325301235E+03  0.14213031741E+03  0.00000000000E+00 0.  1.
</event>
<event>
 8    1  0.6906553E-009  0.6981720E+02  0.7561462E-02  0.1360716E+00
          2   -1    0    0  501    0  0.00000000000E+00  0.00000000000E+00  0.12013515758E+02  0.12013515758E+02  0.00000000000E+00 0. -1.
         -2   -1    0    0    0  501 -0.00000000000E+00 -0.00000000000E+00 -0.10305657636E+04  0.10305657636E+04  0.00000000000E+00 0.  1.
         25    2    1    2    0    0 -0.96451530168E+01 -0.24001275455E+02 -0.60147864113E+03  0.61489298755E+03  0.12509092777E+03 0.  0.
         23    2    1    2    0    0  0.96451530168E+01  0.24001275455E+02 -0.41707360668E+03  0.42768629177E+03  0.91082822626E+02 0.  0.
          5    1    3    3  502    0 -0.18021777104E+02  0.11003146071E+01 -0.58068270411E+03  0.58097837343E+03  0.41800000000E+01 0. -1.
         -5    1    3    3    0  502  0.83766240871E+01 -0.25101590062E+02 -0.20795937021E+02  0.33914614126E+02  0.41800000000E+01 0. -1.
        -11    1    4    4    0    0 -0.98210814925E+01  0.56000923147E+02 -0.26966947819E+03  0.27559786738E+03  0.00000000000E+00 0.  1.
         11    1    4    4    0    0  0.19466234509E+02 -0.31999647691E+02 -0.14740412849E+03  0.15208842439E+03  0.00000000000E+00 0. -1.
</event>
<event>
 8    1  0.6906553E-009  0.2220998E+03  0.7561462E-02  0.1132327E+00
         -1   -1    0    0    0  501 -0.00000000000E+00  0.00000000000E+00  0.16264990848E+03  0.16264990848E+03  0.00000000000E+00 0.  1.
          1   -1    0    0  501    0  0.00000000000E+00 -0.00000000000E+00 -0.38957243085E+03  0.38957243085E+03  0.00000000000E+00 0. -1.
         25    2    1    2    0    0  0.70079251668E+02 -0.20424879161E+03 -0.41838467560E+02  0.25303506295E+03  0.12509042860E+03 0.  0.
         23    2    1    2    0    0 -0.70079251668E+02  0.20424879161E+03 -0.18508405482E+03  0.29918727637E+03  0.92888366378E+02 0.  0.
          5    1    3    3  502    0  0.51648491732E+02 -0.14477615867E+03 -0.86375692350E+02  0.17636874850E+03  0.41800000000E+01 0.  1.
         -5    1    3    3    0  502  0.18430759935E+02 -0.59472632937E+02  0.44537224790E+02  0.76666314456E+02  0.41800000000E+01 0.  1.
        -11    1    4    4    0    0 -0.30087382362E+02  0.13232456711E+02 -0.42759450260E+01  0.33145621036E+02  0.00000000000E+00 0.  1.
         11    1    4    4    0    0 -0.39991869306E+02  0.19101633490E+03 -0.18080810979E+03  0.26604165534E+03  0.00000000000E+00 0. -1.
</event>
<event>
 8    1  0.6906553E-009  0.1518691E+03  0.7561462E-02  0.1198195E+00
          2   -1    0    0  501    0  0.00000000000E+00  0.00000000000E+00  0.35880852938E+03  0.35880852938E+03  0.00000000000E+00 0. -1.
         -2   -1    0    0    0  501 -0.00000000000E+00 -0.00000000000E+00 -0.73611455705E+02  0.73611455705E+02  0.00000000000E+00 0.  1.
         25    2    1    2    0    0  0.81113363184E+02  0.88874554218E+02  0.14225127339E+03  0.22441109256E+03  0.12508736789E+03 0.  0.
         23    2    1    2    0    0 -0.81113363184E+02 -0.88874554218E+02  0.14294580028E+03  0.20800889253E+03  0.91411889150E+02 0.  0.
          5    1    3    3  502    0  0.66149718605E+02 -0.11459785663E+02  0.31858953514E+02  0.74428336525E+02  0.41800000000E+01 0.  1.
         -5    1    3    3    0  502  0.14963644579E+02  0.10033433988E+03  0.11039231988E+03  0.14998275603E+03  0.41800000000E+01 0.  1.
        -11    1    4    4    0    0 -0.69929287379E+02 -0.31865705599E+02  0.32949794345E+02  0.83613499951E+02  0.00000000000E+00 0.  1.
         11    1    4    4    0    0 -0.11184075805E+02 -0.57008848618E+02  0.10999600594E+03  0.12439539258E+03  0.00000000000E+00 0. -1.
</event>
<event>
 8    1  0.6906553E-009  0.9075558E+02  0.7561462E-02  0.1301032E+00
          2   -1    0    0  501    0  0.00000000000E+00  0.00000000000E+00  0.14841364348E+04  0.14841364348E+04  0.00000000000E+00 0. -1.
         -2   -1    0    0    0  501 -0.00000000000E+00 -0.00000000000E+00 -0.13658070881E+02  0.13658070881E+02  0.00000000000E+00 0.  1.
         25    2    1    2    0    0  0.21164117780E+02 -0.10064492175E+02  0.12621311955E+04  0.12685317095E+04  0.12509328345E+03 0.  0.
         23    2    1    2    0    0 -0.21164117780E+02  0.10064492175E+02  0.20834716844E+03  0.22926279616E+03  0.92755987537E+02 0.  0.
          5    1    3    3  502    0 -0.21748454916E+02 -0.42235498682E+02  0.22461821193E+03  0.22962501208E+03  0.41800000000E+01 0. -1.
         -5    1    3    3    0  502  0.42912572696E+02  0.32171006507E+02  0.10375129835E+04  0.10389066974E+04  0.41800000000E+01 0. -1.
        -11    1    4    4    0    0 -0.44396978310E+02 -0.14024209059E+02  0.17832597302E+03  0.18430388704E+03  0.00000000000E+00 0. -1.
         11    1    4    4    0    0  0.23232860529E+02  0.24088701234E+02  0.30021195417E+02  0.44958909126E+02  0.00000000000E+00 0.  1.
</event>
<event>
 8    1  0.6906553E-009  0.8909730E+02  0.7561462E-02  0.1305053E+00
         -2   -1    0    0    0  501 -0.00000000000E+00  0.00000000000E+00  0.49977265879E+02  0.49977265879E+02  0.00000000000E+00 0.  1.
          2   -1    0    0  501    0  0.00000000000E+00 -0.00000000000E+00 -0.27252550405E+03  0.27252550405E+03  0.00000000000E+00 0. -1.
         25    2    1    2    0    0 -0.35984436594E+02 -0.67575800098E+00 -0.15496091758E+03  0.20237150731E+03  0.12508399046E+03 0.  0.
         23    2    1    2    0    0  0.35984436594E+02  0.67575800098E+00 -0.67587320586E+02  0.12013126261E+03  0.92564237298E+02 0.  0.
          5    1    3    3  502    0 -0.66627640455E+02  0.40425169329E+02 -0.10333058688E+03  0.12949177338E+03  0.41800000000E+01 0. -1.
         -5    1    3    3    0  502  0.30643203861E+02 -0.41100927330E+02 -0.51630330700E+02  0.72879733935E+02  0.41800000000E+01 0. -1.
        -11    1    4    4    0    0  0.23292761106E+02 -0.15629678924E+02 -0.87225576123E+02  0.91625000482E+02  0.00000000000E+00 0. -1.
         11    1    4    4    0    0  0.12691675488E+02  0.16305436925E+02  0.19638255537E+02  0.28506262129E+02  0.00000000000E+00 0.  1.
</event>
<event>
 8    1  0.6906553E-009  0.1327207E+03  0.7561462E-02  0.1223474E+00
         -2   -1    0    0    0  501 -0.00000000000E+00  0.00000000000E+00  0.29501846900E+02  0.29501846900E+02  0.00000000000E+00 0.  1.
          2   -1    0    0  501    0  0.00000000000E+00 -0.00000000000E+00 -0.10624564768E+04  0.10624564768E+04  0.00000000000E+00 0. -1.
         25    2    1    2    0    0  0.62836979603E+01  0.96259287430E+02 -0.85849744412E+03  0.87290907336E+03  0.12508818293E+03 0.  0.
         23    2    1    2    0    0 -0.62836979603E+01 -0.96259287430E+02 -0.17445718573E+03  0.21904925030E+03  0.90785071049E+02 0.  0.
          5    1    3    3  502    0  0.64051661207E+02  0.49742219572E+02 -0.37093120348E+03  0.37971612268E+03  0.41800000000E+01 0. -1.
         -5    1    3    3    0  502 -0.57767963246E+02  0.46517067858E+02 -0.48756624064E+03  0.49319295067E+03  0.41800000000E+01 0. -1.
        -11    1    4    4    0    0  0.76199006649E+01 -0.95733020087E+02 -0.18004421209E+03  0.20405585590E+03  0.00000000000E+00 0. -1.
         11    1    4    4    0    0 -0.13903598625E+02 -0.52626734324E+00  0.55870263548E+01  0.14993394397E+02  0.00000000000E+00 0.  1.
</event>
<event>
 8    1  0.6906553E-009  0.1269050E+03  0.7561462E-02  0.1232122E+00
         -2   -1    0    0    0  501 -0.00000000000E+00  0.00000000000E+00  0.36969890372E+03  0.36969890372E+03  0.00000000000E+00 0. -1.
          2   -1    0    0  501    0  0.00000000000E+00 -0.00000000000E+00 -0.53984936877E+02  0.53984936877E+02  0.00000000000E+00 0.  1.
         25    2    1    2    0    0  0.37905127901E+02  0.80437190403E+02  0.18715125707E+03  0.24203324948E+03  0.12509020948E+03 0.  0.
         23    2    1    2    0    0 -0.37905127901E+02 -0.80437190403E+02  0.12856270978E+03  0.18165059112E+03  0.92529058079E+02 0.  0.
          5    1    3    3  502    0  0.43855533606E+02 -0.72102611500E+00  0.14241933563E+03  0.14907906382E+03  0.41800000000E+01 0.  1.
         -5    1    3    3    0  502 -0.59504057044E+01  0.81158216518E+02  0.44731921439E+02  0.92954185662E+02  0.41800000000E+01 0.  1.
        -11    1    4    4    0    0 -0.65679967316E+02 -0.33507176399E+02  0.76718841657E+02  0.10640662405E+03  0.00000000000E+00 0.  1.
         11    1    4    4    0    0  0.27774839415E+02 -0.46930014004E+02  0.51843868119E+02  0.75243967071E+02  0.00000000000E+00 0. -1.
</event>
<event>
 8    1  0.6906553E-009  0.2394871E+03  0.7561462E-02  0.1120135E+00
         -2   -1    0    0    0  501 -0.00000000000E+00  0.00000000000E+00  0.42516499068E+02  0.42516499068E+02  0.00000000000E+00 0.  1.
          2   -1    0    0  501    0  0.00000000000E+00 -0.00000000000E+00 -0.15386333421E+04  0.15386333421E+04  0.00000000000E+00 0. -1.
         25    2    1    2    0    0 -0.22289234633E+03  0.57561690109E+02 -0.82243970126E+03  0.86316231615E+03  0.12509106919E+03 0.  0.
         23    2    1    2    0    0  0.22289234633E+03 -0.57561690109E+02 -0.67367714182E+03  0.71798752507E+03  0.93117391086E+02 0.  0.
          5    1    3    3  502    0 -0.14207052476E+03  0.27974426482E+02 -0.69082288173E+03  0.70584724188E+03  0.41800000000E+01 0.  1.
         -5    1    3    3    0  502 -0.80821821565E+02  0.29587263627E+02 -0.13161681953E+03  0.15731507427E+03  0.41800000000E+01 0.  1.
        -11    1    4    4    0    0  0.50367301276E+02 -0.56130901351E+02 -0.18708453404E+03  0.20171307841E+03  0.00000000000E+00 0.  1.
         11    1    4    4    0    0  0.17252504505E+03 -0.14307887576E+01 -0.48659260778E+03  0.51627444666E+03  0.00000000000E+00 0. -1.
</event>
<event>
 8    1  0.6906553E-009  0.1399955E+03  0.7561462E-02  0.1213335E+00
         -2   -1    0    0    0  501 -0.00000000000E+00  0.00000000000E+00  0.28370965603E+03  0.28370965603E+03  0.00000000000E+00 0.  1.
          2   -1    0    0  501    0  0.00000000000E+00 -0.00000000000E+00 -0.73477698249E+02  0.73477698249E+02  0.00000000000E+00 0. -1.
         25    2    1    2    0    0 -0.82706581042E+02  0.39628419723E+02  0.85828245368E+02  0.17726957229E+03  0.12508886185E+03 0.  0.
         23    2    1    2    0    0  0.82706581042E+02 -0.39628419723E+02  0.12440371242E+03  0.17991778199E+03  0.92105018412E+02 0.  0.
          5    1    3    3  502    0  0.10808141021E+02 -0.32238516175E+02  0.34360778861E+02  0.48520854912E+02  0.41800000000E+01 0. -1.
         -5    1    3    3    0  502 -0.93514722063E+02  0.71866935898E+02  0.51467466507E+02  0.12874871738E+03  0.41800000000E+01 0. -1.
        -11    1    4    4    0    0  0.42834127839E+02 -0.66881708117E+02  0.93049615310E+02  0.12233624278E+03  0.00000000000E+00 0. -1.
         11    1    4    4    0    0  0.39872453203E+02  0.27253288393E+02  0.31354097108E+02  0.57581539213E+02  0.00000000000E+00 0.  1.
</event>
<event>
 8    1  0.6906553E-009  0.8141297E+02  0.7561462E-02  0.1325089E+00
         -2   -1    0    0    0  501 -0.00000000000E+00  0.00000000000E+00  0.19973926186E+02  0.19973926186E+02  0.00000000000E+00 0.  1.
          2   -1    0    0  501    0  0.00000000000E+00 -0.00000000000E+00 -0.65979016800E+03  0.65979016800E+03  0.00000000000E+00 0. -1.
         25    2    1    2    0    0  0.23360941321E+02 -0.72179742677E+01 -0.45150909457E+03  0.46915508406E+03  0.12509275637E+03 0.  0.
         23    2    1    2    0    0 -0.23360941321E+02  0.72179742677E+01 -0.18830714724E+03  0.21060901012E+03  0.91097424266E+02 0.  0.
          5    1    3    3  502    0  0.47631954807E+02  0.49559752315E+01 -0.43383044526E+03  0.43648561539E+03  0.41800000000E+01 0. -1.
         -5    1    3    3    0  502 -0.24271013486E+02 -0.12173949499E+02 -0.17678649305E+02  0.32669468672E+02  0.41800000000E+01 0. -1.
        -11    1    4    4    0    0 -0.51991295942E+02 -0.11273053723E+02 -0.15090241598E+03  0.16000536161E+03  0.00000000000E+00 0. -1.
         11    1    4    4    0    0  0.28630354621E+02  0.18491027991E+02 -0.37404731263E+02  0.50603648512E+02  0.00000000000E+00 0.  1.
</event>
<event>
 8    1  0.6906553E-009  0.9973284E+02  0.7561462E-02  0.1280859E+00
         -4   -1    0    0    0  501 -0.00000000000E+00  0.00000000000E+00  0.71064251201E+02  0.71064251201E+02  0.00000000000E+00 0. -1.
          4   -1    0    0  501    0  0.00000000000E+00 -0.00000000000E+00 -0.24903904660E+03  0.24903904660E+03  0.00000000000E+00 0.  1.
         25    2    1    2    0    0 -0.48677050608E+02  0.57771495503E+02 -0.11293531351E+03  0.18468275990E+03  0.12508531416E+03 0.  0.
         23    2    1    2    0    0  0.48677050608E+02 -0.57771495503E+02 -0.65039481897E+02  0.13542053791E+03  0.91660170921E+02 0.  0.
          5    1    3    3  502    0 -0.20946924225E+02  0.60593691830E+01  0.25771740181E+02  0.34016827914E+02  0.41800000000E+01 0.  1.
         -5    1    3    3    0  502 -0.27730126383E+02  0.51712126320E+02 -0.13870705369E+03  0.15066593198E+03  0.41800000000E+01 0.  1.
        -11    1    4    4    0    0  0.16903322850E+02 -0.78630914089E+02 -0.39294432561E+02  0.89513101858E+02  0.00000000000E+00 0.  1.
         11    1    4    4    0    0  0.31773727758E+02  0.20859418586E+02 -0.25745049337E+02  0.45907436050E+02  0.00000000000E+00 0. -1.
</event>
<event>
 8    1  0.6906553E-009  0.1790104E+03  0.7561462E-02  0.1168764E+00
          2   -1    0    0  501    0  0.00000000000E+00  0.00000000000E+00  0.43067373619E+03  0.43067373619E+03  0.00000000000E+00 0. -1.
         -2   -1    0    0    0  501 -0.00000000000E+00 -0.00000000000E+00 -0.88891270696E+02  0.88891270696E+02  0.00000000000E+00 0.  1.
         25    2    1    2    0    0  0.13744267145E+03  0.76682362101E+02  0.23031038702E+03  0.30571418893E+03  0.12509044068E+03 0.  0.
         23    2    1    2    0    0 -0.13744267145E+03 -0.76682362101E+02  0.11147207848E+03  0.21385081796E+03  0.92387637000E+02 0.  0.
          5    1    3    3  502    0  0.51018659635E+02 -0.25260234005E+02  0.28956730277E+02  0.64007403332E+02  0.41800000000E+01 0. -1.
         -5    1    3    3    0  502  0.86424011813E+02  0.10194259611E+03  0.20135365674E+03  0.24170678559E+03  0.41800000000E+01 0. -1.
        -11    1    4    4    0    0 -0.57457617455E+02 -0.64395425405E+02  0.10004371180E+03  0.13212453553E+03  0.00000000000E+00 0. -1.
         11    1    4    4    0    0 -0.79985053993E+02 -0.12286936696E+02  0.11428366672E+02  0.81726282434E+02  0.00000000000E+00 0.  1.
</event>
<event>
 8    1  0.6906553E-009  0.1015482E+03  0.7561462E-02  0.1277074E+00
         -1   -1    0    0    0  501 -0.00000000000E+00  0.00000000000E+00  0.32390005459E+02  0.32390005459E+02  0.00000000000E+00 0.  1.
          1   -1    0    0  501    0  0.00000000000E+00 -0.00000000000E+00 -0.51647645962E+03  0.51647645962E+03  0.00000000000E+00 0. -1.
         25    2    1    2    0    0  0.69684150164E+02 -0.13994819281E+01 -0.25407037393E+03  0.29164708241E+03  0.12509367063E+03 0.  0.
         23    2    1    2    0    0 -0.69684150164E+02  0.13994819281E+01 -0.23001608023E+03  0.25721938267E+03  0.91632823402E+02 0.  0.
          5    1    3    3  502    0 -0.39966452164E+01 -0.33134839844E+02 -0.17752932529E+03  0.18068764352E+03  0.41800000000E+01 0. -1.
         -5    1    3    3    0  502  0.73680795380E+02  0.31735357916E+02 -0.76541048643E+02  0.11095943888E+03  0.41800000000E+01 0. -1.
        -11    1    4    4    0    0 -0.68185198009E+02 -0.17317794564E+02 -0.22767584338E+03  0.23829690912E+03  0.00000000000E+00 0. -1.
         11    1    4    4    0    0 -0.14989521555E+01  0.18717276492E+02 -0.23402368459E+01  0.18922473552E+02  0.00000000000E+00 0.  1.
</event>
<event>
 8    1  0.6906553E-009  0.9172312E+02  0.7561462E-02  0.1298732E+00
         -1   -1    0    0    0  501 -0.00000000000E+00  0.00000000000E+00  0.15203283369E+03  0.15203283369E+03  0.00000000000E+00 0.  1.
          1   -1    0    0  501    0  0.00000000000E+00 -0.00000000000E+00 -0.88359381017E+02  0.88359381017E+02  0.00000000000E+00 0. -1.
         25    2    1    2    0    0  0.84906070654E+01  0.47180610550E+02  0.44495318701E+02  0.14115679789E+03  0.12508919932E+03 0.  0.
         23    2    1    2    0    0 -0.84906070654E+01 -0.47180610550E+02  0.19178133969E+02  0.99235416809E+02  0.84745304923E+02 0.  0.
          5    1    3    3  502    0 -0.57977288182E+02  0.17139716631E+02  0.24863310415E+02  0.65504140602E+02  0.41800000000E+01 0. -1.
         -5    1    3    3    0  502  0.66467895248E+02  0.30040893919E+02  0.19632008286E+02  0.75652657293E+02  0.41800000000E+01 0. -1.
        -11    1    4    4    0    0 -0.11606547740E+02 -0.27373274334E+02  0.52506631532E+02  0.60340321950E+02  0.00000000000E+00 0.  1.
         11    1    4    4    0    0  0.31159406749E+01 -0.19807336216E+02 -0.33328497563E+02  0.38895094859E+02  0.00000000000E+00 0. -1.
</event>
<event>
 8    1  0.6906553E-009  0.1816728E+03  0.7561462E-02  0.1166194E+00
          1   -1    0    0  501    0  0.00000000000E+00  0.00000000000E+00  0.26670112694E+03  0.26670112694E+03  0.00000000000E+00 0. -1.
         -1   -1    0    0    0  501 -0.00000000000E+00 -0.00000000000E+00 -0.16433782393E+03  0.16433782393E+03  0.00000000000E+00 0.  1.
         25    2    1    2    0    0 -0.12930103891E+03  0.10223063886E+03  0.12760171108E+03  0.24310420749E+03  0.12509035471E+03 0.  0.
         23    2    1    2    0    0  0.12930103891E+03 -0.10223063886E+03 -0.25238408066E+02  0.18793474338E+03  0.86675419484E+02 0.  0.
          5    1    3    3  502    0 -0.11426047451E+03  0.52423835454E+02  0.25365253676E+02  0.12831439145E+03  0.41800000000E+01 0.  1.
         -5    1    3    3    0  502 -0.15040564399E+02  0.49806803408E+02  0.10223645741E+03  0.11478981604E+03  0.41800000000E+01 0.  1.
        -11    1    4    4    0    0  0.11456686962E+03 -0.39895402080E+02 -0.25088849856E+02  0.12388164153E+03  0.00000000000E+00 0.  1.
         11    1    4    4    0    0  0.14734169297E+02 -0.62335236782E+02 -0.14955820933E+00  0.64053101855E+02  0.00000000000E+00 0. -1.
</event>
<event>
 8    1  0.6906553E-009  0.1144023E+03  0.7561462E-02  0.1252628E+00
         -3   -1    0    0    0  501 -0.00000000000E+00  0.00000000000E+00  0.21029816790E+02  0.21029816790E+02  0.00000000000E+00 0.  1.
          3   -1    0    0  501    0  0.00000000000E+00 -0.00000000000E+00 -0.75682592233E+03  0.75682592233E+03  0.00000000000E+00 0. -1.
         25    2    1    2    0    0 -0.57625857746E+02  0.15854967610E+02 -0.50101584335E+03  0.51984211888E+03  0.12508730468E+03 0.  0.
         23    2    1    2    0    0  0.57625857746E+02 -0.15854967610E+02 -0.23478026219E+03  0.25801362025E+03  0.88753237899E+02 0.  0.
          5    1    3    3  502    0 -0.25966900473E+02  0.70548402205E+02 -0.26945789829E+03  0.27977917779E+03  0.41800000000E+01 0.  1.
         -5    1    3    3    0  502 -0.31658957274E+02 -0.54693434595E+02 -0.23155794506E+03  0.24006294108E+03  0.41800000000E+01 0.  1.
        -11    1    4    4    0    0 -0.14858267321E+02  0.32719346659E+01 -0.45409808206E+01  0.15877473699E+02  0.00000000000E+00 0.  1.
         11    1    4    4    0    0  0.72484125067E+02 -0.19126902276E+02 -0.23023928137E+03  0.24213614655E+03  0.00000000000E+00 0. -1.
</event>
<event>
 8    1  0.6906553E-009  0.1239921E+03  0.7561462E-02  0.1236653E+00
          1   -1    0    0  501    0  0.00000000000E+00  0.00000000000E+00  0.90837297432E+03  0.90837297432E+03  0.00000000000E+00 0. -1.
         -1   -1    0    0    0  501 -0.00000000000E+00 -0.00000000000E+00 -0.19502825150E+02  0.19502825150E+02  0.00000000000E+00 0.  1.
         25    2    1    2    0    0 -0.71158814579E+02  0.29497426511E+02  0.50961341418E+03  0.53036461924E+03  0.12508845815E+03 0.  0.
         23    2    1    2    0    0  0.71158814579E+02 -0.29497426511E+02  0.37925673499E+03  0.39751118023E+03  0.90806345107E+02 0.  0.
          5    1    3    3  502    0 -0.26152054485E+02 -0.49356557167E+02  0.19352727057E+03  0.20147028700E+03  0.41800000000E+01 0.  1.
         -5    1    3    3    0  502 -0.45006760095E+02  0.78853983678E+02  0.31608614361E+03  0.32889433224E+03  0.41800000000E+01 0.  1.
        -11    1    4    4    0    0  0.51574896981E+02  0.13946079222E+02  0.92492538055E+02  0.10681447805E+03  0.00000000000E+00 0.  1.
         11    1    4    4    0    0  0.19583917598E+02 -0.43443505733E+02  0.28676419693E+03  0.29069670219E+03  0.00000000000E+00 0. -1.
</event>
<event>
 8    1  0.6906553E-009  0.9741617E+02  0.7561462E-02  0.1285825E+00
         -3   -1    0    0    0  501 -0.00000000000E+00  0.00000000000E+00  0.15546327448E+03  0.15546327448E+03  0.00000000000E+00 0.  1.
          3   -1    0    0  501    0  0.00000000000E+00 -0.00000000000E+00 -0.10775410385E+03  0.10775410385E+03  0.00000000000E+00 0. -1.
         25    2    1    2    0    0  0.68395464125E+01  0.52231150100E+02 -0.21308847631E+02  0.13739259342E+03  0.12509110801E+03 0.  0.
         23    2    1    2    0    0 -0.68395464125E+01 -0.52231150100E+02  0.69018018264E+02  0.12582478490E+03  0.91068749935E+02 0.  0.
          5    1    3    3  502    0 -0.18978693968E+02 -0.29610652503E+02 -0.35685991587E+02  0.50278663088E+02  0.41800000000E+01 0.  1.
         -5    1    3    3    0  502  0.25818240381E+02  0.81841802603E+02  0.14377143956E+02  0.87113930333E+02  0.41800000000E+01 0.  1.
        -11    1    4    4    0    0 -0.29158442451E+02 -0.26142553418E+02 -0.93530903829E+01  0.40263235899E+02  0.00000000000E+00 0. -1.
         11    1    4    4    0    0  0.22318896039E+02 -0.26088596682E+02  0.78371108646E+02  0.85561549002E+02  0.00000000000E+00 0.  1.
</event>
<event>
 8    1  0.6906553E-009  0.1199773E+03  0.7561462E-02  0.1243135E+00
         -2   -1    0    0    0  501 -0.00000000000E+00  0.00000000000E+00  0.28850715452E+03  0.28850715452E+03  0.00000000000E+00 0.  1.
          2   -1    0    0  501    0  0.00000000000E+00 -0.00000000000E+00 -0.75452508141E+02  0.75452508141E+02  0.00000000000E+00 0. -1.
         25    2    1    2    0    0  0.14568785831E+02 -0.98307261153E+02  0.12683121816E+03  0.20398607054E+03  0.12509033520E+03 0.  0.
         23    2    1    2    0    0 -0.14568785831E+02  0.98307261153E+02  0.86223428219E+02  0.15997359211E+03  0.90997271850E+02 0.  0.
          5    1    3    3  502    0  0.30748020595E+02 -0.23155013101E+02  0.12069631026E+03  0.12675435737E+03  0.41800000000E+01 0.  1.
         -5    1    3    3    0  502 -0.16179234764E+02 -0.75152248052E+02  0.61349078985E+01  0.77231713174E+02  0.41800000000E+01 0.  1.
        -11    1    4    4    0    0  0.26568292061E+02  0.68431060146E+02  0.19252035537E+02  0.75890216814E+02  0.00000000000E+00 0. -1.
         11    1    4    4    0    0 -0.41137077892E+02  0.29876201007E+02  0.66971392682E+02  0.84083375300E+02  0.00000000000E+00 0.  1.
</event>
<event>
 8    1  0.6906553E-009  0.1810576E+03  0.7561462E-02  0.1166783E+00
          2   -1    0    0  501    0  0.00000000000E+00  0.00000000000E+00  0.52109595607E+03  0.52109595607E+03  0.00000000000E+00 0. -1.
         -2   -1    0    0    0  501 -0.00000000000E+00 -0.00000000000E+00 -0.15232222348E+03  0.15232222348E+03  0.00000000000E+00 0.  1.
         25    2    1    2    0    0  0.14697929436E+03 -0.56292106109E+02  0.43533649509E+03  0.47951680624E+03  0.12508712696E+03 0.  0.
         23    2    1    2    0    0 -0.14697929436E+03  0.56292106109E+02 -0.66562762500E+02  0.19390137330E+03  0.91626562940E+02 0.  0.
          5    1    3    3  502    0  0.69527476248E+02 -0.76336461256E+02  0.14318759505E+03  0.17658279940E+03  0.41800000000E+01 0. -1.
         -5    1    3    3    0  502  0.77451818109E+02  0.20044355147E+02  0.29214890004E+03  0.30293400684E+03  0.41800000000E+01 0. -1.
        -11    1    4    4    0    0 -0.11426908139E+03  0.78934907873E+02 -0.35280959087E+02  0.14329301699E+03  0.00000000000E+00 0. -1.
         11    1    4    4    0    0 -0.32710212966E+02 -0.22642801764E+02 -0.31281803414E+02  0.50608356314E+02  0.00000000000E+00 0.  1.
</event>
<event>
 8    1  0.6906553E-009  0.1213527E+03  0.7561462E-02  0.1240882E+00
         -2   -1    0    0    0  501 -0.00000000000E+00  0.00000000000E+00  0.56706476494E+02  0.56706476494E+02  0.00000000000E+00 0.  1.
          2   -1    0    0  501    0  0.00000000000E+00 -0.00000000000E+00 -0.46289276953E+03  0.46289276953E+03  0.00000000000E+00 0. -1.
         25    2    1    2    0    0 -0.52227325229E+02  0.55771325714E+02 -0.36948180116E+03  0.39749471921E+03  0.12508843325E+03 0.  0.
         23    2    1    2    0    0  0.52227325229E+02 -0.55771325714E+02 -0.36704491877E+02  0.12210452682E+03  0.87887208820E+02 0.  0.
          5    1    3    3  502    0 -0.22842205377E+02 -0.36185041546E+02 -0.17665352811E+03  0.18181051942E+03  0.41800000000E+01 0. -1.
         -5    1    3    3    0  502 -0.29385119852E+02  0.91956367259E+02 -0.19282827305E+03  0.21568419978E+03  0.41800000000E+01 0. -1.
        -11    1    4    4    0    0  0.61847853058E+02 -0.65020008536E+02 -0.50450047603E+02  0.10294642170E+03  0.00000000000E+00 0. -1.
         11    1    4    4    0    0 -0.96205278293E+01  0.92486828218E+01  0.13745555726E+02  0.19158105122E+02  0.00000000000E+00 0.  1.
</event>
<event>
 8    1  0.6906553E-009  0.1020097E+03  0.7561462E-02  0.1276126E+00
         -1   -1    0    0    0  501 -0.00000000000E+00  0.00000000000E+00  0.57777237216E+02  0.57777237216E+02  0.00000000000E+00 0.  1.
          1   -1    0    0  501    0  0.00000000000E+00 -0.00000000000E+00 -0.36440907560E+03  0.36440907560E+03  0.00000000000E+00 0. -1.
         25    2    1    2    0    0 -0.66454059316E+02  0.40889269759E+02 -0.88128762572E+02  0.17176228791E+03  0.12509008903E+03 0.  0.
         23    2    1    2    0    0  0.66454059316E+02 -0.40889269759E+02 -0.21850307581E+03  0.25042402491E+03  0.94236530768E+02 0.  0.
          5    1    3    3  502    0 -0.66626965297E+02  0.41982402003E+02  0.45405259158E+01  0.78992172766E+02  0.41800000000E+01 0. -1.
         -5    1    3    3    0  502  0.17290598075E+00 -0.10931322437E+01 -0.92669288488E+02  0.92770115142E+02  0.41800000000E+01 0. -1.
        -11    1    4    4    0    0  0.59246740136E+02  0.17675455483E+02 -0.92116659632E+02  0.11094177268E+03  0.00000000000E+00 0.  1.
         11    1    4    4    0    0  0.72073191801E+01 -0.58564725242E+02 -0.12638641618E+03  0.13948225223E+03  0.00000000000E+00 0. -1.
</event>
<event>
 8    1  0.6906553E-009  0.1107256E+03  0.7561462E-02  0.1259232E+00
         -1   -1    0    0    0  501 -0.00000000000E+00  0.00000000000E+00  0.71063316239E+02  0.71063316239E+02  0.00000000000E+00 0.  1.
          1   -1    0    0  501    0  0.00000000000E+00 -0.00000000000E+00 -0.28677539438E+03  0.28677539438E+03  0.00000000000E+00 0. -1.
         25    2    1    2    0    0  0.54237446197E+02 -0.31067674280E+02 -0.30808966347E+02  0.14320397004E+03  0.12510509051E+03 0.  0.
         23    2    1    2    0    0 -0.54237446197E+02  0.31067674280E+02 -0.18490311179E+03  0.21463474057E+03  0.89286114021E+02 0.  0.
          5    1    3    3  502    0  0.18005089502E+02 -0.71489215262E+02  0.10872751251E+02  0.74636320023E+02  0.41800000000E+01 0.  1.
         -5    1    3    3    0  502  0.36232356695E+02  0.40421540982E+02 -0.41681717598E+02  0.68567650017E+02  0.41800000000E+01 0.  1.
        -11    1    4    4    0    0  0.30587335886E+01  0.35563374890E+02 -0.13122752184E+03  0.13599548512E+03  0.00000000000E+00 0. -1.
         11    1    4    4    0    0 -0.57296179785E+02 -0.44957006093E+01 -0.53675589948E+02  0.78639255453E+02  0.00000000000E+00 0.  1.
</event>
<event>
 8    1  0.6906553E-009  0.2070418E+03  0.7561462E-02  0.1143930E+00
          2   -1    0    0  501    0  0.00000000000E+00  0.00000000000E+00  0.18623794303E+04  0.18623794303E+04  0.00000000000E+00 0.  1.
         -2   -1    0    0    0  501 -0.00000000000E+00 -0.00000000000E+00 -0.24706665964E+02  0.24706665964E+02  0.00000000000E+00 0. -1.
         25    2    1    2    0    0 -0.15961425081E+03  0.76520345891E+02  0.72622693454E+03  0.75788119934E+03  0.12508508891E+03 0.  0.
         23    2    1    2    0    0  0.15961425081E+03 -0.76520345891E+02  0.11114458298E+04  0.11292048969E+04  0.91977139902E+02 0.  0.
          5    1    3    3  502    0 -0.16422974259E+03  0.29016658789E+02  0.60352271882E+03  0.62615534764E+03  0.41800000000E+01 0. -1.
         -5    1    3    3    0  502  0.46154917834E+01  0.47503687102E+02  0.12270421571E+03  0.13172585170E+03  0.41800000000E+01 0. -1.
        -11    1    4    4    0    0  0.11905501170E+03 -0.74982212066E+01  0.68502591717E+03  0.69533504609E+03  0.00000000000E+00 0.  1.
         11    1    4    4    0    0  0.40559239107E+02 -0.69022124685E+02  0.42641991261E+03  0.43386985081E+03  0.00000000000E+00 0. -1.
</event>
<event>
 8    1  0.6906553E-009  0.1062357E+03  0.7561462E-02  0.1267704E+00
          2   -1    0    0  501    0  0.00000000000E+00  0.00000000000E+00  0.18014243049E+03  0.18014243049E+03  0.00000000000E+00 0. -1.
         -2   -1    0    0    0  501 -0.00000000000E+00 -0.00000000000E+00 -0.10370464762E+03  0.10370464762E+03  0.00000000000E+00 0.  1.
         25    2    1    2    0    0 -0.64969798880E+02  0.24720542453E+02 -0.60534707559E+01  0.14322867198E+03  0.12508248472E+03 0.  0.
         23    2    1    2    0    0  0.64969798880E+02 -0.24720542453E+02  0.82491253617E+02  0.14061840613E+03  0.90202822755E+02 0.  0.
          5    1    3    3  502    0  0.12839380235E+02  0.52926922409E+02  0.17010432207E+02  0.57209579656E+02  0.41800000000E+01 0. -1.
         -5    1    3    3    0  502 -0.77809179115E+02 -0.28206379956E+02 -0.23063902963E+02  0.86019092326E+02  0.41800000000E+01 0.  1.
        -11    1    4    4    0    0  0.20227030535E+02 -0.22394058240E+02 -0.14722973998E+02  0.33576667078E+02  0.00000000000E+00 0.  1.
         11    1    4    4    0    0  0.44742768345E+02 -0.23264842133E+01  0.97214227615E+02  0.10704173905E+03  0.00000000000E+00 0. -1.
</event>
<event>
 8    1  0.6906553E-009  0.1432519E+03  0.7561462E-02  0.1209019E+00
         -1   -1    0    0    0  501 -0.00000000000E+00  0.00000000000E+00  0.16658626021E+03  0.16658626021E+03  0.00000000000E+00 0.  1.
          1   -1    0    0  501    0  0.00000000000E+00 -0.00000000000E+00 -0.13556169831E+03  0.13556169831E+03  0.00000000000E+00 0. -1.
         25    2    1    2    0    0 -0.78884692139E+02  0.56968070073E+02  0.54122213723E+02  0.16746617282E+03  0.12509016491E+03 0.  0.
         23    2    1    2    0    0  0.78884692139E+02 -0.56968070073E+02 -0.23097651819E+02  0.13468178570E+03  0.90208238082E+02 0.  0.
          5    1    3    3  502    0 -0.10268636484E+03  0.98814306590E+01  0.49030197935E+02  0.11429595315E+03  0.41800000000E+01 0. -1.
         -5    1    3    3    0  502  0.23801672703E+02  0.47086639414E+02  0.50920157878E+01  0.53170219668E+02  0.41800000000E+01 0. -1.
        -11    1    4    4    0    0  0.29451107459E+02  0.22280975539E+02 -0.18147667363E+02  0.41147872754E+02  0.00000000000E+00 0. -1.
         11    1    4    4    0    0  0.49433584681E+02 -0.79249045611E+02 -0.49499844557E+01  0.93533912945E+02  0.00000000000E+00 0.  1.
</event>
<event>
 8    1  0.6906553E-009  0.1333443E+03  0.7561462E-02  0.1222576E+00
          2   -1    0    0  501    0  0.00000000000E+00  0.00000000000E+00  0.21772705481E+02  0.21772705481E+02  0.00000000000E+00 0. -1.
         -2   -1    0    0    0  501 -0.00000000000E+00 -0.00000000000E+00 -0.82879159744E+03  0.82879159744E+03  0.00000000000E+00 0.  1.
         25    2    1    2    0    0  0.21879795398E+02 -0.75227397136E+02 -0.46941980585E+03  0.49207757276E+03  0.12508995468E+03 0.  0.
         23    2    1    2    0    0 -0.21879795398E+02  0.75227397136E+02 -0.33759908611E+03  0.35848673017E+03  0.91660820606E+02 0.  0.
          5    1    3    3  502    0 -0.51099062931E+02 -0.40358451637E+02 -0.24305519173E+03  0.25166091766E+03  0.41800000000E+01 0.  1.
         -5    1    3    3    0  502  0.72978858328E+02 -0.34868945498E+02 -0.22636461412E+03  0.24041665510E+03  0.41800000000E+01 0.  1.
        -11    1    4    4    0    0 -0.57951106913E+02  0.44485376092E+02 -0.19657622679E+03  0.20971288091E+03  0.00000000000E+00 0.  1.
         11    1    4    4    0    0  0.36071311515E+02  0.30742021044E+02 -0.14102285932E+03  0.14877384926E+03  0.00000000000E+00 0. -1.
</event>
<event>
 8    1  0.6906553E-009  0.2046694E+03  0.7561462E-02  0.1145858E+00
         -1   -1    0    0    0  501 -0.00000000000E+00  0.00000000000E+00  0.43048517919E+02  0.43048517919E+02  0.00000000000E+00 0.  1.
          1   -1    0    0  501    0  0.00000000000E+00 -0.00000000000E+00 -0.10738929820E+04  0.10738929820E+04  0.00000000000E+00 0. -1.
         25    2    1    2    0    0  0.21425455039E+02 -0.17974485825E+03 -0.62040328165E+03  0.65826726241E+03  0.12509313606E+03 0.  0.
         23    2    1    2    0    0 -0.21425455039E+02  0.17974485825E+03 -0.41044118242E+03  0.45867423750E+03  0.95670411977E+02 0.  0.
          5    1    3    3  502    0 -0.53987837139E+01  0.12024906340E+02 -0.80202577224E+01  0.15985686473E+02  0.41800000000E+01 0. -1.
         -5    1    3    3    0  502  0.26824238753E+02 -0.19176976459E+03 -0.61238302393E+03  0.64228157594E+03  0.41800000000E+01 0. -1.
        -11    1    4    4    0    0 -0.19322560079E+02 -0.25781177184E+01 -0.67698752726E+02  0.70449479342E+02  0.00000000000E+00 0. -1.
         11    1    4    4    0    0 -0.21028949599E+01  0.18232297597E+03 -0.34274242970E+03  0.38822475816E+03  0.00000000000E+00 0.  1.
</event>
<event>
 8    1  0.6906553E-009  0.1100765E+03  0.7561462E-02  0.1260428E+00
         -1   -1    0    0    0  501 -0.00000000000E+00  0.00000000000E+00  0.60944810506E+03  0.60944810506E+03  0.00000000000E+00 0.  1.
          1   -1    0    0  501    0  0.00000000000E+00 -0.00000000000E+00 -0.30001301201E+02  0.30001301201E+02  0.00000000000E+00 0. -1.
         25    2    1    2    0    0 -0.88739344750E+01  0.38334217523E+02  0.47814063343E+03  0.49579640766E+03  0.12508938231E+03 0.  0.
         23    2    1    2    0    0  0.88739344750E+01 -0.38334217523E+02  0.10130617043E+03  0.14365299860E+03  0.93941390740E+02 0.  0.
          5    1    3    3  502    0  0.47899633996E+02 -0.13127283568E+02  0.25509685423E+03  0.25992033001E+03  0.41800000000E+01 0. -1.
         -5    1    3    3    0  502 -0.56773568471E+02  0.51461501091E+02  0.22304377920E+03  0.23587607766E+03  0.41800000000E+01 0. -1.
        -11    1    4    4    0    0 -0.37939297253E+02 -0.22725172832E+02  0.76640393824E+02  0.88484878492E+02  0.00000000000E+00 0.  1.
         11    1    4    4    0    0  0.46813231728E+02 -0.15609044691E+02  0.24665776608E+02  0.55168120111E+02  0.00000000000E+00 0. -1.
</event>
<event>
 8    1  0.6906553E-009  0.9586199E+02  0.7561462E-02  0.1289246E+00
          1   -1    0    0  501    0  0.00000000000E+00  0.00000000000E+00  0.36939608927E+03  0.36939608927E+03  0.00000000000E+00 0. -1.
         -1   -1    0    0    0  501 -0.00000000000E+00 -0.00000000000E+00 -0.45823086415E+02  0.45823086415E+02  0.00000000000E+00 0.  1.
         25    2    1    2    0    0  0.34066896602E+02  0.22377370382E+02  0.27015210680E+03  0.30048503995E+03  0.12509115985E+03 0.  0.
         23    2    1    2    0    0 -0.34066896602E+02 -0.22377370382E+02  0.53420896059E+02  0.11473413574E+03  0.92999083972E+02 0.  0.
          5    1    3    3  502    0  0.48007770028E+02  0.43266441618E+02  0.58391864756E+02  0.87199846462E+02  0.41800000000E+01 0.  1.
         -5    1    3    3    0  502 -0.13940873426E+02 -0.20889071236E+02  0.21176024204E+03  0.21328519348E+03  0.41800000000E+01 0.  1.
        -11    1    4    4    0    0  0.31911210553E+02 -0.24960690810E+00  0.18236051121E+02  0.36755152334E+02  0.00000000000E+00 0. -1.
         11    1    4    4    0    0 -0.65978107155E+02 -0.22127763474E+02  0.35184844938E+02  0.77978983409E+02  0.00000000000E+00 0.  1.
</event>
<event>
 8    1  0.6906553E-009  0.1219343E+03  0.7561462E-02  0.1239940E+00
         -2   -1    0    0    0  501 -0.00000000000E+00  0.00000000000E+00  0.21690043664E+03  0.21690043664E+03  0.00000000000E+00 0.  1.
          2   -1    0    0  501    0  0.00000000000E+00 -0.00000000000E+00 -0.90975647912E+02  0.90975647912E+02  0.00000000000E+00 0. -1.
         25    2    1    2    0    0  0.20737741291E+00 -0.65735691603E+02  0.13295361179E+03  0.19402179769E+03  0.12508625399E+03 0.  0.
         23    2    1    2    0    0 -0.20737741291E+00  0.65735691603E+02 -0.70288230580E+01  0.11385428686E+03  0.92693959494E+02 0.  0.
          5    1    3    3  502    0 -0.49897307084E+02 -0.72057805779E+02  0.64738845269E+02  0.10904429886E+03  0.41800000000E+01 0. -1.
         -5    1    3    3    0  502  0.50104684497E+02  0.63221141769E+01  0.68214766519E+02  0.84977498830E+02  0.41800000000E+01 0. -1.
        -11    1    4    4    0    0  0.15725441515E+02  0.81517849004E+02 -0.23205111991E+02  0.86202821529E+02  0.00000000000E+00 0. -1.
         11    1    4    4    0    0 -0.15932818928E+02 -0.15782157402E+02  0.16176288933E+02  0.27651465330E+02  0.00000000000E+00 0.  1.
</event>
<event>
 8    1  0.6906553E-009  0.1311507E+03  0.7561462E-02  0.1225758E+00
          2   -1    0    0  501    0  0.00000000000E+00  0.00000000000E+00  0.49427023377E+03  0.49427023377E+03  0.00000000000E+00 0.  1.
         -2   -1    0    0    0  501 -0.00000000000E+00 -0.00000000000E+00 -0.48313203666E+02  0.48313203666E+02  0.00000000000E+00 0. -1.
         25    2    1    2    0    0 -0.67349837651E+02  0.49994034117E+02  0.11828502259E+03  0.19150059421E+03  0.12508288027E+03 0.  0.
         23    2    1    2    0    0  0.67349837651E+02 -0.49994034117E+02  0.32767200751E+03  0.35108284322E+03  0.94100022417E+02 0.  0.
          5    1    3    3  502    0  0.29445031430E+02 -0.25903518616E+01  0.55829651064E-01  0.29852894594E+02  0.41800000000E+01 0. -1.
         -5    1    3    3    0  502 -0.96794869080E+02  0.52584385978E+02  0.11822919294E+03  0.16164769962E+03  0.41800000000E+01 0. -1.
        -11    1    4    4    0    0  0.31211642643E+02  0.24326728244E+02  0.14999245290E+03  0.15512476357E+03  0.00000000000E+00 0.  1.
         11    1    4    4    0    0  0.36138195008E+02 -0.74320762361E+02  0.17767955461E+03  0.19595807966E+03  0.00000000000E+00 0. -1.
</event>
<event>
 8    1  0.6906553E-009  0.3389027E+03  0.7561462E-02  0.1067264E+00
         -1   -1    0    0    0  501 -0.00000000000E+00  0.00000000000E+00  0.41319689889E+02  0.41319689889E+02  0.00000000000E+00 0.  1.
          1   -1    0    0  501    0  0.00000000000E+00 -0.00000000000E+00 -0.31280545852E+04  0.31280545852E+04  0.00000000000E+00 0. -1.
         25    2    1    2    0    0  0.31284185138E+03 -0.97094049410E+02 -0.20164339284E+04  0.20466914519E+04  0.12507131165E+03 0.  0.
         23    2    1    2    0    0 -0.31284185138E+03  0.97094049410E+02 -0.10703009669E+04  0.11226828232E+04  0.87036104302E+02 0.  0.
          5    1    3    3  502    0  0.51613748553E+02 -0.70679799870E+02 -0.46250805623E+03  0.47073430683E+03  0.41800000000E+01 0. -1.
         -5    1    3    3    0  502  0.26122810283E+03 -0.26414249539E+02 -0.15539258722E+04  0.15759571450E+04  0.41800000000E+01 0. -1.
        -11    1    4    4    0    0 -0.14018366871E+03  0.41188868302E+02 -0.33798890101E+03  0.36821798035E+03  0.00000000000E+00 0. -1.
         11    1    4    4    0    0 -0.17265818267E+03  0.55905181108E+02 -0.73231206588E+03  0.75446484288E+03  0.00000000000E+00 0.  1.
</event>
<event>
 8    1  0.6906553E-009  0.1734704E+03  0.7561462E-02  0.1174276E+00
          1   -1    0    0  501    0  0.00000000000E+00  0.00000000000E+00  0.11093032677E+04  0.11093032677E+04  0.00000000000E+00 0. -1.
         -1   -1    0    0    0  501 -0.00000000000E+00 -0.00000000000E+00 -0.51498099126E+02  0.51498099126E+02  0.00000000000E+00 0.  1.
         25    2    1    2    0    0  0.76864970291E+02  0.12170538528E+03  0.16624023558E+03  0.25298925237E+03  0.12508925383E+03 0.  0.
         23    2    1    2    0    0 -0.76864970291E+02 -0.12170538528E+03  0.89156493304E+03  0.90781211450E+03  0.92273403261E+02 0.  0.
          5    1    3    3  502    0  0.98387263528E+02  0.71864553656E+02  0.65294297583E+02  0.13829456025E+03  0.41800000000E+01 0. -1.
         -5    1    3    3    0  502 -0.21522293237E+02  0.49840831621E+02  0.10094593800E+03  0.11469469212E+03  0.41800000000E+01 0. -1.
        -11    1    4    4    0    0 -0.77488219858E+02 -0.36991793240E+02  0.47983553792E+03  0.48745764989E+03  0.00000000000E+00 0. -1.
         11    1    4    4    0    0  0.62324956652E+00 -0.84713592037E+02  0.41172939512E+03  0.42035446461E+03  0.00000000000E+00 0.  1.
</event>
<event>
 8    1  0.6906553E-009  0.1880396E+03  0.7561462E-02  0.1160241E+00
          2   -1    0    0  501    0  0.00000000000E+00  0.00000000000E+00  0.10154939698E+03  0.10154939698E+03  0.00000000000E+00 0. -1.
         -2   -1    0    0    0  501 -0.00000000000E+00 -0.00000000000E+00 -0.43706032404E+03  0.43706032404E+03  0.00000000000E+00 0.  1.
         25    2    1    2    0    0 -0.15008017078E+03 -0.75723209623E+02 -0.26065801900E+03  0.33443911837E+03  0.12509539917E+03 0.  0.
         23    2    1    2    0    0  0.15008017078E+03  0.75723209623E+02 -0.74852908066E+02  0.20417060265E+03  0.88456853917E+02 0.  0.
          5    1    3    3  502    0 -0.15957825604E+03 -0.75095103020E+02 -0.26860221715E+03  0.32135512717E+03  0.41800000000E+01 0. -1.
         -5    1    3    3    0  502  0.94980852572E+01 -0.62810660231E+00  0.79441981569E+01  0.13083991204E+02  0.41800000000E+01 0. -1.
        -11    1    4    4    0    0  0.28407067277E+01  0.36883647974E+02 -0.79073653829E+01  0.37828554425E+02  0.00000000000E+00 0.  1.
         11    1    4    4    0    0  0.14723946405E+03  0.38839561648E+02 -0.66945542683E+02  0.16634204823E+03  0.00000000000E+00 0. -1.
</event>
<event>
 8    1  0.6906553E-009  0.1116635E+03  0.7561462E-02  0.1257520E+00
          1   -1    0    0  501    0  0.00000000000E+00  0.00000000000E+00  0.42770398278E+03  0.42770398278E+03  0.00000000000E+00 0.  1.
         -1   -1    0    0    0  501 -0.00000000000E+00 -0.00000000000E+00 -0.29425256091E+02  0.29425256091E+02  0.00000000000E+00 0. -1.
         25    2    1    2    0    0 -0.23787034266E+02  0.67587268819E+01  0.24390780483E+03  0.27522734598E+03  0.12509025274E+03 0.  0.
         23    2    1    2    0    0  0.23787034266E+02 -0.67587268819E+01  0.15437092186E+03  0.18190189289E+03  0.92986094295E+02 0.  0.
          5    1    3    3  502    0  0.50677433364E+02 -0.68181301017E+01  0.10926881896E+03  0.12071386146E+03  0.41800000000E+01 0. -1.
         -5    1    3    3    0  502 -0.74464467629E+02  0.13576856984E+02  0.13463898587E+03  0.15451348453E+03  0.41800000000E+01 0. -1.
        -11    1    4    4    0    0  0.57011414782E+02  0.11711393345E+02  0.94079772603E+02  0.11062758138E+03  0.00000000000E+00 0.  1.
         11    1    4    4    0    0 -0.33224380516E+02 -0.18470120226E+02  0.60291149254E+02  0.71274311503E+02  0.00000000000E+00 0. -1.
</event>
<event>
 8    1  0.6906553E-009  0.1507580E+03  0.7561462E-02  0.1199545E+00
          1   -1    0    0  501    0  0.00000000000E+00  0.00000000000E+00  0.53057971368E+03  0.53057971368E+03  0.00000000000E+00 0. -1.
         -1   -1    0    0    0  501 -0.00000000000E+00 -0.00000000000E+00 -0.45350054332E+02  0.45350054332E+02  0.00000000000E+00 0.  1.
         25    2    1    2    0    0  0.62997841021E+02 -0.88101378806E+02  0.22458915138E+03  0.27896381915E+03  0.12509973842E+03 0.  0.
         23    2    1    2    0    0 -0.62997841021E+02  0.88101378806E+02  0.26064050796E+03  0.29696594886E+03  0.92329407410E+02 0.  0.
          5    1    3    3  502    0 -0.34296663509E+02 -0.36632589535E+02  0.10455930770E+03  0.11605312994E+03  0.41800000000E+01 0. -1.
         -5    1    3    3    0  502  0.97294504530E+02 -0.51468789272E+02  0.12002984369E+03  0.16291068920E+03  0.41800000000E+01 0. -1.
        -11    1    4    4    0    0 -0.85642182661E+02  0.58381835040E+02  0.20823939194E+03  0.23260839724E+03  0.00000000000E+00 0.  1.
         11    1    4    4    0    0  0.22644341639E+02  0.29719543766E+02  0.52401116028E+02  0.64357551623E+02  0.00000000000E+00 0. -1.
</event>
<event>
 8    1  0.6906553E-009  0.1057666E+03  0.7561462E-02  0.1268617E+00
         -4   -1    0    0    0  501 -0.00000000000E+00  0.00000000000E+00  0.42940303467E+03  0.42940303467E+03  0.00000000000E+00 0.  1.
          4   -1    0    0  501    0  0.00000000000E+00 -0.00000000000E+00 -0.43798903751E+02  0.43798903751E+02  0.00000000000E+00 0. -1.
         25    2    1    2    0    0 -0.49821950976E+02  0.17005026873E+02  0.10017925812E+03  0.16868077197E+03  0.12508365736E+03 0.  0.
         23    2    1    2    0    0  0.49821950976E+02 -0.17005026873E+02  0.28542487280E+03  0.30452116645E+03  0.92164988276E+02 0.  0.
          5    1    3    3  502    0  0.22185984320E+02  0.40488707874E+02  0.44935492410E+01  0.46574861786E+02  0.41800000000E+01 0.  1.
         -5    1    3    3    0  502 -0.72007935296E+02 -0.23483681002E+02  0.95685708879E+02  0.12210591019E+03  0.41800000000E+01 0.  1.
        -11    1    4    4    0    0  0.17541143405E+02 -0.43918155457E+02  0.23082070093E+03  0.23561555990E+03  0.00000000000E+00 0.  1.
         11    1    4    4    0    0  0.32280807571E+02  0.26913128585E+02  0.54604171868E+02  0.68905606543E+02  0.00000000000E+00 0. -1.
</event>
<event>
 8    1  0.6906553E-009  0.1454703E+03  0.7561462E-02  0.1206152E+00
          1   -1    0    0  501    0  0.00000000000E+00  0.00000000000E+00  0.38212878744E+03  0.38212878744E+03  0.00000000000E+00 0. -1.
         -1   -1    0    0    0  501 -0.00000000000E+00 -0.00000000000E+00 -0.83975520969E+02  0.83975520969E+02  0.00000000000E+00 0.  1.
         25    2    1    2    0    0  0.11475174376E+03  0.38207969069E+02  0.25554946593E+03  0.30916736643E+03  0.12510443369E+03 0.  0.
         23    2    1    2    0    0 -0.11475174376E+03 -0.38207969069E+02  0.42603800536E+02  0.15693694198E+03  0.90478220252E+02 0.  0.
          5    1    3    3  502    0  0.12893166162E+03  0.21617590549E+02  0.25540092688E+03  0.28694563847E+03  0.41800000000E+01 0.  1.
         -5    1    3    3    0  502 -0.14179917852E+02  0.16590378520E+02  0.14853905912E+00  0.22221727961E+02  0.41800000000E+01 0.  1.
        -11    1    4    4    0    0 -0.58474546107E+02  0.15112278767E+02 -0.12688141395E+02  0.61714199695E+02  0.00000000000E+00 0. -1.
         11    1    4    4    0    0 -0.56277197657E+02 -0.53320247836E+02  0.55291941931E+02  0.95222742283E+02  0.00000000000E+00 0.  1.
</event>
<event>
 8    1  0.6906553E-009  0.2542384E+03  0.7561462E-02  0.1110655E+00
          2   -1    0    0  501    0  0.00000000000E+00  0.00000000000E+00  0.16875916246E+04  0.16875916246E+04  0.00000000000E+00 0. -1.
         -2   -1    0    0    0  501 -0.00000000000E+00 -0.00000000000E+00 -0.41136278262E+02  0.41136278262E+02  0.00000000000E+00 0.  1.
         25    2    1    2    0    0 -0.82046190848E+02 -0.22087411192E+03  0.99817399129E+03  0.10332082678E+04  0.12510418499E+03 0.  0.
         23    2    1    2    0    0  0.82046190848E+02  0.22087411192E+03  0.64828135508E+03  0.69551963505E+03  0.89229460672E+02 0.  0.
          5    1    3    3  502    0 -0.10777743764E+03 -0.13254239642E+03  0.56145767213E+03  0.58688640545E+03  0.41800000000E+01 0.  1.
         -5    1    3    3    0  502  0.25731246794E+02 -0.88331715498E+02  0.43671631917E+03  0.44632186239E+03  0.41800000000E+01 0.  1.
        -11    1    4    4    0    0 -0.13284960223E+01  0.91962847943E+02  0.17114253706E+03  0.19429024241E+03  0.00000000000E+00 0.  1.
         11    1    4    4    0    0  0.83374686870E+02  0.12891126397E+03  0.47713881801E+03  0.50122939264E+03  0.00000000000E+00 0. -1.
</event>
<event>
 8    1  0.6906553E-009  0.1666296E+03  0.7561462E-02  0.1181409E+00
         -4   -1    0    0    0  501 -0.00000000000E+00  0.00000000000E+00  0.10177892290E+03  0.10177892290E+03  0.00000000000E+00 0.  1.
          4   -1    0    0  501    0  0.00000000000E+00 -0.00000000000E+00 -0.33096332377E+03  0.33096332377E+03  0.00000000000E+00 0. -1.
         25    2    1    2    0    0 -0.12119625607E+03  0.83015885802E+02 -0.11683547577E+03  0.22556356769E+03  0.12509286507E+03 0.  0.
         23    2    1    2    0    0  0.12119625607E+03 -0.83015885802E+02 -0.11234892510E+03  0.20717867898E+03  0.93383907990E+02 0.  0.
          5    1    3    3  502    0 -0.10290953619E+03  0.11101353587E+03 -0.11778917100E+03  0.19184926112E+03  0.41800000000E+01 0.  1.
         -5    1    3    3    0  502 -0.18286719876E+02 -0.27997650069E+02  0.95369523282E+00  0.33714306575E+02  0.41800000000E+01 0.  1.
        -11    1    4    4    0    0  0.81135078203E+02 -0.44428403843E+02 -0.11947695627E+03  0.15110104917E+03  0.00000000000E+00 0. -1.
         11    1    4    4    0    0  0.40061177868E+02 -0.38587481959E+02  0.71280311677E+01  0.56077629804E+02  0.00000000000E+00 0.  1.
</event>
<event>
 8    1  0.6906553E-009  0.1125050E+03  0.7561462E-02  0.1256000E+00
          4   -1    0    0  501    0  0.00000000000E+00  0.00000000000E+00  0.67885022599E+02  0.67885022599E+02  0.00000000000E+00 0. -1.
         -4   -1    0    0    0  501 -0.00000000000E+00 -0.00000000000E+00 -0.26465643514E+03  0.26465643514E+03  0.00000000000E+00 0.  1.
         25    2    1    2    0    0  0.17824857943E+02  0.73767787310E+02 -0.13415648314E+03  0.19850350201E+03  0.12508503641E+03 0.  0.
         23    2    1    2    0    0 -0.17824857943E+02 -0.73767787310E+02 -0.62614929396E+02  0.13403795573E+03  0.91028194465E+02 0.  0.
          5    1    3    3  502    0 -0.43628332464E+02  0.16397118241E+02 -0.89664444380E+01  0.47646263296E+02  0.41800000000E+01 0.  1.
         -5    1    3    3    0  502  0.61453190407E+02  0.57370669069E+02 -0.12519003870E+03  0.15085723871E+03  0.41800000000E+01 0.  1.
        -11    1    4    4    0    0  0.13693829745E+02  0.13786699332E+00 -0.51060953573E+02  0.52865498770E+02  0.00000000000E+00 0.  1.
         11    1    4    4    0    0 -0.31518687688E+02 -0.73905654303E+02 -0.11553975823E+02  0.81172456960E+02  0.00000000000E+00 0. -1.
</event>
<event>
 8    1  0.6906553E-009  0.1072440E+03  0.7561462E-02  0.1265760E+00
         -1   -1    0    0    0  501 -0.00000000000E+00  0.00000000000E+00  0.27611361871E+03  0.27611361871E+03  0.00000000000E+00 0.  1.
          1   -1    0    0  501    0  0.00000000000E+00 -0.00000000000E+00 -0.75021635509E+02  0.75021635509E+02  0.00000000000E+00 0. -1.
         25    2    1    2    0    0  0.27914949770E+02  0.36939687851E+02  0.10113710526E+02  0.13376776485E+03  0.12509093817E+03 0.  0.
         23    2    1    2    0    0 -0.27914949770E+02 -0.36939687851E+02  0.19097827268E+03  0.21736748937E+03  0.92909309771E+02 0.  0.
          5    1    3    3  502    0 -0.19402716483E+02 -0.25478217205E+02 -0.31380361679E+02  0.45031149863E+02  0.41800000000E+01 0.  1.
         -5    1    3    3    0  502  0.47317666253E+02  0.62417905056E+02  0.41494072206E+02  0.88736614987E+02  0.41800000000E+01 0.  1.
        -11    1    4    4    0    0  0.28717546244E+02 -0.37357579792E+02  0.90206337657E+02  0.10177165413E+03  0.00000000000E+00 0.  1.
         11    1    4    4    0    0 -0.56632496014E+02  0.41789194082E+00  0.10077193502E+03  0.11559583525E+03  0.00000000000E+00 0. -1.
</event>
<event>
 8    1  0.6906553E-009  0.7556666E+02  0.7561462E-02  0.1342125E+00
         -2   -1    0    0    0  501 -0.00000000000E+00  0.00000000000E+00  0.13453905909E+02  0.13453905909E+02  0.00000000000E+00 0.  1.
          2   -1    0    0  501    0  0.00000000000E+00 -0.00000000000E+00 -0.11866307418E+04  0.11866307418E+04  0.00000000000E+00 0. -1.
         25    2    1    2    0    0  0.16532885824E+02  0.43660273673E+02 -0.87031384592E+03  0.88049525098E+03  0.12508453461E+03 0.  0.
         23    2    1    2    0    0 -0.16532885824E+02 -0.43660273673E+02 -0.30286298994E+03  0.31958939670E+03  0.90729465951E+02 0.  0.
          5    1    3    3  502    0 -0.26477526214E+01 -0.36208556050E+00  0.30358752579E+01  0.58164111339E+01  0.41800000000E+01 0. -1.
         -5    1    3    3    0  502  0.19180638446E+02  0.44022359233E+02 -0.87334972118E+03  0.87467883985E+03  0.41800000000E+01 0. -1.
        -11    1    4    4    0    0 -0.51858323486E+02 -0.31156133007E+02 -0.22774424403E+03  0.23564259171E+03  0.00000000000E+00 0. -1.
         11    1    4    4    0    0  0.35325437662E+02 -0.12504140666E+02 -0.75118745915E+02  0.83946804988E+02  0.00000000000E+00 0.  1.
</event>
<event>
 8    1  0.6906553E-009  0.1281491E+03  0.7561462E-02  0.1230228E+00
         -2   -1    0    0    0  501 -0.00000000000E+00  0.00000000000E+00  0.15061875713E+02  0.15061875713E+02  0.00000000000E+00 0.  1.
          2   -1    0    0  501    0  0.00000000000E+00 -0.00000000000E+00 -0.12291223850E+04  0.12291223850E+04  0.00000000000E+00 0. -1.
         25    2    1    2    0    0  0.76743056808E+02  0.25041812741E+02 -0.83058766760E+03  0.84382438972E+03  0.12508852051E+03 0.  0.
         23    2    1    2    0    0 -0.76743056808E+02 -0.25041812741E+02 -0.38347284167E+03  0.40035987098E+03  0.81975708815E+02 0.  0.
          5    1    3    3  502    0  0.21083176387E+02 -0.46249219386E+02 -0.18433567015E+03  0.19126056130E+03  0.41800000000E+01 0. -1.
         -5    1    3    3    0  502  0.55659880421E+02  0.71291032128E+02 -0.64625199745E+03  0.65256382842E+03  0.41800000000E+01 0. -1.
        -11    1    4    4    0    0 -0.84781630035E+02 -0.43013338117E+02 -0.32785030676E+03  0.34135596624E+03  0.00000000000E+00 0.  1.
         11    1    4    4    0    0  0.80385732270E+01  0.17971525376E+02 -0.55622534916E+02  0.59003904739E+02  0.00000000000E+00 0. -1.
</event>
<event>
 8    1  0.6906553E-009  0.1061957E+03  0.7561462E-02  0.1267781E+00
         -2   -1    0    0    0  501 -0.00000000000E+00  0.00000000000E+00  0.33517089913E+03  0.33517089913E+03  0.00000000000E+00 0.  1.
          2   -1    0    0  501    0  0.00000000000E+00 -0.00000000000E+00 -0.38869157373E+02  0.38869157373E+02  0.00000000000E+00 0. -1.
         25    2    1    2    0    0 -0.24821389355E+02 -0.20936004788E+02  0.23328098504E+03  0.26668619175E+03  0.12508832570E+03 0.  0.
         23    2    1    2    0    0  0.24821389355E+02  0.20936004788E+02  0.63020756719E+02  0.10735386475E+03  0.80615251861E+02 0.  0.
          5    1    3    3  502    0 -0.75893015219E+02 -0.15888369160E+02  0.14518779738E+03  0.16464859229E+03  0.41800000000E+01 0.  1.
         -5    1    3    3    0  502  0.51071625864E+02 -0.50476356283E+01  0.88093187656E+02  0.10203759947E+03  0.41800000000E+01 0.  1.
        -11    1    4    4    0    0  0.29175344373E+02  0.47819164245E+02  0.26965202636E+02  0.62169086703E+02  0.00000000000E+00 0.  1.
         11    1    4    4    0    0 -0.43539550175E+01 -0.26883159456E+02  0.36055554083E+02  0.45184778044E+02  0.00000000000E+00 0. -1.
</event>
<event>
 8    1  0.6906553E-009  0.1032183E+03  0.7561462E-02  0.1273670E+00
         -1   -1    0    0    0  501 -0.00000000000E+00  0.00000000000E+00  0.61568087418E+02  0.61568087418E+02  0.00000000000E+00 0.  1.
          1   -1    0    0  501    0  0.00000000000E+00 -0.00000000000E+00 -0.23207702626E+03  0.23207702626E+03  0.00000000000E+00 0. -1.
         25    2    1    2    0    0  0.13487823165E+02 -0.37704274748E+02 -0.56741889553E+02  0.14306622002E+03  0.12507904530E+03 0.  0.
         23    2    1    2    0    0 -0.13487823165E+02  0.37704274748E+02 -0.11376704929E+03  0.15057889366E+03  0.90152803633E+02 0.  0.
          5    1    3    3  502    0  0.53842994930E+02 -0.44618778423E+02 -0.70776885175E+02  0.99582846746E+02  0.41800000000E+01 0.  1.
         -5    1    3    3    0  502 -0.40355171765E+02  0.69145036747E+01  0.14034995622E+02  0.43483373275E+02  0.41800000000E+01 0.  1.
        -11    1    4    4    0    0  0.33106178519E+02  0.35558780885E+02 -0.77608392136E+02  0.91561501102E+02  0.00000000000E+00 0. -1.
         11    1    4    4    0    0 -0.46594001684E+02  0.21454938629E+01 -0.36158657156E+02  0.59017392556E+02  0.00000000000E+00 0.  1.
</event>
<event>
 8    1  0.6906553E-009  0.2705980E+03  0.7561462E-02  0.1100938E+00
          1   -1    0    0  501    0  0.00000000000E+00  0.00000000000E+00  0.10105527559E+04  0.10105527559E+04  0.00000000000E+00 0. -1.
         -1   -1    0    0    0  501 -0.00000000000E+00 -0.00000000000E+00 -0.77143525036E+02  0.77143525036E+02  0.00000000000E+00 0.  1.
         25    2    1    2    0    0  0.24565489124E+03 -0.65010199622E+02  0.39765124716E+03  0.48820740256E+03  0.12508917578E+03 0.  0.
         23    2    1    2    0    0 -0.24565489124E+03  0.65010199622E+02  0.53575798374E+03  0.59948887842E+03  0.88190966455E+02 0.  0.
          5    1    3    3  502    0  0.16282752158E+03 -0.91584345797E+02  0.32457796352E+03  0.37452479355E+03  0.41800000000E+01 0. -1.
         -5    1    3    3    0  502  0.82827369655E+02  0.26574146176E+02  0.73073283646E+02  0.11368260901E+03  0.41800000000E+01 0. -1.
        -11    1    4    4    0    0 -0.17630207118E+03  0.84071831127E+02  0.35978547660E+03  0.40938500493E+03  0.00000000000E+00 0.  1.
         11    1    4    4    0    0 -0.69352820051E+02 -0.19061631505E+02  0.17597250714E+03  0.19010387349E+03  0.00000000000E+00 0. -1.
</event>
<event>
 8    1  0.6906553E-009  0.1076202E+03  0.7561462E-02  0.1265041E+00
          4   -1    0    0  501    0  0.00000000000E+00  0.00000000000E+00  0.48194103470E+02  0.48194103470E+02  0.00000000000E+00 0. -1.
         -4   -1    0    0    0  501 -0.00000000000E+00 -0.00000000000E+00 -0.47528541717E+03  0.47528541717E+03  0.00000000000E+00 0.  1.
         25    2    1    2    0    0 -0.57249135600E+02 -0.70689753583E+02 -0.14451237075E+03  0.21167158164E+03  0.12508608390E+03 0.  0.
         23    2    1    2    0    0  0.57249135600E+02  0.70689753583E+02 -0.28257894295E+03  0.31180793900E+03  0.95387771936E+02 0.  0.
          5    1    3    3  502    0  0.23797686273E-01 -0.16613089011E+02 -0.13042370554E+03  0.13154394954E+03  0.41800000000E+01 0.  1.
         -5    1    3    3    0  502 -0.57272933286E+02 -0.54076664572E+02 -0.14088665203E+02  0.80127632098E+02  0.41800000000E+01 0.  1.
        -11    1    4    4    0    0 -0.13079053371E+02  0.40744379315E+02 -0.44402681086E+02  0.61666556337E+02  0.00000000000E+00 0. -1.
         11    1    4    4    0    0  0.70328188971E+02  0.29945374268E+02 -0.23817626187E+03  0.25014138266E+03  0.00000000000E+00 0.  1.
</event>
<event>
 8    1  0.6906553E-009  0.9069538E+02  0.7561462E-02  0.1301176E+00
         -1   -1    0    0    0  501 -0.00000000000E+00  0.00000000000E+00  0.20433361347E+03  0.20433361347E+03  0.00000000000E+00 0.  1.
          1   -1    0    0  501    0  0.00000000000E+00 -0.00000000000E+00 -0.80108105691E+02  0.80108105691E+02  0.00000000000E+00 0. -1.
         25    2    1    2    0    0  0.46599845822E+02 -0.49418140345E+02  0.67212116210E+02  0.15741429171E+03  0.12509233567E+03 0.  0.
         23    2    1    2    0    0 -0.46599845822E+02  0.49418140345E+02  0.57013391566E+02  0.12702742745E+03  0.90949119187E+02 0.  0.
          5    1    3    3  502    0  0.30921745635E+02 -0.29342888674E+02  0.10399934961E+03  0.11247442637E+03  0.41800000000E+01 0.  1.
         -5    1    3    3    0  502  0.15678100187E+02 -0.20075251670E+02 -0.36787233399E+02  0.44939865334E+02  0.41800000000E+01 0.  1.
        -11    1    4    4    0    0  0.23783064540E+02 -0.43465027333E+01  0.63693711513E+01  0.25001902604E+02  0.00000000000E+00 0.  1.
         11    1    4    4    0    0 -0.70382910363E+02  0.53764643078E+02  0.50644020414E+02  0.10202552485E+03  0.00000000000E+00 0. -1.
</event>
<event>
 8    1  0.6906553E-009  0.1520309E+03  0.7561462E-02  0.1197999E+00
         -2   -1    0    0    0  501 -0.00000000000E+00  0.00000000000E+00  0.19832677340E+03  0.19832677340E+03  0.00000000000E+00 0.  1.
          2   -1    0    0  501    0  0.00000000000E+00 -0.00000000000E+00 -0.15658329969E+03  0.15658329969E+03  0.00000000000E+00 0. -1.
         25    2    1    2    0    0 -0.70207584691E+02  0.10584849076E+03 -0.34459305374E+02  0.18156637523E+03  0.12508355984E+03 0.  0.
         23    2    1    2    0    0  0.70207584691E+02 -0.10584849076E+03  0.76202779084E+02  0.17334369786E+03  0.90045355810E+02 0.  0.
          5    1    3    3  502    0 -0.62421423218E+02 -0.76978893958E+01 -0.16886836682E+01  0.63055655022E+02  0.41800000000E+01 0.  1.
         -5    1    3    3    0  502 -0.77861614732E+01  0.11354638016E+03 -0.32770621705E+02  0.11851072021E+03  0.41800000000E+01 0.  1.
        -11    1    4    4    0    0  0.50916970652E+02 -0.72102459904E+02  0.95416993517E+02  0.12998348078E+03  0.00000000000E+00 0.  1.
         11    1    4    4    0    0  0.19290614040E+02 -0.33746030857E+02 -0.19214214434E+02  0.43360217077E+02  0.00000000000E+00 0. -1.
</event>
<event>
 8    1  0.6906553E-009  0.1006147E+03  0.7561462E-02  0.1279009E+00
         -2   -1    0    0    0  501 -0.00000000000E+00  0.00000000000E+00  0.25670121783E+02  0.25670121783E+02  0.00000000000E+00 0. -1.
          2   -1    0    0  501    0  0.00000000000E+00 -0.00000000000E+00 -0.95463379986E+03  0.95463379986E+03  0.00000000000E+00 0.  1.
         25    2    1    2    0    0 -0.42901447202E+02  0.40766475155E+02 -0.80118282123E+03  0.81304594810E+03  0.12508941207E+03 0.  0.
         23    2    1    2    0    0  0.42901447202E+02 -0.40766475155E+02 -0.12778085685E+03  0.16725797355E+03  0.90248782097E+02 0.  0.
          5    1    3    3  502    0 -0.70120634677E+02  0.55189583244E+02 -0.36561842543E+03  0.37637361613E+03  0.41800000000E+01 0. -1.
         -5    1    3    3    0  502  0.27219187475E+02 -0.14423108090E+02 -0.43556439581E+03  0.43667233197E+03  0.41800000000E+01 0. -1.
        -11    1    4    4    0    0  0.42447928870E+02 -0.24791420525E+01 -0.12115384592E+03  0.12839870401E+03  0.00000000000E+00 0.  1.
         11    1    4    4    0    0  0.45351833167E+00 -0.38287333102E+02 -0.66270109257E+01  0.38859269535E+02  0.00000000000E+00 0. -1.
</event>
<event>
 8    1  0.6906553E-009  0.6268038E+02  0.7561462E-02  0.1386916E+00
         -1   -1    0    0    0  501 -0.00000000000E+00  0.00000000000E+00  0.18364050407E+03  0.18364050407E+03  0.00000000000E+00 0.  1.
          1   -1    0    0  501    0  0.00000000000E+00 -0.00000000000E+00 -0.81600026941E+02  0.81600026941E+02  0.00000000000E+00 0. -1.
         25    2    1    2    0    0  0.28236593081E+02 -0.38285305772E+02  0.90026832394E+02  0.16129642482E+03  0.12509450940E+03 0.  0.
         23    2    1    2    0    0 -0.28236593081E+02  0.38285305772E+02  0.12013644735E+02  0.10394410619E+03  0.91635035470E+02 0.  0.
          5    1    3    3  502    0  0.30221157123E+02 -0.22457532153E+02  0.12068153523E+03  0.12648780350E+03  0.41800000000E+01 0. -1.
         -5    1    3    3    0  502 -0.19845640417E+01 -0.15827773618E+02 -0.30654702837E+02  0.34808621320E+02  0.41800000000E+01 0. -1.
        -11    1    4    4    0    0 -0.42633879484E+02  0.37144015653E+02  0.42149706977E+02  0.70526047506E+02  0.00000000000E+00 0.  1.
         11    1    4    4    0    0  0.14397286403E+02  0.11412901188E+01 -0.30136062242E+02  0.33418058686E+02  0.00000000000E+00 0. -1.
</event>
<event>
 8    1  0.6906553E-009  0.1104483E+03  0.7561462E-02  0.1259742E+00
          2   -1    0    0  501    0  0.00000000000E+00  0.00000000000E+00  0.51182487727E+03  0.51182487727E+03  0.00000000000E+00 0. -1.
         -2   -1    0    0    0  501 -0.00000000000E+00 -0.00000000000E+00 -0.30892019609E+02  0.30892019609E+02  0.00000000000E+00 0.  1.
         25    2    1    2    0    0 -0.21573287102E+02  0.46841980699E+02  0.18810635455E+03  0.23171393860E+03  0.12509105022E+03 0.  0.
         23    2    1    2    0    0  0.21573287102E+02 -0.46841980699E+02  0.29282650310E+03  0.31100295828E+03  0.91191563561E+02 0.  0.
          5    1    3    3  502    0  0.42551503742E+02  0.11311418063E+02  0.13226493001E+03  0.13946348181E+03  0.41800000000E+01 0. -1.
         -5    1    3    3    0  502 -0.64124790845E+02  0.35530562636E+02  0.55841424547E+02  0.92250456788E+02  0.41800000000E+01 0. -1.
        -11    1    4    4    0    0  0.17720521237E+02  0.25358577082E+02  0.11372208276E+03  0.11785493801E+03  0.00000000000E+00 0. -1.
         11    1    4    4    0    0  0.38527658657E+01 -0.72200557781E+02  0.17910442034E+03  0.19314802027E+03  0.00000000000E+00 0.  1.
</event>
<event>
 8    1  0.6906553E-009  0.1055520E+03  0.7561462E-02  0.1269036E+00
          2   -1    0    0  501    0  0.00000000000E+00  0.00000000000E+00  0.73569298874E+03  0.73569298874E+03  0.00000000000E+00 0. -1.
         -2   -1    0    0    0  501 -0.00000000000E+00 -0.00000000000E+00 -0.16002633247E+02  0.16002633247E+02  0.00000000000E+00 0.  1.
         25    2    1    2    0    0  0.49863770283E+01 -0.38678395841E+01  0.42865106367E+03  0.44657505564E+03  0.12509085414E+03 0.  0.
         23    2    1    2    0    0 -0.49863770283E+01  0.38678395841E+01  0.29103929182E+03  0.30512056635E+03  0.91404958772E+02 0.  0.
          5    1    3    3  502    0 -0.43615939133E+02 -0.40962432038E+02  0.26804233465E+03  0.27467150662E+03  0.41800000000E+01 0.  1.
         -5    1    3    3    0  502  0.48602316162E+02  0.37094592454E+02  0.16060872903E+03  0.17190354902E+03  0.41800000000E+01 0.  1.
        -11    1    4    4    0    0 -0.46097604760E+02 -0.85705685193E+01  0.12172358200E+03  0.13044184230E+03  0.00000000000E+00 0.  1.
         11    1    4    4    0    0  0.41111227732E+02  0.12438408103E+02  0.16931570982E+03  0.17467872405E+03  0.00000000000E+00 0. -1.
</event>
<event>
 8    1  0.6906553E-009  0.1574083E+03  0.7561462E-02  0.1191654E+00
          1   -1    0    0  501    0  0.00000000000E+00  0.00000000000E+00  0.26423506897E+03  0.26423506897E+03  0.00000000000E+00 0. -1.
         -1   -1    0    0    0  501 -0.00000000000E+00 -0.00000000000E+00 -0.11019762236E+03  0.11019762236E+03  0.00000000000E+00 0.  1.
         25    2    1    2    0    0  0.13068220701E+03 -0.84861863302E+01  0.85616610476E+02  0.20031852864E+03  0.12508978511E+03 0.  0.
         23    2    1    2    0    0 -0.13068220701E+03  0.84861863302E+01  0.68420836142E+02  0.17411416269E+03  0.92111216715E+02 0.  0.
          5    1    3    3  502    0 -0.19199761048E+02  0.20077827782E+02  0.18077357656E+02  0.33406784529E+02  0.41800000000E+01 0.  1.
         -5    1    3    3    0  502  0.14988196806E+03 -0.28564014113E+02  0.67539252820E+02  0.16691174411E+03  0.41800000000E+01 0.  1.
        -11    1    4    4    0    0 -0.92826307813E+02 -0.72099144657E+01 -0.14439624814E+01  0.93117083913E+02  0.00000000000E+00 0.  1.
         11    1    4    4    0    0 -0.37855899195E+02  0.15696100796E+02  0.69864798623E+02  0.80997078779E+02  0.00000000000E+00 0. -1.
</event>
<event>
 8    1  0.6906553E-009  0.1606975E+03  0.7561462E-02  0.1187912E+00
          1   -1    0    0  501    0  0.00000000000E+00  0.00000000000E+00  0.23242532578E+03  0.23242532578E+03  0.00000000000E+00 0. -1.
         -1   -1    0    0    0  501 -0.00000000000E+00 -0.00000000000E+00 -0.13027972677E+03  0.13027972677E+03  0.00000000000E+00 0.  1.
         25    2    1    2    0    0 -0.64845867792E+02  0.11867196107E+03  0.54954997171E+02  0.19223936441E+03  0.12509156887E+03 0.  0.
         23    2    1    2    0    0  0.64845867792E+02 -0.11867196107E+03  0.47190601836E+02  0.17046568813E+03  0.92431471994E+02 0.  0.
          5    1    3    3  502    0  0.30895120963E+02  0.69954565282E+02  0.26363540420E+02  0.80997891125E+02  0.41800000000E+01 0. -1.
         -5    1    3    3    0  502 -0.95740988755E+02  0.48717395786E+02  0.28591456751E+02  0.11124147329E+03  0.41800000000E+01 0. -1.
        -11    1    4    4    0    0  0.44345601230E+01 -0.28003035505E+02 -0.26600723697E+02  0.38877163248E+02  0.00000000000E+00 0.  1.
         11    1    4    4    0    0  0.60411307669E+02 -0.90668925562E+02  0.73791325533E+02  0.13158852488E+03  0.00000000000E+00 0. -1.
</event>
<event>
 8    1  0.6906553E-009  0.1084827E+03  0.7561462E-02  0.1263406E+00
          2   -1    0    0  501    0  0.00000000000E+00  0.00000000000E+00  0.40159620713E+02  0.40159620713E+02  0.00000000000E+00 0.  1.
         -2   -1    0    0    0  501 -0.00000000000E+00 -0.00000000000E+00 -0.40088595993E+03  0.40088595993E+03  0.00000000000E+00 0. -1.
         25    2    1    2    0    0  0.30148578627E+02 -0.57313394977E+02 -0.15882221757E+03  0.21228694006E+03  0.12508991202E+03 0.  0.
         23    2    1    2    0    0 -0.30148578627E+02  0.57313394977E+02 -0.20190412165E+03  0.22875864059E+03  0.85857319242E+02 0.  0.
          5    1    3    3  502    0 -0.11686852622E+02 -0.74475624526E+02 -0.40782130752E+02  0.85812911391E+02  0.41800000000E+01 0. -1.
         -5    1    3    3    0  502  0.41835431250E+02  0.17162229549E+02 -0.11804008682E+03  0.12647402867E+03  0.41800000000E+01 0. -1.
        -11    1    4    4    0    0 -0.28136744177E+02 -0.91270713654E+01 -0.11834360528E+03  0.12198437899E+03  0.00000000000E+00 0. -1.
         11    1    4    4    0    0 -0.20118344504E+01  0.66440466343E+02 -0.83560516365E+02  0.10677426160E+03  0.00000000000E+00 0.  1.
</event>
<event>
 8    1  0.6906553E-009  0.2030963E+03  0.7561462E-02  0.1147153E+00
          1   -1    0    0  501    0  0.00000000000E+00  0.00000000000E+00  0.83066756956E+03  0.83066756956E+03  0.00000000000E+00 0. -1.
         -1   -1    0    0    0  501 -0.00000000000E+00 -0.00000000000E+00 -0.56425531896E+02  0.56425531896E+02  0.00000000000E+00 0.  1.
         25    2    1    2    0    0 -0.87471810346E+02  0.16012466207E+03  0.48799674758E+03  0.53579712863E+03  0.12508601997E+03 0.  0.
         23    2    1    2    0    0  0.87471810346E+02 -0.16012466207E+03  0.28624529008E+03  0.35129597282E+03  0.90450369915E+02 0.  0.
          5    1    3    3  502    0  0.19407436032E+02  0.50449685549E+01  0.11682585931E+02  0.23580828973E+02  0.41800000000E+01 0. -1.
         -5    1    3    3    0  502 -0.10687924638E+03  0.15507969352E+03  0.47631416165E+03  0.51221629966E+03  0.41800000000E+01 0. -1.
        -11    1    4    4    0    0  0.15809084652E+02 -0.10687855701E+03  0.11263862256E+03  0.15607822525E+03  0.00000000000E+00 0.  1.
         11    1    4    4    0    0  0.71662725694E+02 -0.53246105069E+02  0.17360666753E+03  0.19521774758E+03  0.00000000000E+00 0. -1.
</event>
<event>
 8    1  0.6906553E-009  0.1438025E+03  0.7561462E-02  0.1208302E+00
          2   -1    0    0  501    0  0.00000000000E+00  0.00000000000E+00  0.13065174649E+03  0.13065174649E+03  0.00000000000E+00 0. -1.
         -2   -1    0    0    0  501 -0.00000000000E+00 -0.00000000000E+00 -0.21689743574E+03  0.21689743574E+03  0.00000000000E+00 0.  1.
         25    2    1    2    0    0  0.22054953397E+02 -0.12250269437E+03 -0.14681665691E+02  0.17707266521E+03  0.12508335764E+03 0.  0.
         23    2    1    2    0    0 -0.22054953397E+02  0.12250269437E+03 -0.71564023561E+02  0.17047651702E+03  0.91910294806E+02 0.  0.
          5    1    3    3  502    0 -0.41112453958E+02 -0.31978481440E+02  0.27233959695E+02  0.58923833093E+02  0.41800000000E+01 0. -1.
         -5    1    3    3    0  502  0.63167407355E+02 -0.90524212928E+02 -0.41915625386E+02  0.11814883211E+03  0.41800000000E+01 0. -1.
        -11    1    4    4    0    0 -0.12784575378E+02  0.43374211279E+02  0.19705556968E+02  0.49326225754E+02  0.00000000000E+00 0. -1.
         11    1    4    4    0    0 -0.92703780188E+01  0.79128483089E+02 -0.91269580529E+02  0.12115029127E+03  0.00000000000E+00 0.  1.
</event>
<event>
 8    1  0.6906553E-009  0.1274171E+03  0.7561462E-02  0.1231339E+00
          1   -1    0    0  501    0  0.00000000000E+00  0.00000000000E+00  0.22995729832E+04  0.22995729832E+04  0.00000000000E+00 0. -1.
         -1   -1    0    0    0  501 -0.00000000000E+00 -0.00000000000E+00 -0.15425062634E+02  0.15425062634E+02  0.00000000000E+00 0.  1.
         25    2    1    2    0    0  0.50212090714E+02  0.96802186689E+02  0.18754162367E+04  0.18827443882E+04  0.12509377585E+03 0.  0.
         23    2    1    2    0    0 -0.50212090714E+02 -0.96802186689E+02  0.40873168387E+03  0.43225365771E+03  0.88824083454E+02 0.  0.
          5    1    3    3  502    0  0.20875706173E+02 -0.34795149551E+01  0.51534482422E+02  0.55867498700E+02  0.41800000000E+01 0. -1.
         -5    1    3    3    0  502  0.29336384541E+02  0.10028170164E+03  0.18238817543E+04  0.18268768895E+04  0.41800000000E+01 0. -1.
        -11    1    4    4    0    0 -0.65356600822E+02 -0.59303209122E+02  0.34993218066E+03  0.36088902303E+03  0.00000000000E+00 0. -1.
         11    1    4    4    0    0  0.15144510108E+02 -0.37498977566E+02  0.58799503217E+02  0.71364634683E+02  0.00000000000E+00 0.  1.
</event>
<event>
 8    1  0.6906553E-009  0.1074936E+03  0.7561462E-02  0.1265283E+00
         -2   -1    0    0    0  501 -0.00000000000E+00  0.00000000000E+00  0.14348972474E+03  0.14348972474E+03  0.00000000000E+00 0.  1.
          2   -1    0    0  501    0  0.00000000000E+00 -0.00000000000E+00 -0.10241900355E+03  0.10241900355E+03  0.00000000000E+00 0. -1.
         25    2    1    2    0    0  0.30277122013E+02  0.35281985363E+02 -0.68850489634E+01  0.13362847421E+03  0.12509053766E+03 0.  0.
         23    2    1    2    0    0 -0.30277122013E+02 -0.35281985363E+02  0.47955770162E+02  0.11228025408E+03  0.90252850123E+02 0.  0.
          5    1    3    3  502    0 -0.42152651976E+02  0.18072681886E+02 -0.30706950972E+02  0.55352119536E+02  0.41800000000E+01 0.  1.
         -5    1    3    3    0  502  0.72429773989E+02  0.17209303477E+02  0.23821902009E+02  0.78276354677E+02  0.41800000000E+01 0.  1.
        -11    1    4    4    0    0 -0.54944326114E+01  0.26887475827E+02 -0.37612509350E+01  0.27699677881E+02  0.00000000000E+00 0. -1.
         11    1    4    4    0    0 -0.24782689401E+02 -0.62169461190E+02  0.51717021097E+02  0.84580576197E+02  0.00000000000E+00 0.  1.
</event>
<event>
 8    1  0.6906553E-009  0.1258043E+03  0.7561462E-02  0.1233818E+00
         -1   -1    0    0    0  501 -0.00000000000E+00  0.00000000000E+00  0.50944768708E+02  0.50944768708E+02  0.00000000000E+00 0.  1.
          1   -1    0    0  501    0  0.00000000000E+00 -0.00000000000E+00 -0.34689481186E+03  0.34689481186E+03  0.00000000000E+00 0. -1.
         25    2    1    2    0    0 -0.43736721201E+02  0.58534814659E+02 -0.12527788544E+03  0.19152499571E+03  0.12509216640E+03 0.  0.
         23    2    1    2    0    0  0.43736721201E+02 -0.58534814659E+02 -0.17067215771E+03  0.20631458485E+03  0.89986094464E+02 0.  0.
          5    1    3    3  502    0 -0.85082048928E+02  0.54246455698E+02 -0.73034552908E+02  0.12463206379E+03  0.41800000000E+01 0.  1.
         -5    1    3    3    0  502  0.41345327727E+02  0.42883589608E+01 -0.52243332528E+02  0.66892931922E+02  0.41800000000E+01 0.  1.
        -11    1    4    4    0    0  0.26547680592E+02 -0.78281845860E+02 -0.15536932134E+03  0.17598992229E+03  0.00000000000E+00 0.  1.
         11    1    4    4    0    0  0.17189040609E+02  0.19747031201E+02 -0.15302836375E+02  0.30324662561E+02  0.00000000000E+00 0. -1.
</event>
<event>
 8    1  0.6906553E-009  0.9842434E+02  0.7561462E-02  0.1283645E+00
         -2   -1    0    0    0  501 -0.00000000000E+00  0.00000000000E+00  0.10461615929E+03  0.10461615929E+03  0.00000000000E+00 0.  1.
          2   -1    0    0  501    0  0.00000000000E+00 -0.00000000000E+00 -0.32184777184E+03  0.32184777184E+03  0.00000000000E+00 0. -1.
         25    2    1    2    0    0 -0.84024593929E+01  0.23007954547E+02 -0.28189134101E+03  0.30937194658E+03  0.12509318888E+03 0.  0.
         23    2    1    2    0    0  0.84024593929E+01 -0.23007954547E+02  0.64659728454E+02  0.11709198454E+03  0.94497010871E+02 0.  0.
          5    1    3    3  502    0 -0.12961505359E+01 -0.50848073928E+02 -0.88025190884E+02  0.10175024943E+03  0.41800000000E+01 0.  1.
         -5    1    3    3    0  502 -0.71063088570E+01  0.73856028475E+02 -0.19386615012E+03  0.20762169716E+03  0.41800000000E+01 0.  1.
        -11    1    4    4    0    0  0.31687544908E+02  0.80369548241E+01 -0.89371781822E+01  0.33890504555E+02  0.00000000000E+00 0. -1.
         11    1    4    4    0    0 -0.23285085515E+02 -0.31044909371E+02  0.73596906636E+02  0.83201479985E+02  0.00000000000E+00 0.  1.
</event>
<event>
 8    1  0.6906553E-009  0.1513782E+03  0.7561462E-02  0.1198790E+00
          2   -1    0    0  501    0  0.00000000000E+00  0.00000000000E+00  0.18006085932E+03  0.18006085932E+03  0.00000000000E+00 0. -1.
         -2   -1    0    0    0  501 -0.00000000000E+00 -0.00000000000E+00 -0.24609300653E+03  0.24609300653E+03  0.00000000000E+00 0.  1.
         25    2    1    2    0    0 -0.27332053440E+02 -0.13133645537E+03  0.86957237763E+02  0.20299204338E+03  0.12509157774E+03 0.  0.
         23    2    1    2    0    0  0.27332053440E+02  0.13133645537E+03 -0.15298938496E+03  0.22316182247E+03  0.91646829958E+02 0.  0.
          5    1    3    3  502    0 -0.17545595515E+02 -0.13017205767E+03  0.17337929159E+02  0.13255447449E+03  0.41800000000E+01 0.  1.
         -5    1    3    3    0  502 -0.97864579248E+01 -0.11643976999E+01  0.69619308605E+02  0.70437568891E+02  0.41800000000E+01 0.  1.
        -11    1    4    4    0    0  0.58289319630E+02  0.10453630354E+03 -0.12776439090E+03  0.17506919524E+03  0.00000000000E+00 0.  1.
         11    1    4    4    0    0 -0.30957266189E+02  0.26800151828E+02 -0.25224994067E+02  0.48092627227E+02  0.00000000000E+00 0. -1.
</event>
<event>
 8    1  0.6906553E-009  0.9703215E+02  0.7561462E-02  0.1286664E+00
         -2   -1    0    0    0  501 -0.00000000000E+00  0.00000000000E+00  0.13788628289E+03  0.13788628289E+03  0.00000000000E+00 0. -1.
          2   -1    0    0  501    0  0.00000000000E+00 -0.00000000000E+00 -0.10428437167E+03  0.10428437167E+03  0.00000000000E+00 0.  1.
         25    2    1    2    0    0  0.25403510524E+01  0.37184290522E+02 -0.16760929912E+02  0.13159341793E+03  0.12508706578E+03 0.  0.
         23    2    1    2    0    0 -0.25403510524E+01 -0.37184290522E+02  0.50362841129E+02  0.11057723663E+03  0.91114129798E+02 0.  0.
          5    1    3    3  502    0 -0.40893842432E+02  0.82528644543E+00  0.35567748024E+02  0.54364736237E+02  0.41800000000E+01 0.  1.
         -5    1    3    3    0  502  0.43434193485E+02  0.36359004077E+02 -0.52328677936E+02  0.77228681690E+02  0.41800000000E+01 0.  1.
        -11    1    4    4    0    0  0.27263781648E+02 -0.55029668103E+02  0.20431110844E+02  0.64722549793E+02  0.00000000000E+00 0.  1.
         11    1    4    4    0    0 -0.29804132701E+02  0.17845377581E+02  0.29931730285E+02  0.45854686837E+02  0.00000000000E+00 0. -1.
</event>
<event>
 8    1  0.6906553E-009  0.9200653E+02  0.7561462E-02  0.1298064E+00
         -2   -1    0    0    0  501 -0.00000000000E+00  0.00000000000E+00  0.19603725730E+03  0.19603725730E+03  0.00000000000E+00 0.  1.
          2   -1    0    0  501    0  0.00000000000E+00 -0.00000000000E+00 -0.82445605223E+02  0.82445605223E+02  0.00000000000E+00 0. -1.
         25    2    1    2    0    0 -0.31706479997E+02  0.45469671976E+02  0.10253143894E+03  0.17097740187E+03  0.12509110295E+03 0.  0.
         23    2    1    2    0    0  0.31706479997E+02 -0.45469671976E+02  0.11060213146E+02  0.10750546065E+03  0.91445633094E+02 0.  0.
          5    1    3    3  502    0  0.29648397982E+02  0.14349256931E+02 -0.13643222800E+02  0.35896219936E+02  0.41800000000E+01 0. -1.
         -5    1    3    3    0  502 -0.61354877979E+02  0.31120415046E+02  0.11617466173E+03  0.13508118194E+03  0.41800000000E+01 0. -1.
        -11    1    4    4    0    0  0.25577342794E+00  0.14324437356E+02 -0.26559208067E+02  0.30176919306E+02  0.00000000000E+00 0. -1.
         11    1    4    4    0    0  0.31450706569E+02 -0.59794109332E+02  0.37619421213E+02  0.77328541347E+02  0.00000000000E+00 0.  1.
</event>
<event>
 8    1  0.6906553E-009  0.8467432E+02  0.7561462E-02  0.1316286E+00
          1   -1    0    0  501    0  0.00000000000E+00  0.00000000000E+00  0.75067630457E+02  0.75067630457E+02  0.00000000000E+00 0. -1.
         -1   -1    0    0    0  501 -0.00000000000E+00 -0.00000000000E+00 -0.24100745670E+03  0.24100745670E+03  0.00000000000E+00 0.  1.
         25    2    1    2    0    0 -0.24311639468E+02 -0.23929170234E+02 -0.81300078589E+01  0.12991410136E+03  0.12509162923E+03 0.  0.
         23    2    1    2    0    0  0.24311639468E+02  0.23929170234E+02 -0.15780981839E+03  0.18616098580E+03  0.92673150653E+02 0.  0.
          5    1    3    3  502    0 -0.25774783649E+02  0.15867814280E+02 -0.58241086488E+02  0.65769472839E+02  0.41800000000E+01 0.  1.
         -5    1    3    3    0  502  0.14631441812E+01 -0.39796984513E+02  0.50111078629E+02  0.64144628525E+02  0.41800000000E+01 0.  1.
        -11    1    4    4    0    0  0.28637575753E+02  0.57852828802E+02 -0.10277158242E+03  0.12136333342E+03  0.00000000000E+00 0.  1.
         11    1    4    4    0    0 -0.43259362848E+01 -0.33923658568E+02 -0.55038235970E+02  0.64797652381E+02  0.00000000000E+00 0. -1.
</event>
<event>
 8    1  0.6906553E-009  0.1577393E+03  0.7561462E-02  0.1191273E+00
         -1   -1    0    0    0  501 -0.00000000000E+00  0.00000000000E+00  0.99318494900E+02  0.99318494900E+02  0.00000000000E+00 0.  1.
          1   -1    0    0  501    0  0.00000000000E+00 -0.00000000000E+00 -0.34446204917E+03  0.34446204917E+03  0.00000000000E+00 0. -1.
         25    2    1    2    0    0 -0.98937143558E+02  0.11216642674E+03 -0.12616989409E+03  0.23224174393E+03  0.12509004671E+03 0.  0.
         23    2    1    2    0    0  0.98937143558E+02 -0.11216642674E+03 -0.11897366019E+03  0.21153880014E+03  0.90686638952E+02 0.  0.
          5    1    3    3  502    0 -0.14628111084E+02  0.65700420869E+02  0.70728849508E+01  0.67808738654E+02  0.41800000000E+01 0.  1.
         -5    1    3    3    0  502 -0.84309032474E+02  0.46466005874E+02 -0.13324277904E+03  0.16443300528E+03  0.41800000000E+01 0.  1.
        -11    1    4    4    0    0  0.79681128096E+02 -0.73117414742E+02 -0.29596988618E+02  0.11212145311E+03  0.00000000000E+00 0.  1.
         11    1    4    4    0    0  0.19256015462E+02 -0.39049012000E+02 -0.89376671567E+02  0.99417347028E+02  0.00000000000E+00 0. -1.
</event>
<event>
 8    1  0.6906553E-009  0.9316672E+02  0.7561462E-02  0.1295359E+00
          2   -1    0    0  501    0  0.00000000000E+00  0.00000000000E+00  0.73212277298E+03  0.73212277298E+03  0.00000000000E+00 0. -1.
         -2   -1    0    0    0  501 -0.00000000000E+00 -0.00000000000E+00 -0.18960191446E+02  0.18960191446E+02  0.00000000000E+00 0.  1.
         25    2    1    2    0    0  0.25358101628E+02  0.40856799918E+02  0.43979498697E+03  0.45976059281E+03  0.12509140946E+03 0.  0.
         23    2    1    2    0    0 -0.25358101628E+02 -0.40856799918E+02  0.27336759456E+03  0.29132237161E+03  0.88467909593E+02 0.  0.
          5    1    3    3  502    0 -0.11608357333E+02 -0.26950425960E+02  0.28030222105E+02  0.40795161118E+02  0.41800000000E+01 0. -1.
         -5    1    3    3    0  502  0.36966458962E+02  0.67807225878E+02  0.41176476487E+03  0.41896543170E+03  0.41800000000E+01 0. -1.
        -11    1    4    4    0    0 -0.14300971513E+02 -0.57565279710E+02  0.26126807262E+03  0.26791656348E+03  0.00000000000E+00 0. -1.
         11    1    4    4    0    0 -0.11057130115E+02  0.16708479791E+02  0.12099521943E+02  0.23405808138E+02  0.00000000000E+00 0.  1.
</event>
<event>
 8    1  0.6906553E-009  0.2006223E+03  0.7561462E-02  0.1149215E+00
          1   -1    0    0  501    0  0.00000000000E+00  0.00000000000E+00  0.29209630866E+03  0.29209630866E+03  0.00000000000E+00 0. -1.
         -1   -1    0    0    0  501 -0.00000000000E+00 -0.00000000000E+00 -0.17988594963E+03  0.17988594963E+03  0.00000000000E+00 0.  1.
         25    2    1    2    0    0  0.17802854806E+03  0.18263106500E+02 -0.37205460849E+02  0.22149509378E+03  0.12509246687E+03 0.  0.
         23    2    1    2    0    0 -0.17802854806E+03 -0.18263106500E+02  0.14941581987E+03  0.25048716450E+03  0.91602551101E+02 0.  0.
          5    1    3    3  502    0  0.18495844403E+03  0.28981143280E+02 -0.58615583726E+02  0.19622128259E+03  0.41800000000E+01 0. -1.
         -5    1    3    3    0  502 -0.69298959697E+01 -0.10718036780E+02  0.21410122877E+02  0.25273811192E+02  0.41800000000E+01 0. -1.
        -11    1    4    4    0    0 -0.10603916730E+03  0.34263339154E+02  0.91682290235E+02  0.14430496788E+03  0.00000000000E+00 0.  1.
         11    1    4    4    0    0 -0.71989380767E+02 -0.52526445654E+02  0.57733529639E+02  0.10618219663E+03  0.00000000000E+00 0. -1.
</event>
<event>
 8    1  0.6906553E-009  0.1416956E+03  0.7561462E-02  0.1211066E+00
         -2   -1    0    0    0  501 -0.00000000000E+00  0.00000000000E+00  0.26803752826E+02  0.26803752826E+02  0.00000000000E+00 0.  1.
          2   -1    0    0  501    0  0.00000000000E+00 -0.00000000000E+00 -0.11693435357E+04  0.11693435357E+04  0.00000000000E+00 0. -1.
         25    2    1    2    0    0  0.10874162085E+03  0.67465409975E+02 -0.79279286128E+03  0.81273873318E+03  0.12508959136E+03 0.  0.
         23    2    1    2    0    0 -0.10874162085E+03 -0.67465409975E+02 -0.34974692157E+03  0.38340855533E+03  0.91120192600E+02 0.  0.
          5    1    3    3  502    0  0.41935937453E+02  0.54359876663E+02 -0.13590838002E+03  0.15232261553E+03  0.41800000000E+01 0. -1.
         -5    1    3    3    0  502  0.66805683393E+02  0.13105533312E+02 -0.65688448126E+03  0.66041611766E+03  0.41800000000E+01 0. -1.
        -11    1    4    4    0    0 -0.47827975951E+02  0.89704709185E+01 -0.57917148317E+02  0.75646418958E+02  0.00000000000E+00 0.  1.
         11    1    4    4    0    0 -0.60913644895E+02 -0.76435880894E+02 -0.29182977326E+03  0.30776213637E+03  0.00000000000E+00 0. -1.
</event>
<event>
 8    1  0.6906553E-009  0.9482509E+02  0.7561462E-02  0.1291571E+00
         -2   -1    0    0    0  501 -0.00000000000E+00  0.00000000000E+00  0.94385891524E+02  0.94385891524E+02  0.00000000000E+00 0.  1.
          2   -1    0    0  501    0  0.00000000000E+00 -0.00000000000E+00 -0.40893136643E+03  0.40893136643E+03  0.00000000000E+00 0. -1.
         25    2    1    2    0    0  0.18225221452E+02 -0.48557195065E+02 -0.36398602207E+03  0.38835947845E+03  0.12508916961E+03 0.  0.
         23    2    1    2    0    0 -0.18225221452E+02  0.48557195065E+02  0.49440547163E+02  0.11495777950E+03  0.89894179313E+02 0.  0.
          5    1    3    3  502    0  0.32161554064E+02 -0.78278433112E+02 -0.15389898829E+03  0.17568224056E+03  0.41800000000E+01 0.  1.
         -5    1    3    3    0  502 -0.13936332612E+02  0.29721238047E+02 -0.21008703378E+03  0.21267723790E+03  0.41800000000E+01 0.  1.
        -11    1    4    4    0    0 -0.99313199324E+01  0.58238632908E+02 -0.47670036962E+01  0.59271357356E+02  0.00000000000E+00 0. -1.
         11    1    4    4    0    0 -0.82939015194E+01 -0.96814378434E+01  0.54207550859E+02  0.55686422144E+02  0.00000000000E+00 0.  1.
</event>
<event>
 8    1  0.6906553E-009  0.1052099E+03  0.7561462E-02  0.1269707E+00
          1   -1    0    0  501    0  0.00000000000E+00  0.00000000000E+00  0.20755868565E+03  0.20755868565E+03  0.00000000000E+00 0. -1.
         -1   -1    0    0    0  501 -0.00000000000E+00 -0.00000000000E+00 -0.83029271657E+02  0.83029271657E+02  0.00000000000E+00 0.  1.
         25    2    1    2    0    0 -0.56338376711E+02  0.41012975864E+02  0.42225600332E+02  0.14928851274E+03  0.12509189355E+03 0.  0.
         23    2    1    2    0    0  0.56338376711E+02 -0.41012975864E+02  0.82303813657E+02  0.14129944456E+03  0.91299169833E+02 0.  0.
          5    1    3    3  502    0  0.70068224638E+01  0.30761700511E+02 -0.35982851625E+02  0.48037649717E+02  0.41800000000E+01 0. -1.
         -5    1    3    3    0  502 -0.63345199175E+02  0.10251275353E+02  0.78208451957E+02  0.10125086302E+03  0.41800000000E+01 0. -1.
        -11    1    4    4    0    0  0.56522299632E+01 -0.59924033708E+02  0.36330350419E+02  0.70304565150E+02  0.00000000000E+00 0.  1.
         11    1    4    4    0    0  0.50686146748E+02  0.18911057845E+02  0.45973463238E+02  0.70994879414E+02  0.00000000000E+00 0. -1.
</event>
<event>
 8    1  0.6906553E-009  0.6001789E+02  0.7561462E-02  0.1397757E+00
          4   -1    0    0  501    0  0.00000000000E+00  0.00000000000E+00  0.67899874731E+02  0.67899874731E+02  0.00000000000E+00 0. -1.
         -4   -1    0    0    0  501 -0.00000000000E+00 -0.00000000000E+00 -0.19687440490E+03  0.19687440490E+03  0.00000000000E+00 0.  1.
         25    2    1    2    0    0  0.19407949313E+02  0.62088530646E+00 -0.11470324637E+03  0.17082609916E+03  0.12509063686E+03 0.  0.
         23    2    1    2    0    0 -0.19407949313E+02 -0.62088530646E+00 -0.14271283804E+02  0.93948180474E+02  0.90804939722E+02 0.  0.
          5    1    3    3  502    0  0.17046867361E+01  0.11306756835E+02 -0.13849443111E+03  0.13902851706E+03  0.41800000000E+01 0. -1.
         -5    1    3    3    0  502  0.17703262577E+02 -0.10685871528E+02  0.23791184740E+02  0.31797582102E+02  0.41800000000E+01 0. -1.
        -11    1    4    4    0    0 -0.43070922946E+02 -0.27385218014E+02  0.82713302845E+01  0.51705603891E+02  0.00000000000E+00 0. -1.
         11    1    4    4    0    0  0.23662973634E+02  0.26764332707E+02 -0.22542614088E+02  0.42242576583E+02  0.00000000000E+00 0.  1.
</event>
<event>
 8    1  0.6906553E-009  0.1158903E+03  0.7561462E-02  0.1250035E+00
          1   -1    0    0  501    0  0.00000000000E+00  0.00000000000E+00  0.18295579867E+03  0.18295579867E+03  0.00000000000E+00 0. -1.
         -1   -1    0    0    0  501 -0.00000000000E+00 -0.00000000000E+00 -0.95735990038E+02  0.95735990038E+02  0.00000000000E+00 0.  1.
         25    2    1    2    0    0 -0.49235404692E+01  0.73702120089E+02  0.65070044726E+02  0.15917909217E+03  0.12509048287E+03 0.  0.
         23    2    1    2    0    0  0.49235404692E+01 -0.73702120089E+02  0.22149763903E+02  0.11951269654E+03  0.91304046113E+02 0.  0.
          5    1    3    3  502    0  0.49365464427E+02 -0.54114851424E+00  0.40219167056E+02  0.63814541591E+02  0.41800000000E+01 0. -1.
         -5    1    3    3    0  502 -0.54289004896E+02  0.74243268604E+02  0.24850877671E+02  0.95364550576E+02  0.41800000000E+01 0. -1.
        -11    1    4    4    0    0 -0.19602024242E+02 -0.57556526862E+02 -0.23540462386E+02  0.65200816775E+02  0.00000000000E+00 0.  1.
         11    1    4    4    0    0  0.24525564711E+02 -0.16145593227E+02  0.45690226289E+02  0.54311879763E+02  0.00000000000E+00 0. -1.
</event>
<event>
 8    1  0.6906553E-009  0.1472915E+03  0.7561462E-02  0.1203841E+00
         -1   -1    0    0    0  501 -0.00000000000E+00  0.00000000000E+00  0.31455919323E+02  0.31455919323E+02  0.00000000000E+00 0.  1.
          1   -1    0    0  501    0  0.00000000000E+00 -0.00000000000E+00 -0.11816837654E+04  0.11816837654E+04  0.00000000000E+00 0. -1.
         25    2    1    2    0    0  0.13774606680E+02  0.13398382302E+03 -0.86732943295E+03  0.88659391323E+03  0.12508803741E+03 0.  0.
         23    2    1    2    0    0 -0.13774606680E+02 -0.13398382302E+03 -0.28289841310E+03  0.32654577147E+03  0.91974040388E+02 0.  0.
          5    1    3    3  502    0 -0.36172071776E+02  0.54557229122E+02 -0.15800529488E+03  0.17107909176E+03  0.41800000000E+01 0. -1.
         -5    1    3    3    0  502  0.49946678456E+02  0.79426593895E+02 -0.70932413807E+03  0.71551482148E+03  0.41800000000E+01 0. -1.
        -11    1    4    4    0    0 -0.11862187343E+02 -0.65773060772E+02 -0.48933485108E+02  0.82832922058E+02  0.00000000000E+00 0.  1.
         11    1    4    4    0    0 -0.19124193368E+01 -0.68210762245E+02 -0.23396492800E+03  0.24371284941E+03  0.00000000000E+00 0. -1.
</event>
<event>
 8    1  0.6906553E-009  0.1231195E+03  0.7561462E-02  0.1238038E+00
          2   -1    0    0  501    0  0.00000000000E+00  0.00000000000E+00  0.73640241913E+03  0.73640241913E+03  0.00000000000E+00 0. -1.
         -2   -1    0    0    0  501 -0.00000000000E+00 -0.00000000000E+00 -0.34799541929E+02  0.34799541929E+02  0.00000000000E+00 0.  1.
         25    2    1    2    0    0  0.84987254248E+02 -0.55392545095E+02  0.23109422006E+03  0.28167992473E+03  0.12509146260E+03 0.  0.
         23    2    1    2    0    0 -0.84987254248E+02  0.55392545095E+02  0.47050865714E+03  0.48952203632E+03  0.89231497622E+02 0.  0.
          5    1    3    3  502    0  0.82541759977E+02 -0.79634592709E+02  0.22986954419E+03  0.25692857031E+03  0.41800000000E+01 0.  1.
         -5    1    3    3    0  502  0.24454942708E+01  0.24242047614E+02  0.12246758718E+01  0.24751354422E+02  0.41800000000E+01 0.  1.
        -11    1    4    4    0    0 -0.65531195889E+02  0.57495125362E+02  0.45816434101E+03  0.46638459499E+03  0.00000000000E+00 0. -1.
         11    1    4    4    0    0 -0.19456058359E+02 -0.21025802673E+01  0.12344316131E+02  0.23137441332E+02  0.00000000000E+00 0.  1.
</event>
<event>
 8    1  0.6906553E-009  0.2026217E+03  0.7561462E-02  0.1147546E+00
          2   -1    0    0  501    0  0.00000000000E+00  0.00000000000E+00  0.35515450367E+03  0.35515450367E+03  0.00000000000E+00 0. -1.
         -2   -1    0    0    0  501 -0.00000000000E+00 -0.00000000000E+00 -0.13660231383E+03  0.13660231383E+03  0.00000000000E+00 0.  1.
         25    2    1    2    0    0  0.12995606395E+03 -0.13561047540E+03  0.15404257752E+03  0.27323160570E+03  0.12509042758E+03 0.  0.
         23    2    1    2    0    0 -0.12995606395E+03  0.13561047540E+03  0.64509612319E+02  0.21852521180E+03  0.91175646509E+02 0.  0.
          5    1    3    3  502    0  0.13108391450E+03 -0.11203702123E+03  0.17176328982E+03  0.24342429397E+03  0.41800000000E+01 0.  1.
         -5    1    3    3    0  502 -0.11278505473E+01 -0.23573454168E+02 -0.17720712300E+02  0.29807311732E+02  0.41800000000E+01 0.  1.
        -11    1    4    4    0    0 -0.54193833157E+02  0.86404107400E+00  0.16492220940E+02  0.56654315553E+02  0.00000000000E+00 0.  1.
         11    1    4    4    0    0 -0.75762230796E+02  0.13474643432E+03  0.48017391379E+02  0.16187089625E+03  0.00000000000E+00 0. -1.
</event>
<event>
 8    1  0.6906553E-009  0.1577587E+03  0.7561462E-02  0.1191251E+00
          4   -1    0    0  501    0  0.00000000000E+00  0.00000000000E+00  0.10714982878E+04  0.10714982878E+04  0.00000000000E+00 0. -1.
         -4   -1    0    0    0  501 -0.00000000000E+00 -0.00000000000E+00 -0.26892820730E+02  0.26892820730E+02  0.00000000000E+00 0.  1.
         25    2    1    2    0    0 -0.74805555013E+02  0.10149946332E+03  0.64140900729E+03  0.66554588800E+03  0.12509117592E+03 0.  0.
         23    2    1    2    0    0  0.74805555013E+02 -0.10149946332E+03  0.40319645978E+03  0.43284522052E+03  0.94284609754E+02 0.  0.
          5    1    3    3  502    0 -0.82748030606E+02  0.16010312578E+02  0.41218611026E+03  0.42073558035E+03  0.41800000000E+01 0.  1.
         -5    1    3    3    0  502  0.79424755938E+01  0.85489150743E+02  0.22922289703E+03  0.24481030766E+03  0.41800000000E+01 0.  1.
        -11    1    4    4    0    0  0.15442809588E+02 -0.80863553125E+02  0.14148068855E+03  0.16368927828E+03  0.00000000000E+00 0.  1.
         11    1    4    4    0    0  0.59362745425E+02 -0.20635910196E+02  0.26171577122E+03  0.26915594224E+03  0.00000000000E+00 0. -1.
</event>
<event>
 8    1  0.6906553E-009  0.1640839E+03  0.7561462E-02  0.1184162E+00
          1   -1    0    0  501    0  0.00000000000E+00  0.00000000000E+00  0.92655833942E+03  0.92655833942E+03  0.00000000000E+00 0. -1.
         -1   -1    0    0    0  501 -0.00000000000E+00 -0.00000000000E+00 -0.39946700452E+02  0.39946700452E+02  0.00000000000E+00 0.  1.
         25    2    1    2    0    0  0.78810403661E+02 -0.99771758773E+02  0.70627248445E+03  0.72844595863E+03  0.12508880354E+03 0.  0.
         23    2    1    2    0    0 -0.78810403661E+02  0.99771758773E+02  0.18033915452E+03  0.23805908125E+03  0.89355648608E+02 0.  0.
          5    1    3    3  502    0 -0.32282769135E+02 -0.80245477656E+01  0.10981843901E+03  0.11482217772E+03  0.41800000000E+01 0. -1.
         -5    1    3    3    0  502  0.11109317280E+03 -0.91747211007E+02  0.59645404544E+03  0.61362378091E+03  0.41800000000E+01 0. -1.
        -11    1    4    4    0    0 -0.53697584341E+02  0.67172910570E+01  0.94962728497E+02  0.10929991934E+03  0.00000000000E+00 0. -1.
         11    1    4    4    0    0 -0.25112819321E+02  0.93054467716E+02  0.85376426023E+02  0.12875916191E+03  0.00000000000E+00 0.  1.
</event>
<event>
 8    1  0.6906553E-009  0.1628865E+03  0.7561462E-02  0.1185476E+00
         -2   -1    0    0    0  501 -0.00000000000E+00  0.00000000000E+00  0.33853937144E+02  0.33853937144E+02  0.00000000000E+00 0.  1.
          2   -1    0    0  501    0  0.00000000000E+00 -0.00000000000E+00 -0.94556664353E+03  0.94556664353E+03  0.00000000000E+00 0. -1.
         25    2    1    2    0    0  0.10633483740E+03  0.71140100755E+02 -0.64949019144E+03  0.67368586044E+03  0.12508844149E+03 0.  0.
         23    2    1    2    0    0 -0.10633483740E+03 -0.71140100755E+02 -0.26222251494E+03  0.30573472023E+03  0.91351301220E+02 0.  0.
          5    1    3    3  502    0  0.91658413022E+02  0.10534329131E+03 -0.54731863474E+03  0.56486603193E+03  0.41800000000E+01 0. -1.
         -5    1    3    3    0  502  0.14676424373E+02 -0.34203190552E+02 -0.10217155670E+03  0.10881982850E+03  0.41800000000E+01 0. -1.
        -11    1    4    4    0    0  0.10005939342E+02 -0.18268591866E+02 -0.10262444486E+02  0.23220207530E+02  0.00000000000E+00 0.  1.
         11    1    4    4    0    0 -0.11634077674E+03 -0.52871508888E+02 -0.25196007046E+03  0.28251451270E+03  0.00000000000E+00 0. -1.
</event>
<event>
 8    1  0.6906553E-009  0.3234617E+03  0.7561462E-02  0.1074067E+00
          2   -1    0    0  501    0  0.00000000000E+00  0.00000000000E+00  0.10685935872E+04  0.10685935872E+04  0.00000000000E+00 0. -1.
         -2   -1    0    0    0  501 -0.00000000000E+00 -0.00000000000E+00 -0.10475132620E+03  0.10475132620E+03  0.00000000000E+00 0.  1.
         25    2    1    2    0    0  0.19039604732E+03  0.25197566105E+03  0.53243191428E+03  0.63156412857E+03  0.12508843491E+03 0.  0.
         23    2    1    2    0    0 -0.19039604732E+03 -0.25197566105E+03  0.43141034672E+03  0.54178078483E+03  0.87573643033E+02 0.  0.
          5    1    3    3  502    0  0.19466295154E+03  0.22194374500E+03  0.40925455971E+03  0.50463794714E+03  0.41800000000E+01 0.  1.
         -5    1    3    3    0  502 -0.42669042154E+01  0.30031916048E+02  0.12317735457E+03  0.12692618143E+03  0.41800000000E+01 0.  1.
        -11    1    4    4    0    0 -0.16004913676E+03 -0.16924725093E+03  0.35788995344E+03  0.42701941045E+03  0.00000000000E+00 0. -1.
         11    1    4    4    0    0 -0.30346910565E+02 -0.82728410120E+02  0.73520393275E+02  0.11476137438E+03  0.00000000000E+00 0.  1.
</event>
<event>
 8    1  0.6906553E-009  0.1086918E+03  0.7561462E-02  0.1263012E+00
          2   -1    0    0  501    0  0.00000000000E+00  0.00000000000E+00  0.56895994893E+02  0.56895994893E+02  0.00000000000E+00 0. -1.
         -2   -1    0    0    0  501 -0.00000000000E+00 -0.00000000000E+00 -0.26609752545E+03  0.26609752545E+03  0.00000000000E+00 0.  1.
         25    2    1    2    0    0  0.82402843845E+01  0.55556364018E+02 -0.81504944010E+02  0.15951533505E+03  0.12509066452E+03 0.  0.
         23    2    1    2    0    0 -0.82402843845E+01 -0.55556364018E+02 -0.12769658655E+03  0.16347818529E+03  0.85230786573E+02 0.  0.
          5    1    3    3  502    0 -0.49202550333E+02  0.33164992422E+02 -0.77356101982E+02  0.97581999341E+02  0.41800000000E+01 0.  1.
         -5    1    3    3    0  502  0.57442834717E+02  0.22391371596E+02 -0.41488420274E+01  0.61933335713E+02  0.41800000000E+01 0.  1.
        -11    1    4    4    0    0  0.98390235411E+01 -0.71395123588E+02 -0.11643467150E+03  0.13693466611E+03  0.00000000000E+00 0.  1.
         11    1    4    4    0    0 -0.18079307926E+02  0.15838759569E+02 -0.11261915051E+02  0.26543519179E+02  0.00000000000E+00 0. -1.
</event>
<event>
 8    1  0.6906553E-009  0.6522973E+02  0.7561462E-02  0.1377109E+00
          1   -1    0    0  501    0  0.00000000000E+00  0.00000000000E+00  0.18077439841E+03  0.18077439841E+03  0.00000000000E+00 0. -1.
         -1   -1    0    0    0  501 -0.00000000000E+00 -0.00000000000E+00 -0.69174896296E+02  0.69174896296E+02  0.00000000000E+00 0.  1.
         25    2    1    2    0    0 -0.18935808755E+02  0.34404190925E+02  0.68473703507E+02  0.14791451740E+03  0.12509133934E+03 0.  0.
         23    2    1    2    0    0  0.18935808755E+02 -0.34404190925E+02  0.43125798608E+02  0.10203477731E+03  0.83720057746E+02 0.  0.
          5    1    3    3  502    0 -0.21502963552E+02  0.15310265628E+02  0.10394897365E+03  0.10732960075E+03  0.41800000000E+01 0.  1.
         -5    1    3    3    0  502  0.25671547970E+01  0.19093925297E+02 -0.35475270144E+02  0.40584916641E+02  0.41800000000E+01 0.  1.
        -11    1    4    4    0    0 -0.18655796210E+02 -0.41739856016E+02  0.18937954214E+01  0.45758504932E+02  0.00000000000E+00 0.  1.
         11    1    4    4    0    0  0.37591604966E+02  0.73356650910E+01  0.41232003186E+02  0.56276272380E+02  0.00000000000E+00 0. -1.
</event>
<event>
 8    1  0.6906553E-009  0.1193237E+03  0.7561462E-02  0.1244217E+00
          2   -1    0    0  501    0  0.00000000000E+00  0.00000000000E+00  0.51223973895E+03  0.51223973895E+03  0.00000000000E+00 0. -1.
         -2   -1    0    0    0  501 -0.00000000000E+00 -0.00000000000E+00 -0.56377530169E+02  0.56377530169E+02  0.00000000000E+00 0.  1.
         25    2    1    2    0    0  0.86081163692E+02 -0.72158969117E+02  0.35794267821E+03  0.39546088176E+03  0.12509781993E+03 0.  0.
         23    2    1    2    0    0 -0.86081163692E+02  0.72158969117E+02  0.97919530575E+02  0.17315638736E+03  0.88193063505E+02 0.  0.
          5    1    3    3  502    0  0.90138331736E+02 -0.72392220616E+02  0.16004664310E+03  0.19747899337E+03  0.41800000000E+01 0.  1.
         -5    1    3    3    0  502 -0.40571680440E+01  0.23325149919E+00  0.19789603511E+03  0.19798188839E+03  0.41800000000E+01 0.  1.
        -11    1    4    4    0    0 -0.44379440954E+02  0.15983076894E+02 -0.63445378044E+01  0.47594607744E+02  0.00000000000E+00 0.  1.
         11    1    4    4    0    0 -0.41701722739E+02  0.56175892223E+02  0.10426406838E+03  0.12556177962E+03  0.00000000000E+00 0. -1.
</event>
<event>
 8    1  0.6906553E-009  0.9178638E+02  0.7561462E-02  0.1298582E+00
          2   -1    0    0  501    0  0.00000000000E+00  0.00000000000E+00  0.47356925283E+03  0.47356925283E+03  0.00000000000E+00 0. -1.
         -2   -1    0    0    0  501 -0.00000000000E+00 -0.00000000000E+00 -0.37143998355E+02  0.37143998355E+02  0.00000000000E+00 0.  1.
         25    2    1    2    0    0  0.46978949679E+02 -0.36399402409E+02  0.32925325884E+03  0.35719324358E+03  0.12508943438E+03 0.  0.
         23    2    1    2    0    0 -0.46978949679E+02  0.36399402409E+02  0.10717199563E+03  0.15352000760E+03  0.92469551086E+02 0.  0.
          5    1    3    3  502    0  0.64224604966E+02 -0.16401450331E+02  0.69740400807E+02  0.96306818869E+02  0.41800000000E+01 0. -1.
         -5    1    3    3    0  502 -0.17245655287E+02 -0.19997952078E+02  0.25951285804E+03  0.26088642471E+03  0.41800000000E+01 0. -1.
        -11    1    4    4    0    0 -0.86346854759E+01  0.49233070816E+02  0.10089902351E+03  0.11260135878E+03  0.00000000000E+00 0. -1.
         11    1    4    4    0    0 -0.38344264203E+02 -0.12833668407E+02  0.62729721270E+01  0.40918648821E+02  0.00000000000E+00 0.  1.
</event>
<event>
 8    1  0.6906553E-009  0.9935123E+02  0.7561462E-02  0.1281666E+00
          1   -1    0    0  501    0  0.00000000000E+00  0.00000000000E+00  0.11333849005E+03  0.11333849005E+03  0.00000000000E+00 0. -1.
         -1   -1    0    0    0  501 -0.00000000000E+00 -0.00000000000E+00 -0.11892823025E+03  0.11892823025E+03  0.00000000000E+00 0.  1.
         25    2    1    2    0    0  0.14984628805E+02  0.33625503672E+01 -0.18972500830E+02  0.12745564147E+03  0.12509651837E+03 0.  0.
         23    2    1    2    0    0 -0.14984628805E+02 -0.33625503672E+01  0.13382760630E+02  0.10481107883E+03  0.10281253872E+03 0.  0.
          5    1    3    3  502    0 -0.16260389538E+02 -0.38995833025E+02 -0.50486252560E+02  0.65965213247E+02  0.41800000000E+01 0.  1.
         -5    1    3    3    0  502  0.31245018343E+02  0.42358383392E+02  0.31513751730E+02  0.61490428222E+02  0.41800000000E+01 0.  1.
        -11    1    4    4    0    0  0.16848273114E+02  0.43581956873E+02  0.11203013993E+02  0.48049545205E+02  0.00000000000E+00 0.  1.
         11    1    4    4    0    0 -0.31832901919E+02 -0.46944507241E+02  0.21797466374E+01  0.56761533630E+02  0.00000000000E+00 0. -1.
</event>
<event>
 8    1  0.6906553E-009  0.1232303E+03  0.7561462E-02  0.1237861E+00
          1   -1    0    0  501    0  0.00000000000E+00  0.00000000000E+00  0.35076807554E+02  0.35076807554E+02  0.00000000000E+00 0. -1.
         -1   -1    0    0    0  501 -0.00000000000E+00 -0.00000000000E+00 -0.82514883952E+03  0.82514883952E+03  0.00000000000E+00 0.  1.
         25    2    1    2    0    0  0.38588294232E+02 -0.56952926469E+02 -0.69839131573E+03  0.71283230000E+03  0.12508703270E+03 0.  0.
         23    2    1    2    0    0 -0.38588294232E+02  0.56952926469E+02 -0.91680716232E+02  0.14739334707E+03  0.92664733027E+02 0.  0.
          5    1    3    3  502    0  0.76093827962E+02 -0.20694329534E+02 -0.54654756867E+03  0.55222300129E+03  0.41800000000E+01 0.  1.
         -5    1    3    3    0  502 -0.37505533730E+02 -0.36258596936E+02 -0.15184374706E+03  0.16060929872E+03  0.41800000000E+01 0.  1.
        -11    1    4    4    0    0  0.18903955793E+02  0.54420721852E+02 -0.41003741801E+02  0.70712667559E+02  0.00000000000E+00 0.  1.
         11    1    4    4    0    0 -0.57492250025E+02  0.25322046168E+01 -0.50676974431E+02  0.76680679513E+02  0.00000000000E+00 0. -1.
</event>
<event>
 8    1  0.6906553E-009  0.1031754E+03  0.7561462E-02  0.1273757E+00
          2   -1    0    0  501    0  0.00000000000E+00  0.00000000000E+00  0.22217265130E+03  0.22217265130E+03  0.00000000000E+00 0. -1.
         -2   -1    0    0    0  501 -0.00000000000E+00 -0.00000000000E+00 -0.78402592891E+02  0.78402592891E+02  0.00000000000E+00 0.  1.
         25    2    1    2    0    0  0.56827305661E+01  0.27699692730E+02  0.32130504737E+01  0.12828916740E+03  0.12509284702E+03 0.  0.
         23    2    1    2    0    0 -0.56827305661E+01 -0.27699692730E+02  0.14055700793E+03  0.17228607679E+03  0.95533519622E+02 0.  0.
          5    1    3    3  502    0  0.62447357533E+02  0.10309589015E+02  0.19899224616E+02  0.66478655438E+02  0.41800000000E+01 0. -1.
         -5    1    3    3    0  502 -0.56764626967E+02  0.17390103715E+02 -0.16686174143E+02  0.61810511965E+02  0.41800000000E+01 0. -1.
        -11    1    4    4    0    0 -0.42176647504E+02 -0.14899034709E+02  0.12088730184E+03  0.12889759724E+03  0.00000000000E+00 0. -1.
         11    1    4    4    0    0  0.36493916937E+02 -0.12800658021E+02  0.19669706099E+02  0.43388479545E+02  0.00000000000E+00 0.  1.
</event>
<event>
 8    1  0.6906553E-009  0.1086089E+03  0.7561462E-02  0.1263168E+00
         -1   -1    0    0    0  501 -0.00000000000E+00  0.00000000000E+00  0.13375300957E+03  0.13375300957E+03  0.00000000000E+00 0.  1.
          1   -1    0    0  501    0  0.00000000000E+00 -0.00000000000E+00 -0.15453868589E+03  0.15453868589E+03  0.00000000000E+00 0. -1.
         25    2    1    2    0    0  0.33963213194E+01 -0.44488747327E+02 -0.94866454118E+02  0.16321076466E+03  0.12508927191E+03 0.  0.
         23    2    1    2    0    0 -0.33963213194E+01  0.44488747327E+02  0.74080777795E+02  0.12508093079E+03  0.90368655911E+02 0.  0.
          5    1    3    3  502    0 -0.54620312909E+02  0.44503944485E+01 -0.26680106367E+02  0.61094067377E+02  0.41800000000E+01 0. -1.
         -5    1    3    3    0  502  0.58016634228E+02 -0.48939141776E+02 -0.68186347751E+02  0.10211669729E+03  0.41800000000E+01 0. -1.
        -11    1    4    4    0    0  0.36295659558E+01 -0.20527821213E+02  0.52058696886E+02  0.56077385052E+02  0.00000000000E+00 0.  1.
         11    1    4    4    0    0 -0.70258872752E+01  0.65016568540E+02  0.22022080909E+02  0.69003545737E+02  0.00000000000E+00 0. -1.
</event>
<event>
 8    1  0.6906553E-009  0.7692271E+02  0.7561462E-02  0.1338018E+00
          2   -1    0    0  501    0  0.00000000000E+00  0.00000000000E+00  0.29646989635E+03  0.29646989635E+03  0.00000000000E+00 0. -1.
         -2   -1    0    0    0  501 -0.00000000000E+00 -0.00000000000E+00 -0.56181269788E+02  0.56181269788E+02  0.00000000000E+00 0.  1.
         25    2    1    2    0    0  0.65389715033E+02 -0.20821141830E+02  0.17039543310E+03  0.22224051061E+03  0.12508759393E+03 0.  0.
         23    2    1    2    0    0 -0.65389715033E+02  0.20821141830E+02  0.69893193454E+02  0.13041065552E+03  0.86096142792E+02 0.  0.
          5    1    3    3  502    0  0.33525706537E+01  0.11231827772E+02 -0.17655183354E+02  0.21600268154E+02  0.41800000000E+01 0. -1.
         -5    1    3    3    0  502  0.62037144379E+02 -0.32052969601E+02  0.18805061646E+03  0.20064024246E+03  0.41800000000E+01 0. -1.
        -11    1    4    4    0    0 -0.52924881349E+02  0.79300976202E+01  0.89224547636E+02  0.10404301714E+03  0.00000000000E+00 0. -1.
         11    1    4    4    0    0 -0.12464833683E+02  0.12891044209E+02 -0.19331354182E+02  0.26367638386E+02  0.00000000000E+00 0.  1.
</event>
<event>
 8    1  0.6906553E-009  0.1413443E+03  0.7561462E-02  0.1211531E+00
         -2   -1    0    0    0  501 -0.00000000000E+00  0.00000000000E+00  0.40264114544E+02  0.40264114544E+02  0.00000000000E+00 0.  1.
          2   -1    0    0  501    0  0.00000000000E+00 -0.00000000000E+00 -0.77750956618E+03  0.77750956618E+03  0.00000000000E+00 0. -1.
         25    2    1    2    0    0  0.98832446920E+02  0.58622376126E+02 -0.56999934221E+03  0.59477019298E+03  0.12509155361E+03 0.  0.
         23    2    1    2    0    0 -0.98832446920E+02 -0.58622376126E+02 -0.16724610943E+03  0.22300348775E+03  0.92492480146E+02 0.  0.
          5    1    3    3  502    0  0.54234329678E+02 -0.33585650838E+02 -0.27937956843E+03  0.28660037354E+03  0.41800000000E+01 0. -1.
         -5    1    3    3    0  502  0.44598117241E+02  0.92208026964E+02 -0.29061977378E+03  0.30816981944E+03  0.41800000000E+01 0. -1.
        -11    1    4    4    0    0 -0.50771906943E+02 -0.40267504902E+02 -0.21232153825E+02  0.68191369262E+02  0.00000000000E+00 0.  1.
         11    1    4    4    0    0 -0.48060539976E+02 -0.18354871224E+02 -0.14601395560E+03  0.15481211849E+03  0.00000000000E+00 0. -1.
</event>
<event>
 8    1  0.6906553E-009  0.1039773E+03  0.7561462E-02  0.1272148E+00
          3   -1    0    0  501    0  0.00000000000E+00  0.00000000000E+00  0.66788474404E+02  0.66788474404E+02  0.00000000000E+00 0. -1.
         -3   -1    0    0    0  501 -0.00000000000E+00 -0.00000000000E+00 -0.30411337823E+03  0.30411337823E+03  0.00000000000E+00 0.  1.
         25    2    1    2    0    0  0.19086818437E+02  0.88452334533E+02 -0.12467251350E+03  0.19844119896E+03  0.12509017427E+03 0.  0.
         23    2    1    2    0    0 -0.19086818437E+02 -0.88452334533E+02 -0.11265239032E+03  0.17246065367E+03  0.94148785958E+02 0.  0.
          5    1    3    3  502    0 -0.63521005206E+01  0.62233017210E+01 -0.11070599314E+03  0.11114120740E+03  0.41800000000E+01 0.  1.
         -5    1    3    3    0  502  0.25438918958E+02  0.82229032812E+02 -0.13966520359E+02  0.87299991557E+02  0.41800000000E+01 0.  1.
        -11    1    4    4    0    0  0.23385461864E+02 -0.47542267745E+02 -0.98453964210E+02  0.11180487520E+03  0.00000000000E+00 0.  1.
         11    1    4    4    0    0 -0.42472280301E+02 -0.40910066787E+02 -0.14198426112E+02  0.60655778476E+02  0.00000000000E+00 0. -1.
</event>
<event>
 8    1  0.6906553E-009  0.1533316E+03  0.7561462E-02  0.1196438E+00
          2   -1    0    0  501    0  0.00000000000E+00  0.00000000000E+00  0.54986911043E+03  0.54986911043E+03  0.00000000000E+00 0.  1.
         -2   -1    0    0    0  501 -0.00000000000E+00 -0.00000000000E+00 -0.52648869190E+02  0.52648869190E+02  0.00000000000E+00 0. -1.
         25    2    1    2    0    0  0.13049002699E+03 -0.57797907748E+01  0.24220702366E+03  0.30228640828E+03  0.12510706293E+03 0.  0.
         23    2    1    2    0    0 -0.13049002699E+03  0.57797907748E+01  0.25501321758E+03  0.30023157134E+03  0.89700625205E+02 0.  0.
          5    1    3    3  502    0  0.56409421054E+02 -0.43082005189E+02  0.35399433437E+02  0.79427163127E+02  0.41800000000E+01 0.  1.
         -5    1    3    3    0  502  0.74080605941E+02  0.37302214414E+02  0.20680759022E+03  0.22285924515E+03  0.41800000000E+01 0.  1.
        -11    1    4    4    0    0  0.10383798562E+02 -0.43884192645E+01  0.50132703141E+02  0.51384525106E+02  0.00000000000E+00 0.  1.
         11    1    4    4    0    0 -0.14087382556E+03  0.10168210039E+02  0.20488051444E+03  0.24884704624E+03  0.00000000000E+00 0. -1.
</event>
<event>
 8    1  0.6906553E-009  0.9342049E+02  0.7561462E-02  0.1294774E+00
         -1   -1    0    0    0  501 -0.00000000000E+00  0.00000000000E+00  0.67807587169E+02  0.67807587169E+02  0.00000000000E+00 0.  1.
          1   -1    0    0  501    0  0.00000000000E+00 -0.00000000000E+00 -0.30193601578E+03  0.30193601578E+03  0.00000000000E+00 0. -1.
         25    2    1    2    0    0 -0.33450686227E+02 -0.44132957678E+01 -0.23881420633E+03  0.27169490620E+03  0.12508985299E+03 0.  0.
         23    2    1    2    0    0  0.33450686227E+02  0.44132957678E+01  0.46857777134E+01  0.98048696753E+02  0.91941094368E+02 0.  0.
          5    1    3    3  502    0 -0.39399978186E+02  0.34237784300E+02 -0.32422794209E+02  0.61589724298E+02  0.41800000000E+01 0. -1.
         -5    1    3    3    0  502  0.59492919590E+01 -0.38651080067E+02 -0.20639141212E+03  0.21010518190E+03  0.41800000000E+01 0. -1.
        -11    1    4    4    0    0  0.22583232128E+02  0.46492683949E+02 -0.90417780994E+01  0.52472142946E+02  0.00000000000E+00 0. -1.
         11    1    4    4    0    0  0.10867454099E+02 -0.42079388181E+02  0.13727555813E+02  0.45576553807E+02  0.00000000000E+00 0.  1.
</event>
<event>
 8    1  0.6906553E-009  0.9242680E+02  0.7561462E-02  0.1297079E+00
         -1   -1    0    0    0  501 -0.00000000000E+00  0.00000000000E+00  0.19720986078E+02  0.19720986078E+02  0.00000000000E+00 0.  1.
          1   -1    0    0  501    0  0.00000000000E+00 -0.00000000000E+00 -0.59532408657E+03  0.59532408657E+03  0.00000000000E+00 0. -1.
         25    2    1    2    0    0 -0.10880165380E+02 -0.33250580416E+01 -0.33837798365E+03  0.36093840202E+03  0.12508971272E+03 0.  0.
         23    2    1    2    0    0  0.10880165380E+02  0.33250580416E+01 -0.23722511685E+03  0.25410667063E+03  0.90360444801E+02 0.  0.
          5    1    3    3  502    0 -0.53038244863E+02 -0.26074741794E+02 -0.88675115142E+02  0.10664753173E+03  0.41800000000E+01 0. -1.
         -5    1    3    3    0  502  0.42158079483E+02  0.22749683753E+02 -0.24970286850E+03  0.25429087029E+03  0.41800000000E+01 0. -1.
        -11    1    4    4    0    0 -0.20551218735E+02 -0.26940366837E+02 -0.17411290790E+03  0.17737936930E+03  0.00000000000E+00 0. -1.
         11    1    4    4    0    0  0.31431384115E+02  0.30265424879E+02 -0.63112208952E+02  0.76727301330E+02  0.00000000000E+00 0.  1.
</event>
<event>
 8    1  0.6906553E-009  0.1324023E+03  0.7561462E-02  0.1223934E+00
         -2   -1    0    0    0  501 -0.00000000000E+00  0.00000000000E+00  0.22328506603E+03  0.22328506603E+03  0.00000000000E+00 0.  1.
          2   -1    0    0  501    0  0.00000000000E+00 -0.00000000000E+00 -0.16040681016E+03  0.16040681016E+03  0.00000000000E+00 0. -1.
         25    2    1    2    0    0  0.16250152268E+02  0.86587830343E+02  0.16259966462E+03  0.22326467743E+03  0.12508775096E+03 0.  0.
         23    2    1    2    0    0 -0.16250152268E+02 -0.86587830343E+02 -0.99721408749E+02  0.16042719876E+03  0.89615885457E+02 0.  0.
          5    1    3    3  502    0  0.66482865036E+02  0.48901150957E+02  0.57192150879E+02  0.10049730559E+03  0.41800000000E+01 0.  1.
         -5    1    3    3    0  502 -0.50232712768E+02  0.37686679386E+02  0.10540751374E+03  0.12276737184E+03  0.41800000000E+01 0.  1.
        -11    1    4    4    0    0 -0.36601118407E+02 -0.72339401006E+01 -0.93739117581E+01  0.38468714297E+02  0.00000000000E+00 0.  1.
         11    1    4    4    0    0  0.20350966139E+02 -0.79353890242E+02 -0.90347496991E+02  0.12195848446E+03  0.00000000000E+00 0. -1.
</event>
<event>
 8    1  0.6906553E-009  0.1230968E+03  0.7561462E-02  0.1238074E+00
          1   -1    0    0  501    0  0.00000000000E+00  0.00000000000E+00  0.85777560332E+03  0.85777560332E+03  0.00000000000E+00 0.  1.
         -1   -1    0    0    0  501 -0.00000000000E+00 -0.00000000000E+00 -0.22320344226E+02  0.22320344226E+02  0.00000000000E+00 0. -1.
         25    2    1    2    0    0  0.65135617850E+02 -0.28184400590E+02  0.62496002094E+03  0.64129496659E+03  0.12508875750E+03 0.  0.
         23    2    1    2    0    0 -0.65135617850E+02  0.28184400590E+02  0.21049523816E+03  0.23880098096E+03  0.87639340881E+02 0.  0.
          5    1    3    3  502    0  0.35223423641E+00 -0.66097524611E+02  0.35172191861E+03  0.35790332110E+03  0.41800000000E+01 0. -1.
         -5    1    3    3    0  502  0.64783383613E+02  0.37913124021E+02  0.27323810233E+03  0.28339164549E+03  0.41800000000E+01 0. -1.
        -11    1    4    4    0    0 -0.76740572923E+02  0.41401264904E+02  0.20033497931E+03  0.21848863633E+03  0.00000000000E+00 0.  1.
         11    1    4    4    0    0  0.11604955073E+02 -0.13216864314E+02  0.10160258842E+02  0.20312344628E+02  0.00000000000E+00 0. -1.
</event>
<event>
 8    1  0.6906553E-009  0.1059180E+03  0.7561462E-02  0.1268321E+00
          2   -1    0    0  501    0  0.00000000000E+00  0.00000000000E+00  0.10245120714E+04  0.10245120714E+04  0.00000000000E+00 0. -1.
         -2   -1    0    0    0  501 -0.00000000000E+00 -0.00000000000E+00 -0.11732383483E+02  0.11732383483E+02  0.00000000000E+00 0.  1.
         25    2    1    2    0    0  0.54038977915E+01 -0.15939673408E+00  0.68015125607E+03  0.69157966683E+03  0.12508987535E+03 0.  0.
         23    2    1    2    0    0 -0.54038977915E+01  0.15939673408E+00  0.33262843184E+03  0.34466478805E+03  0.90127215276E+02 0.  0.
          5    1    3    3  502    0  0.40974065410E+02  0.47113385530E+02  0.42780464554E+03  0.43235729701E+03  0.41800000000E+01 0.  1.
         -5    1    3    3    0  502 -0.35570167618E+02 -0.47272782264E+02  0.25234661053E+03  0.25922236982E+03  0.41800000000E+01 0.  1.
        -11    1    4    4    0    0 -0.17392880530E+02  0.42512471258E+02  0.18474909150E+03  0.19037344698E+03  0.00000000000E+00 0. -1.
         11    1    4    4    0    0  0.11988982739E+02 -0.42353074524E+02  0.14787934034E+03  0.15429134107E+03  0.00000000000E+00 0.  1.
</event>
<event>
 8    1  0.6906553E-009  0.9950693E+02  0.7561462E-02  0.1281336E+00
          1   -1    0    0  501    0  0.00000000000E+00  0.00000000000E+00  0.12315556358E+03  0.12315556358E+03  0.00000000000E+00 0. -1.
         -1   -1    0    0    0  501 -0.00000000000E+00 -0.00000000000E+00 -0.15969764006E+03  0.15969764006E+03  0.00000000000E+00 0.  1.
         25    2    1    2    0    0 -0.41513951685E+02  0.46241071301E+02  0.44300439667E+02  0.14653274552E+03  0.12509065391E+03 0.  0.
         23    2    1    2    0    0  0.41513951685E+02 -0.46241071301E+02 -0.80842516154E+02  0.13632045812E+03  0.90477124319E+02 0.  0.
          5    1    3    3  502    0  0.14716556694E+02  0.24452802989E+02  0.73824323367E+02  0.79259193382E+02  0.41800000000E+01 0.  1.
         -5    1    3    3    0  502 -0.56230508379E+02  0.21788268312E+02 -0.29523883700E+02  0.67273552138E+02  0.41800000000E+01 0.  1.
        -11    1    4    4    0    0 -0.17297312338E+02 -0.47857239911E+02 -0.39366354308E+02  0.64336787902E+02  0.00000000000E+00 0. -1.
         11    1    4    4    0    0  0.58811264023E+02  0.16161686104E+01 -0.41476161846E+02  0.71983670220E+02  0.00000000000E+00 0.  1.
</event>
<event>
 8    1  0.6906553E-009  0.1855734E+03  0.7561462E-02  0.1162516E+00
          2   -1    0    0  501    0  0.00000000000E+00  0.00000000000E+00  0.85745863997E+03  0.85745863997E+03  0.00000000000E+00 0. -1.
         -2   -1    0    0    0  501 -0.00000000000E+00 -0.00000000000E+00 -0.46692764307E+02  0.46692764307E+02  0.00000000000E+00 0.  1.
         25    2    1    2    0    0  0.16198015143E+03 -0.30708725416E+02  0.48884523618E+03  0.53084552951E+03  0.12508683383E+03 0.  0.
         23    2    1    2    0    0 -0.16198015143E+03  0.30708725416E+02  0.32192063949E+03  0.37330587476E+03  0.92432584786E+02 0.  0.
          5    1    3    3  502    0  0.12416634473E+03 -0.58221479270E+02  0.23030010099E+03  0.26807206256E+03  0.41800000000E+01 0. -1.
         -5    1    3    3    0  502  0.37813806699E+02  0.27512753854E+02  0.25854513519E+03  0.26277346695E+03  0.41800000000E+01 0. -1.
        -11    1    4    4    0    0 -0.12782227716E+03  0.60732825494E+02  0.26528501876E+03  0.30067116890E+03  0.00000000000E+00 0. -1.
         11    1    4    4    0    0 -0.34157874273E+02 -0.30024100078E+02  0.56635620729E+02  0.72634705862E+02  0.00000000000E+00 0.  1.
</event>
<event>
 8    1  0.6906553E-009  0.6719741E+02  0.7561462E-02  0.1369891E+00
         -4   -1    0    0    0  501 -0.00000000000E+00  0.00000000000E+00  0.10028862441E+03  0.10028862441E+03  0.00000000000E+00 0.  1.
          4   -1    0    0  501    0  0.00000000000E+00 -0.00000000000E+00 -0.19184353984E+03  0.19184353984E+03  0.00000000000E+00 0. -1.
         25    2    1    2    0    0 -0.40150703509E+02  0.21013716485E+02 -0.12892698056E+03  0.18526210711E+03  0.12508487815E+03 0.  0.
         23    2    1    2    0    0  0.40150703509E+02 -0.21013716485E+02  0.37372065122E+02  0.10687005714E+03  0.89279799447E+02 0.  0.
          5    1    3    3  502    0 -0.17985606759E+02  0.10058300563E+02  0.23067704690E+02  0.31212863700E+02  0.41800000000E+01 0.  1.
         -5    1    3    3    0  502 -0.22165096750E+02  0.10955415922E+02 -0.15199468525E+03  0.15404924341E+03  0.41800000000E+01 0.  1.
        -11    1    4    4    0    0 -0.15530322727E+02  0.15312432141E+02 -0.11215968341E+02  0.24524670189E+02  0.00000000000E+00 0. -1.
         11    1    4    4    0    0  0.55681026236E+02 -0.36326148625E+02  0.48588033463E+02  0.82345386953E+02  0.00000000000E+00 0.  1.
</event>
<event>
 8    1  0.6906553E-009  0.9758378E+02  0.7561462E-02  0.1285461E+00
         -1   -1    0    0    0  501 -0.00000000000E+00  0.00000000000E+00  0.18194759509E+03  0.18194759509E+03  0.00000000000E+00 0.  1.
          1   -1    0    0  501    0  0.00000000000E+00 -0.00000000000E+00 -0.71205665314E+02  0.71205665314E+02  0.00000000000E+00 0. -1.
         25    2    1    2    0    0 -0.26353959661E+02 -0.11237834528E+02  0.80824604253E+02  0.15165024715E+03  0.12507741880E+03 0.  0.
         23    2    1    2    0    0  0.26353959661E+02  0.11237834528E+02  0.29917325520E+02  0.10150301325E+03  0.92666041344E+02 0.  0.
          5    1    3    3  502    0 -0.38739510652E+02  0.44447612661E+02  0.72982165080E+02  0.93915966568E+02  0.41800000000E+01 0.  1.
         -5    1    3    3    0  502  0.12385550991E+02 -0.55685447189E+02  0.78424391733E+01  0.57734280581E+02  0.41800000000E+01 0.  1.
        -11    1    4    4    0    0 -0.25033975424E+02 -0.37910483900E+01  0.39689596069E+02  0.47077977968E+02  0.00000000000E+00 0.  1.
         11    1    4    4    0    0  0.51387935085E+02  0.15028882918E+02 -0.97722705487E+01  0.54425035285E+02  0.00000000000E+00 0. -1.
</event>
<event>
 8    1  0.6906553E-009  0.1382903E+03  0.7561462E-02  0.1215648E+00
         -1   -1    0    0    0  501 -0.00000000000E+00  0.00000000000E+00  0.86218050679E+02  0.86218050679E+02  0.00000000000E+00 0.  1.
          1   -1    0    0  501    0  0.00000000000E+00 -0.00000000000E+00 -0.28648165645E+03  0.28648165645E+03  0.00000000000E+00 0. -1.
         25    2    1    2    0    0 -0.58737333165E+02  0.94879650776E+02 -0.12876188140E+03  0.21137059241E+03  0.12508270383E+03 0.  0.
         23    2    1    2    0    0  0.58737333165E+02 -0.94879650776E+02 -0.71501724373E+02  0.16132911472E+03  0.91991109512E+02 0.  0.
          5    1    3    3  502    0 -0.53077880709E+02  0.14304987702E+01 -0.14430671940E+01  0.53280977752E+02  0.41800000000E+01 0. -1.
         -5    1    3    3    0  502 -0.56594524565E+01  0.93449152006E+02 -0.12731881421E+03  0.15808961466E+03  0.41800000000E+01 0. -1.
        -11    1    4    4    0    0  0.72654575159E+02 -0.68881266530E+02 -0.82628622646E+02  0.12981065230E+03  0.00000000000E+00 0.  1.
         11    1    4    4    0    0 -0.13917241994E+02 -0.25998384246E+02  0.11126898272E+02  0.31518462419E+02  0.00000000000E+00 0. -1.
</event>
<event>
 8    1  0.6906553E-009  0.3395492E+03  0.7561462E-02  0.1066988E+00
          2   -1    0    0  501    0  0.00000000000E+00  0.00000000000E+00  0.66047681755E+03  0.66047681755E+03  0.00000000000E+00 0. -1.
         -2   -1    0    0    0  501 -0.00000000000E+00 -0.00000000000E+00 -0.21062564884E+03  0.21062564884E+03  0.00000000000E+00 0.  1.
         25    2    1    2    0    0 -0.22131511066E+03 -0.24384111989E+03  0.38781392624E+03  0.52391500211E+03  0.12509363731E+03 0.  0.
         23    2    1    2    0    0  0.22131511066E+03  0.24384111989E+03  0.62037242480E+02  0.34718746428E+03  0.90838570807E+02 0.  0.
          5    1    3    3  502    0 -0.88373056374E+02 -0.44292309576E+02  0.53486604697E+02  0.11247175229E+03  0.41800000000E+01 0.  1.
         -5    1    3    3    0  502 -0.13294205428E+03 -0.19954881032E+03  0.33432732154E+03  0.41144324982E+03  0.41800000000E+01 0.  1.
        -11    1    4    4    0    0  0.52897969056E+02  0.12782149147E+02  0.21008408890E+02  0.58334652748E+02  0.00000000000E+00 0. -1.
         11    1    4    4    0    0  0.16841714160E+03  0.23105897074E+03  0.41028833589E+02  0.28885281154E+03  0.00000000000E+00 0.  1.
</event>
<event>
 8    1  0.6906553E-009  0.1462038E+03  0.7561462E-02  0.1205217E+00
         -2   -1    0    0    0  501 -0.00000000000E+00  0.00000000000E+00  0.45008684968E+03  0.45008684968E+03  0.00000000000E+00 0. -1.
          2   -1    0    0  501    0  0.00000000000E+00 -0.00000000000E+00 -0.58024064253E+02  0.58024064253E+02  0.00000000000E+00 0.  1.
         25    2    1    2    0    0  0.38478816836E+01 -0.11974363759E+03  0.20225482199E+03  0.26628944707E+03  0.12509880761E+03 0.  0.
         23    2    1    2    0    0 -0.38478816836E+01  0.11974363759E+03  0.18980796343E+03  0.24182146686E+03  0.89984520404E+02 0.  0.
          5    1    3    3  502    0 -0.57082136937E+02 -0.82231547498E+02  0.13401741117E+03  0.16732763268E+03  0.41800000000E+01 0.  1.
         -5    1    3    3    0  502  0.60930018620E+02 -0.37512090097E+02  0.68237410815E+02  0.98961814389E+02  0.41800000000E+01 0.  1.
        -11    1    4    4    0    0 -0.84868214879E+01  0.94358853149E+02  0.66270130058E+02  0.11561725410E+03  0.00000000000E+00 0.  1.
         11    1    4    4    0    0  0.46389398043E+01  0.25384784445E+02  0.12353783337E+03  0.12620421276E+03  0.00000000000E+00 0. -1.
</event>
<event>
 8    1  0.6906553E-009  0.1815848E+03  0.7561462E-02  0.1166278E+00
          1   -1    0    0  501    0  0.00000000000E+00  0.00000000000E+00  0.97147424823E+03  0.97147424823E+03  0.00000000000E+00 0. -1.
         -1   -1    0    0    0  501 -0.00000000000E+00 -0.00000000000E+00 -0.43097983003E+02  0.43097983003E+02  0.00000000000E+00 0.  1.
         25    2    1    2    0    0  0.15966345949E+03 -0.27503274653E+02  0.33112494716E+03  0.38928033636E+03  0.12508636710E+03 0.  0.
         23    2    1    2    0    0 -0.15966345949E+03  0.27503274653E+02  0.59725131807E+03  0.62529189487E+03  0.89621238831E+02 0.  0.
          5    1    3    3  502    0 -0.10033146562E+02 -0.21458304890E+02  0.97572620187E+02  0.10049383806E+03  0.41800000000E+01 0. -1.
         -5    1    3    3    0  502  0.16969660605E+03 -0.60449697630E+01  0.23355232697E+03  0.28878649829E+03  0.41800000000E+01 0. -1.
        -11    1    4    4    0    0 -0.86148210288E+02 -0.10007914471E+02  0.17812102226E+03  0.19811302597E+03  0.00000000000E+00 0.  1.
         11    1    4    4    0    0 -0.73515249198E+02  0.37511189124E+02  0.41913029581E+03  0.42717886891E+03  0.00000000000E+00 0. -1.
</event>
<event>
 8    1  0.6906553E-009  0.1017447E+03  0.7561462E-02  0.1276669E+00
         -3   -1    0    0    0  501 -0.00000000000E+00  0.00000000000E+00  0.33176663914E+02  0.33176663914E+02  0.00000000000E+00 0. -1.
          3   -1    0    0  501    0  0.00000000000E+00 -0.00000000000E+00 -0.43552126978E+03  0.43552126978E+03  0.00000000000E+00 0.  1.
         25    2    1    2    0    0 -0.37563963041E+02  0.21110964212E+02 -0.16616346305E+03  0.21240170223E+03  0.12508981785E+03 0.  0.
         23    2    1    2    0    0  0.37563963041E+02 -0.21110964212E+02 -0.23618114282E+03  0.25629623146E+03  0.89719016425E+02 0.  0.
          5    1    3    3  502    0 -0.77944619054E+01  0.60917414400E+02 -0.14627712599E+03  0.15870146503E+03  0.41800000000E+01 0.  1.
         -5    1    3    3    0  502 -0.29769501136E+02 -0.39806450188E+02 -0.19886337055E+02  0.53700237206E+02  0.41800000000E+01 0.  1.
        -11    1    4    4    0    0  0.45026233919E+02 -0.47012229996E+02 -0.20496033867E+03  0.21504941743E+03  0.00000000000E+00 0. -1.
         11    1    4    4    0    0 -0.74622708773E+01  0.25901265784E+02 -0.31220804152E+02  0.41246814032E+02  0.00000000000E+00 0.  1.
</event>
<event>
 8    1  0.6906553E-009  0.1345514E+03  0.7561462E-02  0.1220854E+00
         -2   -1    0    0    0  501 -0.00000000000E+00  0.00000000000E+00  0.20783975876E+03  0.20783975876E+03  0.00000000000E+00 0.  1.
          2   -1    0    0  501    0  0.00000000000E+00 -0.00000000000E+00 -0.10053970660E+03  0.10053970660E+03  0.00000000000E+00 0. -1.
         25    2    1    2    0    0 -0.68132356647E+02 -0.52198354974E+02  0.11876647817E+02  0.15216900839E+03  0.12509063141E+03 0.  0.
         23    2    1    2    0    0  0.68132356647E+02  0.52198354974E+02  0.95423404340E+02  0.15621045697E+03  0.89047147545E+02 0.  0.
          5    1    3    3  502    0 -0.57722746970E+02  0.32308276568E+02  0.15656158524E+01  0.66299802455E+02  0.41800000000E+01 0.  1.
         -5    1    3    3    0  502 -0.10409609677E+02 -0.84506631541E+02  0.10311031965E+02  0.85869205937E+02  0.41800000000E+01 0.  1.
        -11    1    4    4    0    0 -0.14422090124E+02 -0.69574010834E+01 -0.11632402430E+01  0.16054757589E+02  0.00000000000E+00 0. -1.
         11    1    4    4    0    0  0.82554446772E+02  0.59155756057E+02  0.96586644583E+02  0.14015569938E+03  0.00000000000E+00 0.  1.
</event>
<event>
 8    1  0.6906553E-009  0.2621113E+03  0.7561462E-02  0.1105881E+00
         -1   -1    0    0    0  501 -0.00000000000E+00  0.00000000000E+00  0.62012150951E+02  0.62012150951E+02  0.00000000000E+00 0.  1.
          1   -1    0    0  501    0  0.00000000000E+00 -0.00000000000E+00 -0.11809324415E+04  0.11809324415E+04  0.00000000000E+00 0. -1.
         25    2    1    2    0    0 -0.45596295272E+02  0.24218273435E+03 -0.51868071596E+03  0.58771432578E+03  0.12508774782E+03 0.  0.
         23    2    1    2    0    0  0.45596295272E+02 -0.24218273435E+03 -0.60023957462E+03  0.65523026670E+03  0.91146346643E+02 0.  0.
          5    1    3    3  502    0  0.26317055434E+02  0.71574478927E+02 -0.75483741234E+02  0.10738138121E+03  0.41800000000E+01 0. -1.
         -5    1    3    3    0  502 -0.71913350706E+02  0.17060825542E+03 -0.44319697473E+03  0.48033294457E+03  0.41800000000E+01 0. -1.
        -11    1    4    4    0    0  0.54240183559E+02 -0.62451741910E+02 -0.19736613421E+03  0.21399908531E+03  0.00000000000E+00 0. -1.
         11    1    4    4    0    0 -0.86438882868E+01 -0.17973099244E+03 -0.40287344041E+03  0.44123118139E+03  0.00000000000E+00 0.  1.
</event>
<event>
 8    1  0.6906553E-009  0.1252391E+03  0.7561462E-02  0.1234696E+00
         -1   -1    0    0    0  501 -0.00000000000E+00  0.00000000000E+00  0.32468018077E+02  0.32468018077E+02  0.00000000000E+00 0.  1.
          1   -1    0    0  501    0  0.00000000000E+00 -0.00000000000E+00 -0.66939249652E+03  0.66939249652E+03  0.00000000000E+00 0. -1.
         25    2    1    2    0    0 -0.75160041474E+02  0.19298371047E+02 -0.49832867518E+03  0.51961601111E+03  0.12509145269E+03 0.  0.
         23    2    1    2    0    0  0.75160041474E+02 -0.19298371047E+02 -0.13859580327E+03  0.18224450349E+03  0.89346535525E+02 0.  0.
          5    1    3    3  502    0  0.73995709962E+01 -0.40651785846E+02 -0.20084681182E+03  0.20509567417E+03  0.41800000000E+01 0.  1.
         -5    1    3    3    0  502 -0.82559612470E+02  0.59950156893E+02 -0.29748186336E+03  0.31452033694E+03  0.41800000000E+01 0.  1.
        -11    1    4    4    0    0  0.57290331094E+02  0.22362754092E+02 -0.39016628623E+02  0.72832493549E+02  0.00000000000E+00 0.  1.
         11    1    4    4    0    0  0.17869710380E+02 -0.41661125139E+02 -0.99579174645E+02  0.10941200994E+03  0.00000000000E+00 0. -1.
</event>
<event>
 8    1  0.6906553E-009  0.2387003E+03  0.7561462E-02  0.1120662E+00
         -2   -1    0    0    0  501 -0.00000000000E+00  0.00000000000E+00  0.46522656327E+02  0.46522656327E+02  0.00000000000E+00 0.  1.
          2   -1    0    0  501    0  0.00000000000E+00 -0.00000000000E+00 -0.12728873337E+04  0.12728873337E+04  0.00000000000E+00 0. -1.
         25    2    1    2    0    0 -0.53717263465E+02  0.21158877667E+03 -0.61642060374E+03  0.66579013899E+03  0.12508714425E+03 0.  0.
         23    2    1    2    0    0  0.53717263465E+02 -0.21158877667E+03 -0.60994407360E+03  0.65361985100E+03  0.86785839247E+02 0.  0.
          5    1    3    3  502    0 -0.50243986613E+02  0.12543283249E+02 -0.11087359824E+03  0.12244271858E+03  0.41800000000E+01 0. -1.
         -5    1    3    3    0  502 -0.34732768525E+01  0.19904549342E+03 -0.50554700550E+03  0.54334742042E+03  0.41800000000E+01 0. -1.
        -11    1    4    4    0    0  0.60372219802E+02 -0.11842959298E+03 -0.26808454504E+03  0.29923184441E+03  0.00000000000E+00 0.  1.
         11    1    4    4    0    0 -0.66549563369E+01 -0.93159183690E+02 -0.34185952857E+03  0.35438800660E+03  0.00000000000E+00 0. -1.
</event>
<event>
 8    1  0.6906553E-009  0.1752221E+03  0.7561462E-02  0.1172509E+00
         -2   -1    0    0    0  501 -0.00000000000E+00  0.00000000000E+00  0.23654421744E+03  0.23654421744E+03  0.00000000000E+00 0. -1.
          2   -1    0    0  501    0  0.00000000000E+00 -0.00000000000E+00 -0.16626341634E+03  0.16626341634E+03  0.00000000000E+00 0.  1.
         25    2    1    2    0    0 -0.87509187217E+02  0.12951973007E+03 -0.17806315529E+02  0.20099177031E+03  0.12508960203E+03 0.  0.
         23    2    1    2    0    0  0.87509187217E+02 -0.12951973007E+03  0.88087116626E+02  0.20181586347E+03  0.92396343587E+02 0.  0.
          5    1    3    3  502    0  0.44327379667E+01  0.85475346086E+02 -0.43027373940E+02  0.95888014175E+02  0.41800000000E+01 0.  1.
         -5    1    3    3    0  502 -0.91941925184E+02  0.44044383984E+02  0.25221058412E+02  0.10510375614E+03  0.41800000000E+01 0.  1.
        -11    1    4    4    0    0  0.58119081796E+02 -0.45818003316E+02  0.85479709618E+02  0.11306590049E+03  0.00000000000E+00 0. -1.
         11    1    4    4    0    0  0.29390105421E+02 -0.83701726753E+02  0.26074070071E+01  0.88749962982E+02  0.00000000000E+00 0.  1.
</event>
<event>
 8    1  0.6906553E-009  0.1148688E+03  0.7561462E-02  0.1251810E+00
         -2   -1    0    0    0  501 -0.00000000000E+00  0.00000000000E+00  0.16623330115E+02  0.16623330115E+02  0.00000000000E+00 0.  1.
          2   -1    0    0  501    0  0.00000000000E+00 -0.00000000000E+00 -0.82349494340E+03  0.82349494340E+03  0.00000000000E+00 0. -1.
         25    2    1    2    0    0  0.65894385349E+01  0.42035069270E+02 -0.52242627204E+03  0.53887584932E+03  0.12509038140E+03 0.  0.
         23    2    1    2    0    0 -0.65894385349E+01 -0.42035069270E+02 -0.28444534125E+03  0.30124242419E+03  0.89596195387E+02 0.  0.
          5    1    3    3  502    0  0.64394174695E+02  0.30968850894E+02 -0.24482013901E+03  0.25506872079E+03  0.41800000000E+01 0.  1.
         -5    1    3    3    0  502 -0.57804736160E+02  0.11066218375E+02 -0.27760613302E+03  0.28380712853E+03  0.41800000000E+01 0.  1.
        -11    1    4    4    0    0  0.33997968800E+02  0.78055989513E+01 -0.96717233784E+02  0.10281542962E+03  0.00000000000E+00 0.  1.
         11    1    4    4    0    0 -0.40587407335E+02 -0.49840668221E+02 -0.18772810746E+03  0.19842699457E+03  0.00000000000E+00 0. -1.
</event>
<event>
 8    1  0.6906553E-009  0.1116962E+03  0.7561462E-02  0.1257461E+00
          2   -1    0    0  501    0  0.00000000000E+00  0.00000000000E+00  0.97002827782E+02  0.97002827782E+02  0.00000000000E+00 0. -1.
         -2   -1    0    0    0  501 -0.00000000000E+00 -0.00000000000E+00 -0.14611438279E+03  0.14611438279E+03  0.00000000000E+00 0.  1.
         25    2    1    2    0    0  0.46722529596E+02  0.24461003074E+02 -0.11218964782E+02  0.13621454376E+03  0.12508877374E+03 0.  0.
         23    2    1    2    0    0 -0.46722529596E+02 -0.24461003074E+02 -0.37892590222E+02  0.10690266681E+03  0.84917585544E+02 0.  0.
          5    1    3    3  502    0  0.82071582634E+02  0.36072080383E+01 -0.34093906600E+02  0.89042818313E+02  0.41800000000E+01 0.  1.
         -5    1    3    3    0  502 -0.35349053038E+02  0.20853795036E+02  0.22874941818E+02  0.47171725443E+02  0.41800000000E+01 0.  1.
        -11    1    4    4    0    0  0.16288942309E+02 -0.32505328965E+02 -0.11738216130E+02  0.38206174509E+02  0.00000000000E+00 0.  1.
         11    1    4    4    0    0 -0.63011471905E+02  0.80443258911E+01 -0.26154374092E+02  0.68696492303E+02  0.00000000000E+00 0. -1.
</event>
<event>
 8    1  0.6906553E-009  0.1530913E+03  0.7561462E-02  0.1196725E+00
          2   -1    0    0  501    0  0.00000000000E+00  0.00000000000E+00  0.34740449501E+03  0.34740449501E+03  0.00000000000E+00 0.  1.
         -2   -1    0    0    0  501 -0.00000000000E+00 -0.00000000000E+00 -0.92701717808E+02  0.92701717808E+02  0.00000000000E+00 0. -1.
         25    2    1    2    0    0 -0.14083161664E+03 -0.16366894210E+02  0.11448234432E+03  0.22103270422E+03  0.12509128549E+03 0.  0.
         23    2    1    2    0    0  0.14083161664E+03  0.16366894210E+02  0.14022043288E+03  0.21907350859E+03  0.90719418528E+02 0.  0.
          5    1    3    3  502    0 -0.57226408411E+02 -0.44646766421E+02  0.11089509651E+03  0.13260237706E+03  0.41800000000E+01 0. -1.
         -5    1    3    3    0  502 -0.83605208229E+02  0.28279872211E+02  0.35872478041E+01  0.88430327162E+02  0.41800000000E+01 0. -1.
        -11    1    4    4    0    0  0.94117427346E+02  0.25528705360E+02  0.14103040844E+03  0.17146247704E+03  0.00000000000E+00 0.  1.
         11    1    4    4    0    0  0.46714189294E+02 -0.91618111503E+01 -0.80997556148E+00  0.47611031551E+02  0.00000000000E+00 0. -1.
</event>
<event>
 8    1  0.6906553E-009  0.1544398E+03  0.7561462E-02  0.1195121E+00
         -2   -1    0    0    0  501 -0.00000000000E+00  0.00000000000E+00  0.76267293148E+02  0.76267293148E+02  0.00000000000E+00 0.  1.
          2   -1    0    0  501    0  0.00000000000E+00 -0.00000000000E+00 -0.41113188360E+03  0.41113188360E+03  0.00000000000E+00 0. -1.
         25    2    1    2    0    0  0.86598954871E+02 -0.10937743687E+03 -0.17823452050E+03  0.25860802956E+03  0.12509103075E+03 0.  0.
         23    2    1    2    0    0 -0.86598954871E+02  0.10937743687E+03 -0.15663006994E+03  0.22879114718E+03  0.91376186930E+02 0.  0.
          5    1    3    3  502    0  0.64296277965E+02 -0.83178620379E+01 -0.12788989761E+03  0.14344509926E+03  0.41800000000E+01 0. -1.
         -5    1    3    3    0  502  0.22302676907E+02 -0.10105957483E+03 -0.50344622889E+02  0.11516293030E+03  0.41800000000E+01 0. -1.
        -11    1    4    4    0    0 -0.46092586589E+02  0.70234783113E+02 -0.28307287544E+02  0.88649612664E+02  0.00000000000E+00 0.  1.
         11    1    4    4    0    0 -0.40506368282E+02  0.39142653757E+02 -0.12832278240E+03  0.14014153452E+03  0.00000000000E+00 0. -1.
</event>
<event>
 8    1  0.6906553E-009  0.1421853E+03  0.7561462E-02  0.1210418E+00
          1   -1    0    0  501    0  0.00000000000E+00  0.00000000000E+00  0.58986255296E+03  0.58986255296E+03  0.00000000000E+00 0. -1.
         -1   -1    0    0    0  501 -0.00000000000E+00 -0.00000000000E+00 -0.36101348629E+02  0.36101348629E+02  0.00000000000E+00 0.  1.
         25    2    1    2    0    0 -0.10005027953E+03  0.21294758535E+01  0.28459640342E+03  0.32658310636E+03  0.12508724721E+03 0.  0.
         23    2    1    2    0    0  0.10005027953E+03 -0.21294758535E+01  0.26916480091E+03  0.29938079524E+03  0.84643826728E+02 0.  0.
          5    1    3    3  502    0 -0.12871551245E+03  0.10688580459E+02  0.24232282694E+03  0.27462657146E+03  0.41800000000E+01 0. -1.
         -5    1    3    3    0  502  0.28665232915E+02 -0.85591046051E+01  0.42273576478E+02  0.51956534892E+02  0.41800000000E+01 0. -1.
        -11    1    4    4    0    0  0.13478340296E+02  0.29767696380E+02  0.35961546794E+02  0.48590269116E+02  0.00000000000E+00 0.  1.
         11    1    4    4    0    0  0.86571939236E+02 -0.31897172233E+02  0.23320325412E+03  0.25079052612E+03  0.00000000000E+00 0. -1.
</event>
<event>
 8    1  0.6906553E-009  0.7194946E+02  0.7561462E-02  0.1353587E+00
         -1   -1    0    0    0  501 -0.00000000000E+00  0.00000000000E+00  0.58076939070E+02  0.58076939070E+02  0.00000000000E+00 0.  1.
          1   -1    0    0  501    0  0.00000000000E+00 -0.00000000000E+00 -0.25435074081E+03  0.25435074081E+03  0.00000000000E+00 0. -1.
         25    2    1    2    0    0 -0.20367473761E+02  0.50203179193E+02 -0.11902063358E+03  0.18096522893E+03  0.12508920688E+03 0.  0.
         23    2    1    2    0    0  0.20367473761E+02 -0.50203179193E+02 -0.77253168164E+02  0.13146245095E+03  0.91537592439E+02 0.  0.
          5    1    3    3  502    0 -0.24728858603E+02 -0.57639690304E+01  0.18946550210E+02  0.31955968952E+02  0.41800000000E+01 0.  1.
         -5    1    3    3    0  502  0.43613848423E+01  0.55967148224E+02 -0.13796718379E+03  0.14900925998E+03  0.41800000000E+01 0.  1.
        -11    1    4    4    0    0  0.12358492608E+02 -0.14232613766E+01  0.19316603461E+02  0.22975839088E+02  0.00000000000E+00 0.  1.
         11    1    4    4    0    0  0.80089811525E+01 -0.48779917817E+02 -0.96569771625E+02  0.10848661186E+03  0.00000000000E+00 0. -1.
</event>
<event>
 8    1  0.6906553E-009  0.1158652E+03  0.7561462E-02  0.1250078E+00
          4   -1    0    0  501    0  0.00000000000E+00  0.00000000000E+00  0.14326954312E+03  0.14326954312E+03  0.00000000000E+00 0. -1.
         -4   -1    0    0    0  501 -0.00000000000E+00 -0.00000000000E+00 -0.16057486521E+03  0.16057486521E+03  0.00000000000E+00 0.  1.
         25    2    1    2    0    0 -0.33598529088E+02  0.85960117549E+02 -0.58829252119E+02  0.16621240460E+03  0.12509068539E+03 0.  0.
         23    2    1    2    0    0  0.33598529088E+02 -0.85960117549E+02  0.41523930025E+02  0.13763200373E+03  0.93275552644E+02 0.  0.
          5    1    3    3  502    0 -0.48729279455E+02  0.20390513435E+01  0.17205441443E+02  0.51886414617E+02  0.41800000000E+01 0. -1.
         -5    1    3    3    0  502  0.15130750367E+02  0.83921066205E+02 -0.76034693562E+02  0.11432598998E+03  0.41800000000E+01 0. -1.
        -11    1    4    4    0    0  0.33914763586E+02 -0.44542479322E+02 -0.23354003988E+02  0.60660144705E+02  0.00000000000E+00 0.  1.
         11    1    4    4    0    0 -0.31623449781E+00 -0.41417638226E+02  0.64877934014E+02  0.76971859029E+02  0.00000000000E+00 0. -1.
</event>
<event>
 8    1  0.6906553E-009  0.1528457E+03  0.7561462E-02  0.1197019E+00
          1   -1    0    0  501    0  0.00000000000E+00  0.00000000000E+00  0.50232481206E+02  0.50232481206E+02  0.00000000000E+00 0. -1.
         -1   -1    0    0    0  501 -0.00000000000E+00 -0.00000000000E+00 -0.61098537961E+03  0.61098537961E+03  0.00000000000E+00 0.  1.
         25    2    1    2    0    0  0.88196515093E+02 -0.96090730865E+02 -0.37471018561E+03  0.41601136421E+03  0.12508268513E+03 0.  0.
         23    2    1    2    0    0 -0.88196515093E+02  0.96090730865E+02 -0.18604271279E+03  0.24520649660E+03  0.92207815073E+02 0.  0.
          5    1    3    3  502    0 -0.10857830458E+01  0.20567808004E+02 -0.10976336902E+02  0.23710040546E+02  0.41800000000E+01 0. -1.
         -5    1    3    3    0  502  0.89282298139E+02 -0.11665853887E+03 -0.36373384871E+03  0.39230132367E+03  0.41800000000E+01 0. -1.
        -11    1    4    4    0    0 -0.22309532064E+02  0.56741101369E+02 -0.23287283142E+02  0.65265345794E+02  0.00000000000E+00 0. -1.
         11    1    4    4    0    0 -0.65886983029E+02  0.39349629496E+02 -0.16275542964E+03  0.17994115080E+03  0.00000000000E+00 0.  1.
</event>
<event>
 8    1  0.6906553E-009  0.1992421E+03  0.7561462E-02  0.1150380E+00
          1   -1    0    0  501    0  0.00000000000E+00  0.00000000000E+00  0.20286755721E+04  0.20286755721E+04  0.00000000000E+00 0. -1.
         -1   -1    0    0    0  501 -0.00000000000E+00 -0.00000000000E+00 -0.23147153727E+02  0.23147153727E+02  0.00000000000E+00 0.  1.
         25    2    1    2    0    0 -0.30730859785E+01  0.18638199429E+03  0.11030074818E+04  0.11256199428E+04  0.12508820492E+03 0.  0.
         23    2    1    2    0    0  0.30730859785E+01 -0.18638199429E+03  0.90252093659E+03  0.92620278307E+03  0.92519526228E+02 0.  0.
          5    1    3    3  502    0 -0.17179485146E+02  0.12329574116E+02  0.22781642542E+02  0.31362856131E+02  0.41800000000E+01 0. -1.
         -5    1    3    3    0  502  0.14106399168E+02  0.17405242017E+03  0.10802258393E+04  0.10942570867E+04  0.41800000000E+01 0. -1.
        -11    1    4    4    0    0  0.40651959434E+02 -0.10584285532E+03  0.61116921977E+03  0.62159722250E+03  0.00000000000E+00 0.  1.
         11    1    4    4    0    0 -0.37578873456E+02 -0.80539138964E+02  0.29135171682E+03  0.30460556057E+03  0.00000000000E+00 0. -1.
</event>
<event>
 8    1  0.6906553E-009  0.2059564E+03  0.7561462E-02  0.1144809E+00
         -2   -1    0    0    0  501 -0.00000000000E+00  0.00000000000E+00  0.19482345262E+03  0.19482345262E+03  0.00000000000E+00 0.  1.
          2   -1    0    0  501    0  0.00000000000E+00 -0.00000000000E+00 -0.27379599094E+03  0.27379599094E+03  0.00000000000E+00 0. -1.
         25    2    1    2    0    0 -0.13049061038E+03 -0.13652012412E+03  0.36655751618E+02  0.22947104159E+03  0.12509105131E+03 0.  0.
         23    2    1    2    0    0  0.13049061038E+03  0.13652012412E+03 -0.11562828994E+03  0.23914840197E+03  0.90313415621E+02 0.  0.
          5    1    3    3  502    0 -0.28949887590E+02 -0.92502203904E+02  0.62940185525E+02  0.11564468458E+03  0.41800000000E+01 0. -1.
         -5    1    3    3    0  502 -0.10154072279E+03 -0.44017920218E+02 -0.26284433908E+02  0.11382635701E+03  0.41800000000E+01 0. -1.
        -11    1    4    4    0    0 -0.10386768751E+02  0.54714891208E+01 -0.22523227490E+02  0.25399171933E+02  0.00000000000E+00 0. -1.
         11    1    4    4    0    0  0.14087737913E+03  0.13104863500E+03 -0.93105062452E+02  0.21374923003E+03  0.00000000000E+00 0.  1.
</event>
<event>
 8    1  0.6906553E-009  0.7820909E+02  0.7561462E-02  0.1334212E+00
          1   -1    0    0  501    0  0.00000000000E+00  0.00000000000E+00  0.10540480723E+03  0.10540480723E+03  0.00000000000E+00 0. -1.
         -1   -1    0    0    0  501 -0.00000000000E+00 -0.00000000000E+00 -0.12904070719E+03  0.12904070719E+03  0.00000000000E+00 0.  1.
         25    2    1    2    0    0  0.35317362245E+02  0.17230415868E+01 -0.37149794172E+02  0.13519731152E+03  0.12509164995E+03 0.  0.
         23    2    1    2    0    0 -0.35317362245E+02 -0.17230415868E+01  0.13513894211E+02  0.99248202897E+02  0.91745820032E+02 0.  0.
          5    1    3    3  502    0 -0.15358107879E+02  0.11742294996E+02  0.38625016118E+02  0.43394898773E+02  0.41800000000E+01 0. -1.
         -5    1    3    3    0  502  0.50675470124E+02 -0.10019253409E+02 -0.75774810290E+02  0.91802412744E+02  0.41800000000E+01 0. -1.
        -11    1    4    4    0    0  0.18599919413E+02  0.19427780509E+02  0.28740575008E+02  0.39362625795E+02  0.00000000000E+00 0. -1.
         11    1    4    4    0    0 -0.53917281659E+02 -0.21150822096E+02 -0.15226680797E+02  0.59885577102E+02  0.00000000000E+00 0.  1.
</event>
<event>
 8    1  0.6906553E-009  0.1448302E+03  0.7561462E-02  0.1206973E+00
          2   -1    0    0  501    0  0.00000000000E+00  0.00000000000E+00  0.67121572763E+03  0.67121572763E+03  0.00000000000E+00 0. -1.
         -2   -1    0    0    0  501 -0.00000000000E+00 -0.00000000000E+00 -0.40494129930E+02  0.40494129930E+02  0.00000000000E+00 0.  1.
         25    2    1    2    0    0  0.45613117869E+00 -0.12367932423E+03  0.34007245573E+03  0.38287640790E+03  0.12509310645E+03 0.  0.
         23    2    1    2    0    0 -0.45613117869E+00  0.12367932423E+03  0.29064914197E+03  0.32883344966E+03  0.91420624535E+02 0.  0.
          5    1    3    3  502    0  0.46913060220E+02 -0.81137955829E+02  0.11136279223E+03  0.14561369094E+03  0.41800000000E+01 0. -1.
         -5    1    3    3    0  502 -0.46456929041E+02 -0.42541368399E+02  0.22870966350E+03  0.23726271696E+03  0.41800000000E+01 0. -1.
        -11    1    4    4    0    0 -0.24229919917E+02  0.57714224649E+02  0.56193998177E+02  0.84117692414E+02  0.00000000000E+00 0.  1.
         11    1    4    4    0    0  0.23773788738E+02  0.65965099580E+02  0.23445514380E+03  0.24471575725E+03  0.00000000000E+00 0. -1.
</event>
<event>
 8    1  0.6906553E-009  0.2062011E+03  0.7561462E-02  0.1144610E+00
         -2   -1    0    0    0  501 -0.00000000000E+00  0.00000000000E+00  0.40716808153E+02  0.40716808153E+02  0.00000000000E+00 0.  1.
          2   -1    0    0  501    0  0.00000000000E+00 -0.00000000000E+00 -0.12297632910E+04  0.12297632910E+04  0.00000000000E+00 0. -1.
         25    2    1    2    0    0 -0.16202174220E+03 -0.10193364511E+03 -0.72087164256E+03  0.75627029756E+03  0.12508926803E+03 0.  0.
         23    2    1    2    0    0  0.16202174220E+03  0.10193364511E+03 -0.46817484030E+03  0.51420980161E+03  0.92641923706E+02 0.  0.
          5    1    3    3  502    0 -0.11605955623E+02 -0.56170256498E+02 -0.95984104258E+02  0.11189377369E+03  0.41800000000E+01 0. -1.
         -5    1    3    3    0  502 -0.15041578657E+03 -0.45763388609E+02 -0.62488753830E+03  0.64437652387E+03  0.41800000000E+01 0. -1.
        -11    1    4    4    0    0  0.49890176259E+02  0.63893359776E+01 -0.50322864941E+02  0.71149448608E+02  0.00000000000E+00 0.  1.
         11    1    4    4    0    0  0.11213156594E+03  0.95544309130E+02 -0.41785197536E+03  0.44306035300E+03  0.00000000000E+00 0. -1.
</event>
<event>
 8    1  0.6906553E-009  0.1231640E+03  0.7561462E-02  0.1237967E+00
         -2   -1    0    0    0  501 -0.00000000000E+00  0.00000000000E+00  0.19015410443E+03  0.19015410443E+03  0.00000000000E+00 0. -1.
          2   -1    0    0  501    0  0.00000000000E+00 -0.00000000000E+00 -0.85806907563E+02  0.85806907563E+02  0.00000000000E+00 0.  1.
         25    2    1    2    0    0 -0.77390224242E+01  0.69325575298E+02  0.73138916489E+02  0.16082038644E+03  0.12509183719E+03 0.  0.
         23    2    1    2    0    0  0.77390224242E+01 -0.69325575298E+02  0.31208280377E+02  0.11514062555E+03  0.86124787548E+02 0.  0.
          5    1    3    3  502    0  0.33423701231E+02 -0.21288876145E+02  0.50643966054E+01  0.40168153611E+02  0.41800000000E+01 0. -1.
         -5    1    3    3    0  502 -0.41162723656E+02  0.90614451443E+02  0.68074519884E+02  0.12065223283E+03  0.41800000000E+01 0. -1.
        -11    1    4    4    0    0 -0.72936291778E+01  0.17390229255E+02 -0.57077283944E+01  0.19702671483E+02  0.00000000000E+00 0.  1.
         11    1    4    4    0    0  0.15032651602E+02 -0.86715804553E+02  0.36916008771E+02  0.95437954070E+02  0.00000000000E+00 0. -1.
</event>
<event>
 8    1  0.6906553E-009  0.8631959E+02  0.7561462E-02  0.1312017E+00
         -2   -1    0    0    0  501 -0.00000000000E+00  0.00000000000E+00  0.48482792242E+02  0.48482792242E+02  0.00000000000E+00 0.  1.
          2   -1    0    0  501    0  0.00000000000E+00 -0.00000000000E+00 -0.28124675707E+03  0.28124675707E+03  0.00000000000E+00 0. -1.
         25    2    1    2    0    0  0.32133719145E+02 -0.24219696700E+02 -0.14859123273E+03  0.19835909155E+03  0.12509118731E+03 0.  0.
         23    2    1    2    0    0 -0.32133719145E+02  0.24219696700E+02 -0.84172732095E+02  0.13137045776E+03  0.92487722040E+02 0.  0.
          5    1    3    3  502    0  0.56506598936E+02 -0.28580456082E+02 -0.18837372843E+02  0.66197864080E+02  0.41800000000E+01 0. -1.
         -5    1    3    3    0  502 -0.24372879791E+02  0.43607593826E+01 -0.12975385989E+03  0.13216122747E+03  0.41800000000E+01 0. -1.
        -11    1    4    4    0    0  0.12295264833E+02  0.36051397006E+02 -0.31614168441E+01  0.38221346390E+02  0.00000000000E+00 0.  1.
         11    1    4    4    0    0 -0.44428983978E+02 -0.11831700306E+02 -0.81011315251E+02  0.93149111365E+02  0.00000000000E+00 0. -1.
</event>
<event>
 8    1  0.6906553E-009  0.1200858E+03  0.7561462E-02  0.1242956E+00
          1   -1    0    0  501    0  0.00000000000E+00  0.00000000000E+00  0.10351487364E+04  0.10351487364E+04  0.00000000000E+00 0. -1.
         -1   -1    0    0    0  501 -0.00000000000E+00 -0.00000000000E+00 -0.14149879003E+02  0.14149879003E+02  0.00000000000E+00 0.  1.
         25    2    1    2    0    0  0.21461770535E+02 -0.48423116490E+02  0.54429188096E+03  0.56098707857E+03  0.12508974714E+03 0.  0.
         23    2    1    2    0    0 -0.21461770535E+02  0.48423116490E+02  0.47670697647E+03  0.48831153686E+03  0.91614462912E+02 0.  0.
          5    1    3    3  502    0  0.14863244200E+02 -0.90753277295E+02  0.34255072384E+03  0.35470486911E+03  0.41800000000E+01 0.  1.
         -5    1    3    3    0  502  0.65985263347E+01  0.42330160805E+02  0.20174115712E+03  0.20628220946E+03  0.41800000000E+01 0.  1.
        -11    1    4    4    0    0 -0.22515746599E+02 -0.23843973360E+02  0.17705704626E+03  0.18006857455E+03  0.00000000000E+00 0.  1.
         11    1    4    4    0    0  0.10539760639E+01  0.72267089850E+02  0.29964993021E+03  0.30824296231E+03  0.00000000000E+00 0. -1.
</event>
<event>
 8    1  0.6906553E-009  0.1155244E+03  0.7561462E-02  0.1250668E+00
          2   -1    0    0  501    0  0.00000000000E+00  0.00000000000E+00  0.48329630344E+02  0.48329630344E+02  0.00000000000E+00 0. -1.
         -2   -1    0    0    0  501 -0.00000000000E+00 -0.00000000000E+00 -0.40654533858E+03  0.40654533858E+03  0.00000000000E+00 0.  1.
         25    2    1    2    0    0 -0.23768751598E+02  0.83537292788E+02 -0.22494318239E+03  0.27164423855E+03  0.12509086376E+03 0.  0.
         23    2    1    2    0    0  0.23768751598E+02 -0.83537292788E+02 -0.13327252585E+03  0.18323073037E+03  0.90931301368E+02 0.  0.
          5    1    3    3  502    0 -0.44818051563E+02  0.64529158538E+02 -0.22950428536E+03  0.24261566199E+03  0.41800000000E+01 0. -1.
         -5    1    3    3    0  502  0.21049299966E+02  0.19008134250E+02  0.45611029681E+01  0.29028576558E+02  0.41800000000E+01 0. -1.
        -11    1    4    4    0    0  0.53106462203E+02 -0.77178149238E+02 -0.85645877756E+02  0.12693297217E+03  0.00000000000E+00 0.  1.
         11    1    4    4    0    0 -0.29337710605E+02 -0.63591435503E+01 -0.47626648093E+02  0.56297758204E+02  0.00000000000E+00 0. -1.
</event>
<event>
 8    1  0.6906553E-009  0.2056987E+03  0.7561462E-02  0.1145018E+00
          1   -1    0    0  501    0  0.00000000000E+00  0.00000000000E+00  0.45329709382E+03  0.45329709382E+03  0.00000000000E+00 0. -1.
         -1   -1    0    0    0  501 -0.00000000000E+00 -0.00000000000E+00 -0.10765443532E+03  0.10765443532E+03  0.00000000000E+00 0.  1.
         25    2    1    2    0    0  0.48627293729E+02 -0.18362080192E+03  0.14127552544E+03  0.26774305211E+03  0.12508539191E+03 0.  0.
         23    2    1    2    0    0 -0.48627293729E+02  0.18362080192E+03  0.20436713306E+03  0.29320847704E+03  0.90133641542E+02 0.  0.
          5    1    3    3  502    0  0.99798160984E+01  0.70732204102E+01 -0.13792273519E+02  0.18903078722E+02  0.41800000000E+01 0.  1.
         -5    1    3    3    0  502  0.38647477631E+02 -0.19069402233E+03  0.15506779896E+03  0.24883997339E+03  0.41800000000E+01 0.  1.
        -11    1    4    4    0    0 -0.24331444637E+02  0.17701179196E+03  0.19903780622E+03  0.26747194619E+03  0.00000000000E+00 0. -1.
         11    1    4    4    0    0 -0.24295849093E+02  0.66090099583E+01  0.53293268447E+01  0.25736530854E+02  0.00000000000E+00 0.  1.
</event>
<event>
 8    1  0.6906553E-009  0.8300552E+02  0.7561462E-02  0.1320732E+00
          2   -1    0    0  501    0  0.00000000000E+00  0.00000000000E+00  0.99003388475E+03  0.99003388475E+03  0.00000000000E+00 0. -1.
         -2   -1    0    0    0  501 -0.00000000000E+00 -0.00000000000E+00 -0.27480737760E+02  0.27480737760E+02  0.00000000000E+00 0.  1.
         25    2    1    2    0    0 -0.38739910126E+02 -0.33540669962E+02  0.86159242641E+03  0.87213274220E+03  0.12509297980E+03 0.  0.
         23    2    1    2    0    0  0.38739910126E+02  0.33540669962E+02  0.10096072058E+03  0.14538188031E+03  0.91197954165E+02 0.  0.
          5    1    3    3  502    0 -0.10493016555E+02 -0.30701006915E+02  0.48306675080E+02  0.58340915996E+02  0.41800000000E+01 0.  1.
         -5    1    3    3    0  502 -0.28246893571E+02 -0.28396630476E+01  0.81328575133E+03  0.81379182620E+03  0.41800000000E+01 0.  1.
        -11    1    4    4    0    0 -0.18440606401E+02  0.42868512220E+02  0.44330291171E+02  0.64365674235E+02  0.00000000000E+00 0.  1.
         11    1    4    4    0    0  0.57180516527E+02 -0.93278422581E+01  0.56630429411E+02  0.81016206075E+02  0.00000000000E+00 0. -1.
</event>
<event>
 8    1  0.6906553E-009  0.1050592E+03  0.7561462E-02  0.1270003E+00
         -1   -1    0    0    0  501 -0.00000000000E+00  0.00000000000E+00  0.30984014661E+03  0.30984014661E+03  0.00000000000E+00 0.  1.
          1   -1    0    0  501    0  0.00000000000E+00 -0.00000000000E+00 -0.40152158258E+02  0.40152158258E+02  0.00000000000E+00 0. -1.
         25    2    1    2    0    0  0.11491298201E+02  0.20920867334E+02  0.14174630706E+03  0.19055021904E+03  0.12509051837E+03 0.  0.
         23    2    1    2    0    0 -0.11491298201E+02 -0.20920867334E+02  0.12794168129E+03  0.15944208583E+03  0.92103052600E+02 0.  0.
          5    1    3    3  502    0  0.59990343048E+02 -0.18906906818E+02  0.56794569670E+02  0.84849324856E+02  0.41800000000E+01 0.  1.
         -5    1    3    3    0  502 -0.48499044847E+02  0.39827774152E+02  0.84951737393E+02  0.10570089418E+03  0.41800000000E+01 0.  1.
        -11    1    4    4    0    0  0.35697076856E+01  0.30446433430E+02  0.86421286128E+02  0.91697147271E+02  0.00000000000E+00 0.  1.
         11    1    4    4    0    0 -0.15061005887E+02 -0.51367300764E+02  0.41520395166E+02  0.67744938563E+02  0.00000000000E+00 0. -1.
</event>
<event>
 8    1  0.6906553E-009  0.7122941E+02  0.7561462E-02  0.1355962E+00
         -1   -1    0    0    0  501 -0.00000000000E+00  0.00000000000E+00  0.34838105173E+03  0.34838105173E+03  0.00000000000E+00 0.  1.
          1   -1    0    0  501    0  0.00000000000E+00 -0.00000000000E+00 -0.63615559014E+02  0.63615559014E+02  0.00000000000E+00 0. -1.
         25    2    1    2    0    0  0.34085299280E+02 -0.53902660738E+02  0.26700116883E+03  0.30166779759E+03  0.12508609628E+03 0.  0.
         23    2    1    2    0    0 -0.34085299280E+02  0.53902660738E+02  0.17764323879E+02  0.11032881315E+03  0.88258548292E+02 0.  0.
          5    1    3    3  502    0  0.23602489842E+02 -0.54465609672E+02  0.34283822919E+02  0.68676291962E+02  0.41800000000E+01 0. -1.
         -5    1    3    3    0  502  0.10482809438E+02  0.56294893433E+00  0.23271734591E+03  0.23299150563E+03  0.41800000000E+01 0. -1.
        -11    1    4    4    0    0  0.19854628073E+01  0.25931412213E+02  0.48685234156E+02  0.55196306278E+02  0.00000000000E+00 0.  1.
         11    1    4    4    0    0 -0.36070762087E+02  0.27971248525E+02 -0.30920910277E+02  0.55132506872E+02  0.00000000000E+00 0. -1.
</event>
<event>
 8    1  0.6906553E-009  0.1537724E+03  0.7561462E-02  0.1195913E+00
         -2   -1    0    0    0  501 -0.00000000000E+00  0.00000000000E+00  0.51013391132E+02  0.51013391132E+02  0.00000000000E+00 0.  1.
          2   -1    0    0  501    0  0.00000000000E+00 -0.00000000000E+00 -0.64276801187E+03  0.64276801187E+03  0.00000000000E+00 0. -1.
         25    2    1    2    0    0  0.51871656301E+02  0.10680889041E+03 -0.15373660229E+03  0.23104386619E+03  0.12509003726E+03 0.  0.
         23    2    1    2    0    0 -0.51871656301E+02 -0.10680889041E+03 -0.43801801844E+03  0.46273753681E+03  0.90373866210E+02 0.  0.
          5    1    3    3  502    0  0.98798308266E+01  0.11836316102E+03 -0.14309883913E+03  0.18601666351E+03  0.41800000000E+01 0. -1.
         -5    1    3    3    0  502  0.41991825474E+02 -0.11554270611E+02 -0.10637763160E+02  0.45027202679E+02  0.41800000000E+01 0. -1.
        -11    1    4    4    0    0  0.18066649909E+02 -0.55042296252E+02 -0.12361953434E+03  0.13652050207E+03  0.00000000000E+00 0.  1.
         11    1    4    4    0    0 -0.69938306210E+02 -0.51766594155E+02 -0.31439848410E+03  0.32621703474E+03  0.00000000000E+00 0. -1.
</event>
<event>
 8    1  0.6906553E-009  0.1042527E+03  0.7561462E-02  0.1271599E+00
         -1   -1    0    0    0  501 -0.00000000000E+00  0.00000000000E+00  0.60459985450E+02  0.60459985450E+02  0.00000000000E+00 0.  1.
          1   -1    0    0  501    0  0.00000000000E+00 -0.00000000000E+00 -0.22784722388E+03  0.22784722388E+03  0.00000000000E+00 0. -1.
         25    2    1    2    0    0  0.19958372113E+02 -0.47053341851E+02 -0.10096826886E+03  0.16868339020E+03  0.12508853352E+03 0.  0.
         23    2    1    2    0    0 -0.19958372113E+02  0.47053341851E+02 -0.66418969570E+02  0.11962381912E+03  0.85358215693E+02 0.  0.
          5    1    3    3  502    0 -0.10032593530E+02  0.38993863523E+02 -0.49503449614E+02  0.63947152002E+02  0.41800000000E+01 0. -1.
         -5    1    3    3    0  502  0.29990965643E+02 -0.86047205374E+02 -0.51464819242E+02  0.10473623820E+03  0.41800000000E+01 0. -1.
        -11    1    4    4    0    0 -0.27440518607E+02  0.57641768291E+02 -0.13646901842E+02  0.65282412968E+02  0.00000000000E+00 0.  1.
         11    1    4    4    0    0  0.74821464943E+01 -0.10588426440E+02 -0.52772067728E+02  0.54341406155E+02  0.00000000000E+00 0. -1.
</event>
<event>
 8    1  0.6906553E-009  0.1732405E+03  0.7561462E-02  0.1174510E+00
         -1   -1    0    0    0  501 -0.00000000000E+00  0.00000000000E+00  0.53211508474E+02  0.53211508474E+02  0.00000000000E+00 0.  1.
          1   -1    0    0  501    0  0.00000000000E+00 -0.00000000000E+00 -0.75842398576E+03  0.75842398576E+03  0.00000000000E+00 0. -1.
         25    2    1    2    0    0 -0.80536358245E+02  0.13898091645E+03 -0.46996251157E+03  0.51216288309E+03  0.12507700188E+03 0.  0.
         23    2    1    2    0    0  0.80536358245E+02 -0.13898091645E+03 -0.23524996571E+03  0.29947261114E+03  0.92409406014E+02 0.  0.
          5    1    3    3  502    0 -0.53168130372E+02  0.14651650160E+03 -0.28388285477E+03  0.32388405790E+03  0.41800000000E+01 0. -1.
         -5    1    3    3    0  502 -0.27368227873E+02 -0.75355851548E+01 -0.18607965680E+03  0.18827882520E+03  0.41800000000E+01 0. -1.
        -11    1    4    4    0    0  0.21079906795E+02 -0.55573384474E+02 -0.16470198297E+03  0.17509856289E+03  0.00000000000E+00 0. -1.
         11    1    4    4    0    0  0.59456451450E+02 -0.83407531973E+02 -0.70547982742E+02  0.12437404825E+03  0.00000000000E+00 0.  1.
</event>
<event>
 8    1  0.6906553E-009  0.6889183E+02  0.7561462E-02  0.1363902E+00
          1   -1    0    0  501    0  0.00000000000E+00  0.00000000000E+00  0.18023447649E+03  0.18023447649E+03  0.00000000000E+00 0. -1.
         -1   -1    0    0    0  501 -0.00000000000E+00 -0.00000000000E+00 -0.70755820210E+02  0.70755820210E+02  0.00000000000E+00 0.  1.
         25    2    1    2    0    0  0.33181138796E+02  0.29455829974E+01  0.71094961655E+02  0.14768771277E+03  0.12508997761E+03 0.  0.
         23    2    1    2    0    0 -0.33181138796E+02 -0.29455829974E+01  0.38383694620E+02  0.10330258393E+03  0.89935818240E+02 0.  0.
          5    1    3    3  502    0 -0.48082196651E+01  0.41627800916E+01 -0.34527721125E+02  0.35356521896E+02  0.41800000000E+01 0.  1.
         -5    1    3    3    0  502  0.37989358461E+02 -0.12171970942E+01  0.10562268278E+03  0.11233119087E+03  0.41800000000E+01 0.  1.
        -11    1    4    4    0    0 -0.58913733042E+02 -0.18642294480E+02  0.39149133679E+02  0.73150651072E+02  0.00000000000E+00 0.  1.
         11    1    4    4    0    0  0.25732594246E+02  0.15696711483E+02 -0.76543905843E+00  0.30151932856E+02  0.00000000000E+00 0. -1.
</event>
<event>
 8    1  0.6906553E-009  0.1117901E+03  0.7561462E-02  0.1257290E+00
         -2   -1    0    0    0  501 -0.00000000000E+00  0.00000000000E+00  0.12412304125E+03  0.12412304125E+03  0.00000000000E+00 0.  1.
          2   -1    0    0  501    0  0.00000000000E+00 -0.00000000000E+00 -0.14565807773E+03  0.14565807773E+03  0.00000000000E+00 0. -1.
         25    2    1    2    0    0 -0.69307287180E+02  0.18440644511E+02  0.20913901908E+02  0.14568806017E+03  0.12507622538E+03 0.  0.
         23    2    1    2    0    0  0.69307287180E+02 -0.18440644511E+02 -0.42448938395E+02  0.12409305881E+03  0.91943555774E+02 0.  0.
          5    1    3    3  502    0  0.24693575357E+02  0.16203074720E+02 -0.26857217419E+02  0.40138445683E+02  0.41800000000E+01 0.  1.
         -5    1    3    3    0  502 -0.94000862538E+02  0.22375697907E+01  0.47771119327E+02  0.10554961449E+03  0.41800000000E+01 0.  1.
        -11    1    4    4    0    0 -0.48365756002E+01  0.16839991242E+02  0.15661741618E+02  0.23500381253E+02  0.00000000000E+00 0.  1.
         11    1    4    4    0    0  0.74143862781E+02 -0.35280635752E+02 -0.58110680012E+02  0.10059267756E+03  0.00000000000E+00 0. -1.
</event>
<event>
 8    1  0.6906553E-009  0.9166477E+02  0.7561462E-02  0.1298870E+00
         -2   -1    0    0    0  501 -0.00000000000E+00  0.00000000000E+00  0.91625018069E+02  0.91625018069E+02  0.00000000000E+00 0.  1.
          2   -1    0    0  501    0  0.00000000000E+00 -0.00000000000E+00 -0.17163372100E+03  0.17163372100E+03  0.00000000000E+00 0. -1.
         25    2    1    2    0    0 -0.24745789310E+01 -0.47716171842E+02 -0.54149251096E+01  0.13401265440E+03  0.12508842285E+03 0.  0.
         23    2    1    2    0    0  0.24745789310E+01  0.47716171842E+02 -0.74593777826E+02  0.12924608467E+03  0.94113559682E+02 0.  0.
          5    1    3    3  502    0  0.26764113818E+02 -0.79195958470E+01 -0.56302282497E+02  0.62979815824E+02  0.41800000000E+01 0.  1.
         -5    1    3    3    0  502 -0.29238692749E+02 -0.39796575995E+02  0.50887357388E+02  0.71032838578E+02  0.41800000000E+01 0.  1.
        -11    1    4    4    0    0 -0.34913589340E+02  0.57165328819E+02 -0.47237347082E+02  0.81964629560E+02  0.00000000000E+00 0. -1.
         11    1    4    4    0    0  0.37388168271E+02 -0.94491569770E+01 -0.27356430744E+02  0.47281455110E+02  0.00000000000E+00 0.  1.
</event>
<event>
 8    1  0.6906553E-009  0.2998320E+03  0.7561462E-02  0.1085325E+00
          2   -1    0    0  501    0  0.00000000000E+00  0.00000000000E+00  0.46897275383E+03  0.46897275383E+03  0.00000000000E+00 0. -1.
         -2   -1    0    0    0  501 -0.00000000000E+00 -0.00000000000E+00 -0.27352965061E+03  0.27352965061E+03  0.00000000000E+00 0.  1.
         25    2    1    2    0    0  0.27798904341E+03 -0.10802059321E+03  0.27081473675E+03  0.42182273743E+03  0.12508974123E+03 0.  0.
         23    2    1    2    0    0 -0.27798904341E+03  0.10802059321E+03 -0.75371633522E+02  0.32067966701E+03  0.90599166005E+02 0.  0.
          5    1    3    3  502    0  0.24163686751E+03 -0.99848943863E+02  0.28011114260E+03  0.38319435270E+03  0.41800000000E+01 0.  1.
         -5    1    3    3    0  502  0.36352175900E+02 -0.81716493449E+01 -0.92964058489E+01  0.38628384737E+02  0.41800000000E+01 0.  1.
        -11    1    4    4    0    0 -0.16719575624E+03  0.44682148939E+02 -0.11930747765E+01  0.17306743993E+03  0.00000000000E+00 0. -1.
         11    1    4    4    0    0 -0.11079328717E+03  0.63338444269E+02 -0.74178558746E+02  0.14761222708E+03  0.00000000000E+00 0.  1.
</event>
<event>
 8    1  0.6906553E-009  0.1100717E+03  0.7561462E-02  0.1260437E+00
          1   -1    0    0  501    0  0.00000000000E+00  0.00000000000E+00  0.17945169822E+03  0.17945169822E+03  0.00000000000E+00 0. -1.
         -1   -1    0    0    0  501 -0.00000000000E+00 -0.00000000000E+00 -0.74080549819E+02  0.74080549819E+02  0.00000000000E+00 0.  1.
         25    2    1    2    0    0 -0.22824738985E+02  0.34488290270E-01  0.68622871869E+02  0.14449021419E+03  0.12508938226E+03 0.  0.
         23    2    1    2    0    0  0.22824738985E+02 -0.34488290270E-01  0.36748276533E+02  0.10904203385E+03  0.10009375314E+03 0.  0.
          5    1    3    3  502    0  0.43382367589E+02  0.29652240141E+02  0.17075738788E+02  0.55410634522E+02  0.41800000000E+01 0. -1.
         -5    1    3    3    0  502 -0.66207106574E+02 -0.29617751850E+02  0.51547133081E+02  0.89079579671E+02  0.41800000000E+01 0. -1.
        -11    1    4    4    0    0 -0.27013636428E+02 -0.26932429965E+02  0.35929555566E+02  0.52402531429E+02  0.00000000000E+00 0.  1.
         11    1    4    4    0    0  0.49838375413E+02  0.26897941675E+02  0.81872096678E+00  0.56639502419E+02  0.00000000000E+00 0. -1.
</event>
<event>
 8    1  0.6906553E-009  0.1108655E+03  0.7561462E-02  0.1258976E+00
          2   -1    0    0  501    0  0.00000000000E+00  0.00000000000E+00  0.72093159854E+03  0.72093159854E+03  0.00000000000E+00 0. -1.
         -2   -1    0    0    0  501 -0.00000000000E+00 -0.00000000000E+00 -0.17332679420E+02  0.17332679420E+02  0.00000000000E+00 0.  1.
         25    2    1    2    0    0  0.26570292891E+02 -0.15734898750E+02  0.40206561224E+03  0.42220572252E+03  0.12508936038E+03 0.  0.
         23    2    1    2    0    0 -0.26570292891E+02  0.15734898750E+02  0.30153330688E+03  0.31605855544E+03  0.89538303570E+02 0.  0.
          5    1    3    3  502    0 -0.50329150963E+02 -0.10215550342E+02  0.16948935656E+03  0.17714822972E+03  0.41800000000E+01 0.  1.
         -5    1    3    3    0  502  0.76899443854E+02 -0.55193484075E+01  0.23257625568E+03  0.24505749280E+03  0.41800000000E+01 0.  1.
        -11    1    4    4    0    0  0.22563506604E+01  0.48957670315E+02  0.18854344154E+03  0.19480907050E+03  0.00000000000E+00 0. -1.
         11    1    4    4    0    0 -0.28826643551E+02 -0.33222771566E+02  0.11298986534E+03  0.12124948494E+03  0.00000000000E+00 0.  1.
</event>
<event>
 8    1  0.6906553E-009  0.1210774E+03  0.7561462E-02  0.1241330E+00
          1   -1    0    0  501    0  0.00000000000E+00  0.00000000000E+00  0.22760664750E+03  0.22760664750E+03  0.00000000000E+00 0. -1.
         -1   -1    0    0    0  501 -0.00000000000E+00 -0.00000000000E+00 -0.73248913115E+02  0.73248913115E+02  0.00000000000E+00 0.  1.
         25    2    1    2    0    0 -0.16590415666E+02 -0.65620607166E+02  0.73084675673E+02  0.15990055324E+03  0.12508201762E+03 0.  0.
         23    2    1    2    0    0  0.16590415666E+02  0.65620607166E+02  0.81273058708E+02  0.14095500737E+03  0.93175630154E+02 0.  0.
          5    1    3    3  502    0  0.28056617668E+02 -0.84617711648E+02  0.27999332272E+02  0.93534838040E+02  0.41800000000E+01 0.  1.
         -5    1    3    3    0  502 -0.44647033334E+02  0.18997104482E+02  0.45085343400E+02  0.66365715198E+02  0.41800000000E+01 0.  1.
        -11    1    4    4    0    0  0.46800111000E+02  0.54929629043E+02  0.81568621602E+02  0.10890800965E+03  0.00000000000E+00 0. -1.
         11    1    4    4    0    0 -0.30209695334E+02  0.10690978123E+02 -0.29556289450E+00  0.32046997719E+02  0.00000000000E+00 0.  1.
</event>
<event>
 8    1  0.6906553E-009  0.1191586E+03  0.7561462E-02  0.1244492E+00
          2   -1    0    0  501    0  0.00000000000E+00  0.00000000000E+00  0.91009841417E+03  0.91009841417E+03  0.00000000000E+00 0.  1.
         -2   -1    0    0    0  501 -0.00000000000E+00 -0.00000000000E+00 -0.16750739955E+02  0.16750739955E+02  0.00000000000E+00 0. -1.
         25    2    1    2    0    0  0.44186858010E+02  0.36532761689E+02  0.54441179278E+03  0.56153111290E+03  0.12508345032E+03 0.  0.
         23    2    1    2    0    0 -0.44186858010E+02 -0.36532761689E+02  0.34893588143E+03  0.36531804122E+03  0.91727317587E+02 0.  0.
          5    1    3    3  502    0  0.13089912226E+02 -0.44141006693E+02  0.26553506962E+03  0.26952944157E+03  0.41800000000E+01 0.  1.
         -5    1    3    3    0  502  0.31096945784E+02  0.80673768382E+02  0.27887672316E+03  0.29200167133E+03  0.41800000000E+01 0.  1.
        -11    1    4    4    0    0  0.26615205091E+02 -0.18654853113E+02  0.73485101333E+02  0.80351930933E+02  0.00000000000E+00 0. -1.
         11    1    4    4    0    0 -0.70802063101E+02 -0.17877908576E+02  0.27545078010E+03  0.28496611029E+03  0.00000000000E+00 0.  1.
</event>
<event>
 8    1  0.6906553E-009  0.1425377E+03  0.7561462E-02  0.1209954E+00
         -1   -1    0    0    0  501 -0.00000000000E+00  0.00000000000E+00  0.54420760324E+02  0.54420760324E+02  0.00000000000E+00 0.  1.
          1   -1    0    0  501    0  0.00000000000E+00 -0.00000000000E+00 -0.51820458322E+03  0.51820458322E+03  0.00000000000E+00 0. -1.
         25    2    1    2    0    0 -0.94714124532E+01  0.12580740226E+03 -0.27664564767E+03  0.32878070384E+03  0.12508687672E+03 0.  0.
         23    2    1    2    0    0  0.94714124532E+01 -0.12580740226E+03 -0.18713817523E+03  0.24384463970E+03  0.92316312577E+02 0.  0.
          5    1    3    3  502    0 -0.12830953208E+02  0.20721009283E+02 -0.19241321264E+03  0.19399564527E+03  0.41800000000E+01 0.  1.
         -5    1    3    3    0  502  0.33595407543E+01  0.10508639297E+03 -0.84232435028E+02  0.13478505857E+03  0.41800000000E+01 0.  1.
        -11    1    4    4    0    0  0.46253642230E+02 -0.10003835338E+03 -0.14609143555E+03  0.18300212870E+03  0.00000000000E+00 0. -1.
         11    1    4    4    0    0 -0.36782229776E+02 -0.25769048881E+02 -0.41046739672E+02  0.60842511004E+02  0.00000000000E+00 0.  1.
</event>
<event>
 8    1  0.6906553E-009  0.2392447E+03  0.7561462E-02  0.1120297E+00
         -1   -1    0    0    0  501 -0.00000000000E+00  0.00000000000E+00  0.18735126636E+03  0.18735126636E+03  0.00000000000E+00 0.  1.
          1   -1    0    0  501    0  0.00000000000E+00 -0.00000000000E+00 -0.33748947775E+03  0.33748947775E+03  0.00000000000E+00 0. -1.
         25    2    1    2    0    0  0.22053930506E+03  0.41922916797E+02 -0.46789760317E+02  0.26120532198E+03  0.12507526747E+03 0.  0.
         23    2    1    2    0    0 -0.22053930506E+03 -0.41922916797E+02 -0.10334845107E+03  0.26363542212E+03  0.91802055695E+02 0.  0.
          5    1    3    3  502    0  0.24284629673E+02 -0.32100051656E+02  0.13937863822E+02  0.42800619185E+02  0.41800000000E+01 0.  1.
         -5    1    3    3    0  502  0.19625467538E+03  0.74022968453E+02 -0.60727624139E+02  0.21840470279E+03  0.41800000000E+01 0.  1.
        -11    1    4    4    0    0 -0.19438260832E+03 -0.22563187606E+02 -0.51382429371E+02  0.20232115535E+03  0.00000000000E+00 0.  1.
         11    1    4    4    0    0 -0.26156696736E+02 -0.19359729191E+02 -0.51966021703E+02  0.61314266774E+02  0.00000000000E+00 0. -1.
</event>
<event>
 8    1  0.6906553E-009  0.1329392E+03  0.7561462E-02  0.1223158E+00
         -3   -1    0    0    0  501 -0.00000000000E+00  0.00000000000E+00  0.20961282341E+03  0.20961282341E+03  0.00000000000E+00 0.  1.
          3   -1    0    0  501    0  0.00000000000E+00 -0.00000000000E+00 -0.12474688214E+03  0.12474688214E+03  0.00000000000E+00 0. -1.
         25    2    1    2    0    0  0.86606149724E+02 -0.35612144831E+02  0.12330729318E+03  0.19905128854E+03  0.12509147410E+03 0.  0.
         23    2    1    2    0    0 -0.86606149724E+02  0.35612144831E+02 -0.38441351910E+02  0.13530841700E+03  0.89787416408E+02 0.  0.
          5    1    3    3  502    0  0.73911796445E+02  0.34312693525E+02  0.86487077056E+02  0.11890248731E+03  0.41800000000E+01 0. -1.
         -5    1    3    3    0  502  0.12694353278E+02 -0.69924838356E+02  0.36820216120E+02  0.80148801235E+02  0.41800000000E+01 0. -1.
        -11    1    4    4    0    0 -0.60920613708E+02 -0.90322711189E+01  0.12526367422E+02  0.62847537557E+02  0.00000000000E+00 0.  1.
         11    1    4    4    0    0 -0.25685536015E+02  0.44644415950E+02 -0.50967719332E+02  0.72460879444E+02  0.00000000000E+00 0. -1.
</event>
<event>
 8    1  0.6906553E-009  0.1570498E+03  0.7561462E-02  0.1192068E+00
         -1   -1    0    0    0  501 -0.00000000000E+00  0.00000000000E+00  0.67660235289E+02  0.67660235289E+02  0.00000000000E+00 0. -1.
          1   -1    0    0  501    0  0.00000000000E+00 -0.00000000000E+00 -0.42302300396E+03  0.42302300396E+03  0.00000000000E+00 0.  1.
         25    2    1    2    0    0  0.73657734841E+02  0.92742364310E+02 -0.10925006209E+03  0.20398218215E+03  0.12508615642E+03 0.  0.
         23    2    1    2    0    0 -0.73657734841E+02 -0.92742364310E+02 -0.24611270658E+03  0.28670105710E+03  0.87174673847E+02 0.  0.
          5    1    3    3  502    0 -0.27719124971E+02  0.49715764395E+02 -0.15112764856E+02  0.59041300630E+02  0.41800000000E+01 0.  1.
         -5    1    3    3    0  502  0.10137685981E+03  0.43026599915E+02 -0.94137297230E+02  0.14494088152E+03  0.41800000000E+01 0.  1.
        -11    1    4    4    0    0 -0.51042359526E+02  0.32215392276E+00 -0.77864343537E+02  0.93103610261E+02  0.00000000000E+00 0. -1.
         11    1    4    4    0    0 -0.22615375314E+02 -0.93064518232E+02 -0.16824836305E+03  0.19359744684E+03  0.00000000000E+00 0.  1.
</event>
<event>
 8    1  0.6906553E-009  0.1157002E+03  0.7561462E-02  0.1250364E+00
          2   -1    0    0  501    0  0.00000000000E+00  0.00000000000E+00  0.12045008024E+03  0.12045008024E+03  0.00000000000E+00 0. -1.
         -2   -1    0    0    0  501 -0.00000000000E+00 -0.00000000000E+00 -0.11205606886E+03  0.11205606886E+03  0.00000000000E+00 0.  1.
         25    2    1    2    0    0 -0.15375081535E+02 -0.38667244416E+02  0.70314722897E+01  0.13201155479E+03  0.12508421193E+03 0.  0.
         23    2    1    2    0    0  0.15375081535E+02  0.38667244416E+02  0.13625390860E+01  0.10049459431E+03  0.91464517983E+02 0.  0.
          5    1    3    3  502    0 -0.57078156687E+02  0.18405728486E+02 -0.44294531665E+01  0.60280836650E+02  0.41800000000E+01 0. -1.
         -5    1    3    3    0  502  0.41703075152E+02 -0.57072972903E+02  0.11460925456E+02  0.71730718143E+02  0.41800000000E+01 0. -1.
        -11    1    4    4    0    0  0.42646788417E+02 -0.10794294613E+02  0.13651855872E+01  0.44012828700E+02  0.00000000000E+00 0.  1.
         11    1    4    4    0    0 -0.27271706882E+02  0.49461539029E+02 -0.26465012580E-02  0.56481765610E+02  0.00000000000E+00 0. -1.
</event>
<event>
 8    1  0.6906553E-009  0.1171333E+03  0.7561462E-02  0.1247903E+00
         -2   -1    0    0    0  501 -0.00000000000E+00  0.00000000000E+00  0.31692837104E+02  0.31692837104E+02  0.00000000000E+00 0.  1.
          2   -1    0    0  501    0  0.00000000000E+00 -0.00000000000E+00 -0.46904933066E+03  0.46904933066E+03  0.00000000000E+00 0. -1.
         25    2    1    2    0    0  0.47404700472E+02  0.13956444658E+02 -0.30103606060E+03  0.32971059303E+03  0.12507748558E+03 0.  0.
         23    2    1    2    0    0 -0.47404700472E+02 -0.13956444658E+02 -0.13632043296E+03  0.17103157474E+03  0.90700337050E+02 0.  0.
          5    1    3    3  502    0 -0.21037619336E+01 -0.51750359421E+02 -0.12402559200E+03  0.13447061161E+03  0.41800000000E+01 0. -1.
         -5    1    3    3    0  502  0.49508462405E+02  0.65706804079E+02 -0.17701046859E+03  0.19523998142E+03  0.41800000000E+01 0. -1.
        -11    1    4    4    0    0 -0.62696999995E+01  0.35243981399E+02 -0.29265428125E+02  0.46237567478E+02  0.00000000000E+00 0.  1.
         11    1    4    4    0    0 -0.41135000472E+02 -0.49200426057E+02 -0.10705500484E+03  0.12479400726E+03  0.00000000000E+00 0. -1.
</event>
<event>
 8    1  0.6906553E-009  0.7585632E+02  0.7561462E-02  0.1341240E+00
         -3   -1    0    0    0  501 -0.00000000000E+00  0.00000000000E+00  0.63803738662E+03  0.63803738662E+03  0.00000000000E+00 0.  1.
          3   -1    0    0  501    0  0.00000000000E+00 -0.00000000000E+00 -0.23838087475E+02  0.23838087475E+02  0.00000000000E+00 0. -1.
         25    2    1    2    0    0 -0.42004449155E+01  0.34730571373E+02  0.47280283163E+03  0.49032277439E+03  0.12510015651E+03 0.  0.
         23    2    1    2    0    0  0.42004449155E+01 -0.34730571373E+02  0.14139646751E+03  0.17155269970E+03  0.90628425044E+02 0.  0.
          5    1    3    3  502    0 -0.80667370307E+01  0.43357923133E+02  0.47713766056E+02  0.65108045708E+02  0.41800000000E+01 0. -1.
         -5    1    3    3    0  502  0.38662921151E+01 -0.86273517602E+01  0.42508906558E+03  0.42521472868E+03  0.41800000000E+01 0. -1.
        -11    1    4    4    0    0  0.46033790974E+01  0.31002205883E+02  0.48732182205E+02  0.57940947966E+02  0.00000000000E+00 0.  1.
         11    1    4    4    0    0 -0.40293418186E+00 -0.65732777256E+02  0.92664285303E+02  0.11361175174E+03  0.00000000000E+00 0. -1.
</event>
<event>
 8    1  0.6906553E-009  0.9538350E+02  0.7561462E-02  0.1290315E+00
          2   -1    0    0  501    0  0.00000000000E+00  0.00000000000E+00  0.43785428838E+03  0.43785428838E+03  0.00000000000E+00 0.  1.
         -2   -1    0    0    0  501 -0.00000000000E+00 -0.00000000000E+00 -0.34560669489E+02  0.34560669489E+02  0.00000000000E+00 0. -1.
         25    2    1    2    0    0 -0.18040850606E+02  0.53798690110E+02  0.21272046724E+03  0.25321184286E+03  0.12508584587E+03 0.  0.
         23    2    1    2    0    0  0.18040850606E+02 -0.53798690110E+02  0.19057315166E+03  0.21920311501E+03  0.92261086864E+02 0.  0.
          5    1    3    3  502    0  0.41994942070E+02  0.92609482288E+01  0.22343243863E+02  0.48641887997E+02  0.41800000000E+01 0. -1.
         -5    1    3    3    0  502 -0.60035792676E+02  0.44537741881E+02  0.19037722337E+03  0.20456995486E+03  0.41800000000E+01 0. -1.
        -11    1    4    4    0    0  0.95500460079E+01 -0.60886529546E+02  0.19699695686E+03  0.20641263011E+03  0.00000000000E+00 0.  1.
         11    1    4    4    0    0  0.84908045978E+01  0.70878394357E+01 -0.64238052025E+01  0.12790484896E+02  0.00000000000E+00 0. -1.
</event>
<event>
 8    1  0.6906553E-009  0.1386599E+03  0.7561462E-02  0.1215144E+00
         -1   -1    0    0    0  501 -0.00000000000E+00  0.00000000000E+00  0.64716012501E+02  0.64716012501E+02  0.00000000000E+00 0.  1.
          1   -1    0    0  501    0  0.00000000000E+00 -0.00000000000E+00 -0.32966550507E+03  0.32966550507E+03  0.00000000000E+00 0. -1.
         25    2    1    2    0    0 -0.47596756308E+02 -0.85672153155E+02 -0.13113002113E+03  0.20603059826E+03  0.12509338887E+03 0.  0.
         23    2    1    2    0    0  0.47596756308E+02  0.85672153155E+02 -0.13381947143E+03  0.18835091931E+03  0.89237037339E+02 0.  0.
          5    1    3    3  502    0  0.25066136690E+02 -0.81300351201E+02 -0.81019532064E+02  0.11755720008E+03  0.41800000000E+01 0.  1.
         -5    1    3    3    0  502 -0.72662892997E+02 -0.43718019536E+01 -0.50110489070E+02  0.88473398182E+02  0.41800000000E+01 0.  1.
        -11    1    4    4    0    0 -0.10211910698E+02  0.50578750626E+02 -0.10047566888E+03  0.11295066699E+03  0.00000000000E+00 0. -1.
         11    1    4    4    0    0  0.57808667006E+02  0.35093402529E+02 -0.33343802550E+02  0.75400252325E+02  0.00000000000E+00 0.  1.
</event>
<event>
 8    1  0.6906553E-009  0.9825113E+02  0.7561462E-02  0.1284017E+00
         -1   -1    0    0    0  501 -0.00000000000E+00  0.00000000000E+00  0.11125827534E+03  0.11125827534E+03  0.00000000000E+00 0.  1.
          1   -1    0    0  501    0  0.00000000000E+00 -0.00000000000E+00 -0.15421927765E+03  0.15421927765E+03  0.00000000000E+00 0. -1.
         25    2    1    2    0    0 -0.61866088228E+02  0.31748508308E+02 -0.51405175848E+01  0.14320852289E+03  0.12508747121E+03 0.  0.
         23    2    1    2    0    0  0.61866088228E+02 -0.31748508308E+02 -0.37820484725E+02  0.12226903010E+03  0.93187692342E+02 0.  0.
          5    1    3    3  502    0 -0.15750825472E+02  0.35161172301E+02 -0.59944568540E+02  0.71380811414E+02  0.41800000000E+01 0. -1.
         -5    1    3    3    0  502 -0.46115262756E+02 -0.34126639939E+01  0.54804050955E+02  0.71827711475E+02  0.41800000000E+01 0. -1.
        -11    1    4    4    0    0 -0.20376164188E+02 -0.19436554623E+02  0.52087581023E+01  0.28637368657E+02  0.00000000000E+00 0.  1.
         11    1    4    4    0    0  0.82242252416E+02 -0.12311953684E+02 -0.43029242828E+02  0.93631661441E+02  0.00000000000E+00 0. -1.
</event>
<event>
 8    1  0.6906553E-009  0.1076861E+03  0.7561462E-02  0.1264916E+00
          1   -1    0    0  501    0  0.00000000000E+00  0.00000000000E+00  0.72319576274E+03  0.72319576274E+03  0.00000000000E+00 0.  1.
         -1   -1    0    0    0  501 -0.00000000000E+00 -0.00000000000E+00 -0.23546383076E+02  0.23546383076E+02  0.00000000000E+00 0. -1.
         25    2    1    2    0    0 -0.39283419775E+02 -0.22166604141E+02  0.54532613312E+03  0.56130473385E+03  0.12509143605E+03 0.  0.
         23    2    1    2    0    0  0.39283419775E+02  0.22166604141E+02  0.15432324654E+03  0.18543741196E+03  0.92394934513E+02 0.  0.
          5    1    3    3  502    0  0.32731365923E+02  0.21180527801E+02  0.28573025414E+03  0.28840805745E+03  0.41800000000E+01 0.  1.
         -5    1    3    3    0  502 -0.72014785698E+02 -0.43347131941E+02  0.25959587898E+03  0.27289667640E+03  0.41800000000E+01 0.  1.
        -11    1    4    4    0    0  0.40835969103E+02 -0.22961820369E+02  0.36914715370E+02  0.59644930867E+02  0.00000000000E+00 0. -1.
         11    1    4    4    0    0 -0.15525493283E+01  0.45128424509E+02  0.11740853117E+03  0.12579248110E+03  0.00000000000E+00 0.  1.
</event>
<event>
 8    1  0.6906553E-009  0.1141037E+03  0.7561462E-02  0.1253154E+00
         -4   -1    0    0    0  501 -0.00000000000E+00  0.00000000000E+00  0.27432368451E+03  0.27432368451E+03  0.00000000000E+00 0.  1.
          4   -1    0    0  501    0  0.00000000000E+00 -0.00000000000E+00 -0.78759512243E+02  0.78759512243E+02  0.00000000000E+00 0. -1.
         25    2    1    2    0    0  0.36971321687E+02  0.54565635162E+02  0.17718504834E+02  0.14249784656E+03  0.12508958267E+03 0.  0.
         23    2    1    2    0    0 -0.36971321687E+02 -0.54565635162E+02  0.17784566744E+03  0.21058535019E+03  0.91503120833E+02 0.  0.
          5    1    3    3  502    0  0.42733310668E+02  0.89191552879E+02  0.32492125411E+02  0.10418483363E+03  0.41800000000E+01 0.  1.
         -5    1    3    3    0  502 -0.57619889812E+01 -0.34625917717E+02 -0.14773620577E+02  0.38313012929E+02  0.41800000000E+01 0.  1.
        -11    1    4    4    0    0 -0.33556248875E+02 -0.70230792371E+02  0.17829674337E+03  0.19454591934E+03  0.00000000000E+00 0.  1.
         11    1    4    4    0    0 -0.34150728127E+01  0.15665157209E+02 -0.45107593004E+00  0.16039430856E+02  0.00000000000E+00 0. -1.
</event>
<event>
 8    1  0.6906553E-009  0.1248665E+03  0.7561462E-02  0.1235278E+00
          2   -1    0    0  501    0  0.00000000000E+00  0.00000000000E+00  0.37729913846E+03  0.37729913846E+03  0.00000000000E+00 0. -1.
         -2   -1    0    0    0  501 -0.00000000000E+00 -0.00000000000E+00 -0.96650457467E+02  0.96650457467E+02  0.00000000000E+00 0.  1.
         25    2    1    2    0    0 -0.22870793961E+02  0.64317370513E+02 -0.27955994372E+02  0.14522217303E+03  0.12509254395E+03 0.  0.
         23    2    1    2    0    0  0.22870793961E+02 -0.64317370513E+02  0.30860467536E+03  0.32872742290E+03  0.90360807564E+02 0.  0.
          5    1    3    3  502    0 -0.73349860095E+02  0.47647219603E+02 -0.27879023102E+02  0.91897616079E+02  0.41800000000E+01 0.  1.
         -5    1    3    3    0  502  0.50479066134E+02  0.16670150910E+02 -0.76971270462E-01  0.53324556948E+02  0.41800000000E+01 0.  1.
        -11    1    4    4    0    0  0.37944644924E+02 -0.79099222405E+02  0.27825116094E+03  0.29175364887E+03  0.00000000000E+00 0. -1.
         11    1    4    4    0    0 -0.15073850963E+02  0.14781851892E+02  0.30353514423E+02  0.36973774031E+02  0.00000000000E+00 0.  1.
</event>
<event>
 8    1  0.6906553E-009  0.8133438E+02  0.7561462E-02  0.1325307E+00
          1   -1    0    0  501    0  0.00000000000E+00  0.00000000000E+00  0.42592864005E+02  0.42592864005E+02  0.00000000000E+00 0. -1.
         -1   -1    0    0    0  501 -0.00000000000E+00 -0.00000000000E+00 -0.29465467698E+03  0.29465467698E+03  0.00000000000E+00 0.  1.
         25    2    1    2    0    0  0.18669246947E+02  0.21088403575E+02 -0.14088648772E+03  0.19049865254E+03  0.12508985830E+03 0.  0.
         23    2    1    2    0    0 -0.18669246947E+02 -0.21088403575E+02 -0.11117532525E+03  0.14674888845E+03  0.91553382070E+02 0.  0.
          5    1    3    3  502    0  0.11904843149E+02  0.43693026878E+02 -0.15578146068E+03  0.16228413902E+03  0.41800000000E+01 0. -1.
         -5    1    3    3    0  502  0.67644037987E+01 -0.22604623303E+02  0.14894972955E+02  0.28214513513E+02  0.41800000000E+01 0. -1.
        -11    1    4    4    0    0  0.12773655951E+02 -0.49334295153E+02 -0.77277941807E+02  0.92568457125E+02  0.00000000000E+00 0.  1.
         11    1    4    4    0    0 -0.31442902899E+02  0.28245891578E+02 -0.33897383444E+02  0.54180431321E+02  0.00000000000E+00 0. -1.
</event>
<event>
 8    1  0.6906553E-009  0.1026309E+03  0.7561462E-02  0.1274859E+00
         -1   -1    0    0    0  501 -0.00000000000E+00  0.00000000000E+00  0.60263357955E+03  0.60263357955E+03  0.00000000000E+00 0.  1.
          1   -1    0    0  501    0  0.00000000000E+00 -0.00000000000E+00 -0.22332556419E+02  0.22332556419E+02  0.00000000000E+00 0. -1.
         25    2    1    2    0    0  0.27411845403E+02 -0.30411209055E+02  0.37712356674E+03  0.39943203611E+03  0.12509003149E+03 0.  0.
         23    2    1    2    0    0 -0.27411845403E+02  0.30411209055E+02  0.20317745639E+03  0.22553409985E+03  0.88928625918E+02 0.  0.
          5    1    3    3  502    0  0.96382244096E+01  0.46141577754E+02  0.89560412183E+02  0.10129402943E+03  0.41800000000E+01 0.  1.
         -5    1    3    3    0  502  0.17773620993E+02 -0.76552786809E+02  0.28756315456E+03  0.29813800669E+03  0.41800000000E+01 0.  1.
        -11    1    4    4    0    0  0.14122260338E+02  0.34720026215E+02  0.31835773877E+02  0.49177585908E+02  0.00000000000E+00 0. -1.
         11    1    4    4    0    0 -0.41534105741E+02 -0.43088171594E+01  0.17134168251E+03  0.17635651395E+03  0.00000000000E+00 0.  1.
</event>
<event>
 8    1  0.6906553E-009  0.2276423E+03  0.7561462E-02  0.1128310E+00
         -2   -1    0    0    0  501 -0.00000000000E+00  0.00000000000E+00  0.44208094758E+03  0.44208094758E+03  0.00000000000E+00 0.  1.
          2   -1    0    0  501    0  0.00000000000E+00 -0.00000000000E+00 -0.26868745402E+03  0.26868745402E+03  0.00000000000E+00 0. -1.
         25    2    1    2    0    0  0.21934050970E+02 -0.21576702330E+03  0.34118963319E+03  0.42319905649E+03  0.12510221692E+03 0.  0.
         23    2    1    2    0    0 -0.21934050970E+02  0.21576702330E+03 -0.16779613963E+03  0.28756934512E+03  0.86626051739E+02 0.  0.
          5    1    3    3  502    0  0.24744890804E+01 -0.21028556495E+03  0.23655295307E+03  0.31654527942E+03  0.41800000000E+01 0.  1.
         -5    1    3    3    0  502  0.19459561890E+02 -0.54814583556E+01  0.10463668012E+03  0.10665377706E+03  0.41800000000E+01 0.  1.
        -11    1    4    4    0    0 -0.41239006269E+02  0.12993546112E+03 -0.13975806404E+03  0.19523369627E+03  0.00000000000E+00 0.  1.
         11    1    4    4    0    0  0.19304955299E+02  0.85831562182E+02 -0.28038075593E+02  0.92335648850E+02  0.00000000000E+00 0. -1.
</event>
<event>
 8    1  0.6906553E-009  0.1601578E+03  0.7561462E-02  0.1188519E+00
         -1   -1    0    0    0  501 -0.00000000000E+00  0.00000000000E+00  0.46046214197E+02  0.46046214197E+02  0.00000000000E+00 0.  1.
          1   -1    0    0  501    0  0.00000000000E+00 -0.00000000000E+00 -0.87518200331E+03  0.87518200331E+03  0.00000000000E+00 0. -1.
         25    2    1    2    0    0  0.11870802082E+03  0.36605036404E+02 -0.69687404773E+03  0.71882714703E+03  0.12508999165E+03 0.  0.
         23    2    1    2    0    0 -0.11870802082E+03 -0.36605036404E+02 -0.13226174138E+03  0.20240107048E+03  0.89674423329E+02 0.  0.
          5    1    3    3  502    0 -0.10505312412E+02 -0.29130757903E+02 -0.12050871790E+03  0.12449412088E+03  0.41800000000E+01 0. -1.
         -5    1    3    3    0  502  0.12921333323E+03  0.65735794307E+02 -0.57636532983E+03  0.59433302614E+03  0.41800000000E+01 0. -1.
        -11    1    4    4    0    0  0.58220244135E+01 -0.17001101168E+02  0.21783541877E+01  0.18101895927E+02  0.00000000000E+00 0.  1.
         11    1    4    4    0    0 -0.12453004523E+03 -0.19603935236E+02 -0.13444009557E+03  0.18429917455E+03  0.00000000000E+00 0. -1.
</event>
<event>
 8    1  0.6906553E-009  0.8748138E+02  0.7561462E-02  0.1309068E+00
          1   -1    0    0  501    0  0.00000000000E+00  0.00000000000E+00  0.17457026964E+03  0.17457026964E+03  0.00000000000E+00 0. -1.
         -1   -1    0    0    0  501 -0.00000000000E+00 -0.00000000000E+00 -0.12351885211E+03  0.12351885211E+03  0.00000000000E+00 0.  1.
         25    2    1    2    0    0  0.57396650325E+02  0.29703252138E+02  0.10513469428E+03  0.17571874017E+03  0.12508842092E+03 0.  0.
         23    2    1    2    0    0 -0.57396650325E+02 -0.29703252138E+02 -0.54083276747E+02  0.12237038158E+03  0.88729086601E+02 0.  0.
          5    1    3    3  502    0  0.40222720523E+02  0.48139879985E+02  0.12724976172E+03  0.14193410284E+03  0.41800000000E+01 0.  1.
         -5    1    3    3    0  502  0.17173929802E+02 -0.18436627847E+02 -0.22115067441E+02  0.33784637324E+02  0.41800000000E+01 0.  1.
        -11    1    4    4    0    0 -0.81007535919E+00  0.14638242780E+02 -0.48039226181E+02  0.50226503221E+02  0.00000000000E+00 0. -1.
         11    1    4    4    0    0 -0.56586574966E+02 -0.44341494918E+02 -0.60440505661E+01  0.72143878362E+02  0.00000000000E+00 0.  1.
</event>
<event>
 8    1  0.6906553E-009  0.1041496E+03  0.7561462E-02  0.1271804E+00
         -1   -1    0    0    0  501 -0.00000000000E+00  0.00000000000E+00  0.24426263297E+02  0.24426263297E+02  0.00000000000E+00 0.  1.
          1   -1    0    0  501    0  0.00000000000E+00 -0.00000000000E+00 -0.12545126091E+04  0.12545126091E+04  0.00000000000E+00 0. -1.
         25    2    1    2    0    0 -0.52953961817E+02  0.50903645683E+02 -0.10769931652E+04  0.10867185910E+04  0.12509082636E+03 0.  0.
         23    2    1    2    0    0  0.52953961817E+02 -0.50903645683E+02 -0.15309318058E+03  0.19222028141E+03  0.90087798453E+02 0.  0.
          5    1    3    3  502    0  0.16508174865E+02  0.17055965980E+02 -0.39010330965E+02  0.45855251988E+02  0.41800000000E+01 0.  1.
         -5    1    3    3    0  502 -0.69462136682E+02  0.33847679703E+02 -0.10379828343E+04  0.10408633390E+04  0.41800000000E+01 0.  1.
        -11    1    4    4    0    0 -0.20155178130E+02 -0.16339722625E+02 -0.76719685949E+02  0.80988443330E+02  0.00000000000E+00 0. -1.
         11    1    4    4    0    0  0.73109139947E+02 -0.34563923058E+02 -0.76373494634E+02  0.11123183808E+03  0.00000000000E+00 0.  1.
</event>
<event>
 8    1  0.6906553E-009  0.6463607E+02  0.7561462E-02  0.1379346E+00
          3   -1    0    0  501    0  0.00000000000E+00  0.00000000000E+00  0.64096094175E+03  0.64096094175E+03  0.00000000000E+00 0. -1.
         -3   -1    0    0    0  501 -0.00000000000E+00 -0.00000000000E+00 -0.22274936487E+02  0.22274936487E+02  0.00000000000E+00 0.  1.
         25    2    1    2    0    0  0.97050555929E+01 -0.19892118200E+01  0.49183327756E+03  0.50758831289E+03  0.12509107643E+03 0.  0.
         23    2    1    2    0    0 -0.97050555929E+01  0.19892118200E+01  0.12685272770E+03  0.15564756535E+03  0.89645998262E+02 0.  0.
          5    1    3    3  502    0  0.23051133856E+02 -0.15220010799E+02  0.17716818655E+02  0.33081136075E+02  0.41800000000E+01 0. -1.
         -5    1    3    3    0  502 -0.13346078263E+02  0.13230798978E+02  0.47411645891E+03  0.47450717682E+03  0.41800000000E+01 0. -1.
        -11    1    4    4    0    0  0.33341731019E+02 -0.14001225900E+02  0.89241627959E+02  0.96290048888E+02  0.00000000000E+00 0.  1.
         11    1    4    4    0    0 -0.43046786612E+02  0.15990437720E+02  0.37611099746E+02  0.59357516459E+02  0.00000000000E+00 0. -1.
</event>
<event>
 8    1  0.6906553E-009  0.1397272E+03  0.7561462E-02  0.1213697E+00
          2   -1    0    0  501    0  0.00000000000E+00  0.00000000000E+00  0.49673799820E+03  0.49673799820E+03  0.00000000000E+00 0. -1.
         -2   -1    0    0    0  501 -0.00000000000E+00 -0.00000000000E+00 -0.70867869624E+02  0.70867869624E+02  0.00000000000E+00 0.  1.
         25    2    1    2    0    0 -0.97083666437E+02 -0.83870382153E+01  0.46484302734E+02  0.16523814062E+03  0.12508905634E+03 0.  0.
         23    2    1    2    0    0  0.97083666437E+02  0.83870382153E+01  0.37938582584E+03  0.40236772720E+03  0.92035875335E+02 0.  0.
          5    1    3    3  502    0  0.24757154249E+02  0.13588073482E+02  0.28002981273E+02  0.39989896069E+02  0.41800000000E+01 0. -1.
         -5    1    3    3    0  502 -0.12184082069E+03 -0.21975111697E+02  0.18481321461E+02  0.12524824455E+03  0.41800000000E+01 0. -1.
        -11    1    4    4    0    0  0.86600670302E+02 -0.26528790365E+02  0.32101700134E+03  0.33354964843E+03  0.00000000000E+00 0. -1.
         11    1    4    4    0    0  0.10482996135E+02  0.34915828580E+02  0.58368824498E+02  0.68818078778E+02  0.00000000000E+00 0.  1.
</event>
<event>
 8    1  0.6906553E-009  0.1025054E+03  0.7561462E-02  0.1275114E+00
         -2   -1    0    0    0  501 -0.00000000000E+00  0.00000000000E+00  0.42995157696E+02  0.42995157696E+02  0.00000000000E+00 0.  1.
          2   -1    0    0  501    0  0.00000000000E+00 -0.00000000000E+00 -0.36042454164E+03  0.36042454164E+03  0.00000000000E+00 0. -1.
         25    2    1    2    0    0 -0.50530122220E+02 -0.18312116461E+02 -0.21673156281E+03  0.25595254920E+03  0.12510199944E+03 0.  0.
         23    2    1    2    0    0  0.50530122220E+02  0.18312116461E+02 -0.10069782113E+03  0.14746715013E+03  0.93369600652E+02 0.  0.
          5    1    3    3  502    0 -0.67011492038E+02  0.20864080100E+02 -0.19649240664E+03  0.20869256856E+03  0.41800000000E+01 0. -1.
         -5    1    3    3    0  502  0.16481369818E+02 -0.39176196561E+02 -0.20239156168E+02  0.47259980644E+02  0.41800000000E+01 0. -1.
        -11    1    4    4    0    0  0.22974578126E+02 -0.29149053346E+02 -0.54123939593E+01  0.37507233428E+02  0.00000000000E+00 0.  1.
         11    1    4    4    0    0  0.27555544094E+02  0.47461169807E+02 -0.95285427168E+02  0.10995991670E+03  0.00000000000E+00 0. -1.
</event>
<event>
 8    1  0.6906553E-009  0.1128818E+03  0.7561462E-02  0.1255324E+00
         -1   -1    0    0    0  501 -0.00000000000E+00  0.00000000000E+00  0.11489218419E+02  0.11489218419E+02  0.00000000000E+00 0.  1.
          1   -1    0    0  501    0  0.00000000000E+00 -0.00000000000E+00 -0.12334126831E+04  0.12334126831E+04  0.00000000000E+00 0. -1.
         25    2    1    2    0    0 -0.47658515543E+02  0.20205836136E+01 -0.78776814599E+03  0.79906498437E+03  0.12510307974E+03 0.  0.
         23    2    1    2    0    0  0.47658515543E+02 -0.20205836136E+01 -0.43415531871E+03  0.44583691716E+03  0.89466748443E+02 0.  0.
          5    1    3    3  502    0 -0.86023213572E+02  0.12185718260E+02 -0.40579328975E+03  0.41501102565E+03  0.41800000000E+01 0.  1.
         -5    1    3    3    0  502  0.38364698029E+02 -0.10165134646E+02 -0.38197485624E+03  0.38405395873E+03  0.41800000000E+01 0.  1.
        -11    1    4    4    0    0 -0.21734788607E+02 -0.17345600089E+02 -0.82125853346E+02  0.86705978260E+02  0.00000000000E+00 0.  1.
         11    1    4    4    0    0  0.69393304150E+02  0.15325016475E+02 -0.35202946537E+03  0.35913093890E+03  0.00000000000E+00 0. -1.
</event>
<event>
 8    1  0.6906553E-009  0.1132562E+03  0.7561462E-02  0.1254656E+00
          2   -1    0    0  501    0  0.00000000000E+00  0.00000000000E+00  0.34227639573E+02  0.34227639573E+02  0.00000000000E+00 0. -1.
         -2   -1    0    0    0  501 -0.00000000000E+00 -0.00000000000E+00 -0.53572186016E+03  0.53572186016E+03  0.00000000000E+00 0.  1.
         25    2    1    2    0    0 -0.12207936822E+01  0.79755091517E+02 -0.25131157787E+03  0.29183418151E+03  0.12508922961E+03 0.  0.
         23    2    1    2    0    0  0.12207936822E+01 -0.79755091517E+02 -0.25018264272E+03  0.27811531823E+03  0.91621015906E+02 0.  0.
          5    1    3    3  502    0 -0.25329898607E+00 -0.21791621400E+02 -0.13736194069E+03  0.13914278305E+03  0.41800000000E+01 0.  1.
         -5    1    3    3    0  502 -0.96749469616E+00  0.10154671292E+03 -0.11394963718E+03  0.15269139846E+03  0.41800000000E+01 0.  1.
        -11    1    4    4    0    0 -0.31728402260E+02 -0.38895622250E+02 -0.48809808108E+02  0.70013986515E+02  0.00000000000E+00 0. -1.
         11    1    4    4    0    0  0.32949195942E+02 -0.40859469267E+02 -0.20137283461E+03  0.20810133171E+03  0.00000000000E+00 0.  1.
</event>
<event>
 8    1  0.6906553E-009  0.9632153E+02  0.7561462E-02  0.1288227E+00
         -2   -1    0    0    0  501 -0.00000000000E+00  0.00000000000E+00  0.14811038524E+03  0.14811038524E+03  0.00000000000E+00 0.  1.
          2   -1    0    0  501    0  0.00000000000E+00 -0.00000000000E+00 -0.12753638335E+03  0.12753638335E+03  0.00000000000E+00 0. -1.
         25    2    1    2    0    0 -0.64829275579E+02  0.17202816999E+02 -0.39095607729E+02  0.14722302996E+03  0.12508949645E+03 0.  0.
         23    2    1    2    0    0  0.64829275579E+02 -0.17202816999E+02  0.59669609626E+02  0.12842373863E+03  0.91833667284E+02 0.  0.
          5    1    3    3  502    0 -0.70021832320E+02  0.24949799422E+02 -0.77508579348E+02  0.10747372593E+03  0.41800000000E+01 0.  1.
         -5    1    3    3    0  502  0.51925567417E+01 -0.77469824230E+01  0.38412971619E+02  0.39749304029E+02  0.41800000000E+01 0.  1.
        -11    1    4    4    0    0 -0.90852923064E+01  0.22359689055E+02  0.32119393004E+02  0.40176530933E+02  0.00000000000E+00 0. -1.
         11    1    4    4    0    0  0.73914567885E+02 -0.39562506054E+02  0.27550216622E+02  0.88247207700E+02  0.00000000000E+00 0.  1.
</event>
<event>
 8    1  0.6906553E-009  0.1818914E+03  0.7561462E-02  0.1165985E+00
         -2   -1    0    0    0  501 -0.00000000000E+00  0.00000000000E+00  0.46659829315E+03  0.46659829315E+03  0.00000000000E+00 0.  1.
          2   -1    0    0  501    0  0.00000000000E+00 -0.00000000000E+00 -0.82346666810E+02  0.82346666810E+02  0.00000000000E+00 0. -1.
         25    2    1    2    0    0 -0.16456127305E+02 -0.15065458942E+03  0.11722632476E+03  0.22881639696E+03  0.12508925957E+03 0.  0.
         23    2    1    2    0    0  0.16456127305E+02  0.15065458942E+03  0.26702530158E+03  0.32012856300E+03  0.90621055649E+02 0.  0.
          5    1    3    3  502    0  0.51078950704E+02 -0.94368838391E+02  0.76416823495E+02  0.13180113876E+03  0.41800000000E+01 0.  1.
         -5    1    3    3    0  502 -0.67535078009E+02 -0.56285751030E+02  0.40809501268E+02  0.97015258204E+02  0.41800000000E+01 0.  1.
        -11    1    4    4    0    0 -0.28625165437E+02  0.42867036000E+02  0.41652334562E+02  0.66271410474E+02  0.00000000000E+00 0.  1.
         11    1    4    4    0    0  0.45081292741E+02  0.10778755342E+03  0.22537296702E+03  0.25385715253E+03  0.00000000000E+00 0. -1.
</event>
<event>
 8    1  0.6906553E-009  0.1260497E+03  0.7561462E-02  0.1233438E+00
          1   -1    0    0  501    0  0.00000000000E+00  0.00000000000E+00  0.24194981334E+03  0.24194981334E+03  0.00000000000E+00 0. -1.
         -1   -1    0    0    0  501 -0.00000000000E+00 -0.00000000000E+00 -0.76148354619E+02  0.76148354619E+02  0.00000000000E+00 0.  1.
         25    2    1    2    0    0  0.27561812564E+00  0.77412987450E+02  0.99318687401E+02  0.17749783667E+03  0.12509369994E+03 0.  0.
         23    2    1    2    0    0 -0.27561812564E+00 -0.77412987450E+02  0.66482771318E+02  0.14060033128E+03  0.96724597099E+02 0.  0.
          5    1    3    3  502    0 -0.28505428879E+02 -0.14180805647E+02 -0.83504194223E+01  0.33179159557E+02  0.41800000000E+01 0.  1.
         -5    1    3    3    0  502  0.28781047004E+02  0.91593793097E+02  0.10766910682E+03  0.14431867712E+03  0.41800000000E+01 0.  1.
        -11    1    4    4    0    0  0.40994493085E+02 -0.71192380159E+02  0.43813279848E+02  0.93104816991E+02  0.00000000000E+00 0.  1.
         11    1    4    4    0    0 -0.41270111211E+02 -0.62206072908E+01  0.22669491470E+02  0.47495514293E+02  0.00000000000E+00 0. -1.
</event>
<event>
 8    1  0.6906553E-009  0.1196343E+03  0.7561462E-02  0.1243702E+00
          1   -1    0    0  501    0  0.00000000000E+00  0.00000000000E+00  0.29355035311E+03  0.29355035311E+03  0.00000000000E+00 0. -1.
         -1   -1    0    0    0  501 -0.00000000000E+00 -0.00000000000E+00 -0.63995227087E+02  0.63995227087E+02  0.00000000000E+00 0.  1.
         25    2    1    2    0    0 -0.49347762936E+02  0.36726476554E+02  0.20122016116E+03  0.24478961235E+03  0.12509342617E+03 0.  0.
         23    2    1    2    0    0  0.49347762936E+02 -0.36726476554E+02  0.28334964867E+02  0.11275596785E+03  0.90149887766E+02 0.  0.
          5    1    3    3  502    0 -0.85072879812E+02  0.10756353989E+02  0.86870261800E+02  0.12213520711E+03  0.41800000000E+01 0. -1.
         -5    1    3    3    0  502  0.35725116876E+02  0.25970122566E+02  0.11434989936E+03  0.12265440524E+03  0.41800000000E+01 0. -1.
        -11    1    4    4    0    0  0.36301886153E+02  0.26211819349E+02  0.94416555004E+01  0.45760586430E+02  0.00000000000E+00 0.  1.
         11    1    4    4    0    0  0.13045876783E+02 -0.62938295904E+02  0.18893309366E+02  0.66995381416E+02  0.00000000000E+00 0. -1.
</event>
<event>
 8    1  0.6906553E-009  0.7904069E+02  0.7561462E-02  0.1331796E+00
         -2   -1    0    0    0  501 -0.00000000000E+00  0.00000000000E+00  0.16815906025E+03  0.16815906025E+03  0.00000000000E+00 0.  1.
          2   -1    0    0  501    0  0.00000000000E+00 -0.00000000000E+00 -0.11581457712E+03  0.11581457712E+03  0.00000000000E+00 0. -1.
         25    2    1    2    0    0 -0.31615654027E+02  0.25269421250E+02  0.10682515588E+03  0.16939321770E+03  0.12507739622E+03 0.  0.
         23    2    1    2    0    0  0.31615654027E+02 -0.25269421250E+02 -0.54480672751E+02  0.11458041968E+03  0.92317038730E+02 0.  0.
          5    1    3    3  502    0 -0.46814833366E+02  0.29060154941E+02 -0.58403912363E+01  0.55567110759E+02  0.41800000000E+01 0. -1.
         -5    1    3    3    0  502  0.15199179339E+02 -0.37907336912E+01  0.11266554712E+03  0.11382610694E+03  0.41800000000E+01 0. -1.
        -11    1    4    4    0    0  0.53597627651E+02 -0.64628814642E+00 -0.33306726561E+01  0.53704904418E+02  0.00000000000E+00 0.  1.
         11    1    4    4    0    0 -0.21981973624E+02 -0.24623133103E+02 -0.51150000095E+02  0.60875515258E+02  0.00000000000E+00 0. -1.
</event>
<event>
 8    1  0.6906553E-009  0.1192240E+03  0.7561462E-02  0.1244383E+00
         -2   -1    0    0    0  501 -0.00000000000E+00  0.00000000000E+00  0.15267147310E+02  0.15267147310E+02  0.00000000000E+00 0.  1.
          2   -1    0    0  501    0  0.00000000000E+00 -0.00000000000E+00 -0.11538098798E+04  0.11538098798E+04  0.00000000000E+00 0. -1.
         25    2    1    2    0    0  0.33099283780E+02  0.31689386559E+02 -0.87242914921E+03  0.88254220284E+03  0.12509332353E+03 0.  0.
         23    2    1    2    0    0 -0.33099283780E+02 -0.31689386559E+02 -0.26611358324E+03  0.28653482423E+03  0.95843552238E+02 0.  0.
          5    1    3    3  502    0 -0.76831505090E+01  0.73851006478E+02 -0.49887817628E+03  0.50439063148E+03  0.41800000000E+01 0.  1.
         -5    1    3    3    0  502  0.40782434289E+02 -0.42161619919E+02 -0.37355097293E+03  0.37815157136E+03  0.41800000000E+01 0.  1.
        -11    1    4    4    0    0  0.33325006611E+02 -0.16263129470E+02 -0.11282621403E+03  0.11876363087E+03  0.00000000000E+00 0. -1.
         11    1    4    4    0    0 -0.66424290391E+02 -0.15426257089E+02 -0.15328736920E+03  0.16777119335E+03  0.00000000000E+00 0.  1.
</event>
<event>
 8    1  0.6906553E-009  0.1261724E+03  0.7561462E-02  0.1233248E+00
         -1   -1    0    0    0  501 -0.00000000000E+00  0.00000000000E+00  0.62090617251E+02  0.62090617251E+02  0.00000000000E+00 0.  1.
          1   -1    0    0  501    0  0.00000000000E+00 -0.00000000000E+00 -0.46811931663E+03  0.46811931663E+03  0.00000000000E+00 0. -1.
         25    2    1    2    0    0 -0.41279441707E+02  0.11155249562E+03 -0.30348665706E+03  0.34914453362E+03  0.12509917168E+03 0.  0.
         23    2    1    2    0    0  0.41279441707E+02 -0.11155249562E+03 -0.10254204232E+03  0.18106540026E+03  0.90121346757E+02 0.  0.
          5    1    3    3  502    0 -0.30002064104E+01  0.84384123051E+02 -0.66620239877E+02  0.10763554349E+03  0.41800000000E+01 0. -1.
         -5    1    3    3    0  502 -0.38279235297E+02  0.27168372572E+02 -0.23686641718E+03  0.24150899013E+03  0.41800000000E+01 0. -1.
        -11    1    4    4    0    0  0.15722397114E+02 -0.71180294273E+02 -0.57505264290E+01  0.73122476832E+02  0.00000000000E+00 0.  1.
         11    1    4    4    0    0  0.25557044593E+02 -0.40372201350E+02 -0.96791515889E+02  0.10794292343E+03  0.00000000000E+00 0. -1.
</event>
<event>
 8    1  0.6906553E-009  0.7721739E+02  0.7561462E-02  0.1337139E+00
          1   -1    0    0  501    0  0.00000000000E+00  0.00000000000E+00  0.21012800997E+04  0.21012800997E+04  0.00000000000E+00 0. -1.
         -1   -1    0    0    0  501 -0.00000000000E+00 -0.00000000000E+00 -0.73589217687E+01  0.73589217687E+01  0.00000000000E+00 0.  1.
         25    2    1    2    0    0  0.14320132407E+01 -0.44976165061E+02  0.15552070182E+04  0.15608781912E+04  0.12508777783E+03 0.  0.
         23    2    1    2    0    0 -0.14320132407E+01  0.44976165061E+02  0.53871415980E+03  0.54776083035E+03  0.88340677029E+02 0.  0.
          5    1    3    3  502    0  0.15907484064E+02 -0.28972734499E+02  0.15123181773E+04  0.15126850992E+04  0.41800000000E+01 0.  1.
         -5    1    3    3    0  502 -0.14475470823E+02 -0.16003430561E+02  0.42888840838E+02  0.48193091971E+02  0.41800000000E+01 0.  1.
        -11    1    4    4    0    0  0.16139241304E+02  0.68162314120E+02  0.37895330657E+03  0.38537278671E+03  0.00000000000E+00 0.  1.
         11    1    4    4    0    0 -0.17571254545E+02 -0.23186149060E+02  0.15976085322E+03  0.16238804364E+03  0.00000000000E+00 0. -1.
</event>
<event>
 8    1  0.6906553E-009  0.9289413E+02  0.7561462E-02  0.1295991E+00
          2   -1    0    0  501    0  0.00000000000E+00  0.00000000000E+00  0.72115082545E+02  0.72115082545E+02  0.00000000000E+00 0.  1.
         -2   -1    0    0    0  501 -0.00000000000E+00 -0.00000000000E+00 -0.25541359408E+03  0.25541359408E+03  0.00000000000E+00 0. -1.
         25    2    1    2    0    0  0.30187486748E+02  0.34030239905E+02 -0.18223795615E+03  0.22567195360E+03  0.12509123229E+03 0.  0.
         23    2    1    2    0    0 -0.30187486748E+02 -0.34030239905E+02 -0.10605553866E+01  0.10185672302E+03  0.91128072860E+02 0.  0.
          5    1    3    3  502    0 -0.10864629995E+02 -0.30235240413E+02 -0.51346780003E+01  0.32803159390E+02  0.41800000000E+01 0.  1.
         -5    1    3    3    0  502  0.41052116744E+02  0.64265480318E+02 -0.17710327815E+03  0.19286879422E+03  0.41800000000E+01 0.  1.
        -11    1    4    4    0    0  0.17937311673E+02 -0.20049557043E+02 -0.32888208655E+02  0.42489600566E+02  0.00000000000E+00 0. -1.
         11    1    4    4    0    0 -0.48124798421E+02 -0.13980682861E+02  0.31827653269E+02  0.59367122458E+02  0.00000000000E+00 0.  1.
</event>
<event>
 8    1  0.6906553E-009  0.1072318E+03  0.7561462E-02  0.1265784E+00
         -2   -1    0    0    0  501 -0.00000000000E+00  0.00000000000E+00  0.87124748930E+01  0.87124748930E+01  0.00000000000E+00 0.  1.
          2   -1    0    0  501    0  0.00000000000E+00 -0.00000000000E+00 -0.23132816096E+04  0.23132816096E+04  0.00000000000E+00 0. -1.
         25    2    1    2    0    0  0.11745095849E+02 -0.18844694092E+02 -0.19659817563E+04  0.19700825565E+04  0.12509174078E+03 0.  0.
         23    2    1    2    0    0 -0.11745095849E+02  0.18844694092E+02 -0.33858737839E+03  0.35191152796E+03  0.93312597940E+02 0.  0.
          5    1    3    3  502    0  0.65174421786E+02 -0.22972959000E+02 -0.13442649686E+04  0.13460465223E+04  0.41800000000E+01 0. -1.
         -5    1    3    3    0  502 -0.53429325937E+02  0.41282649076E+01 -0.62171678774E+03  0.62403603422E+03  0.41800000000E+01 0. -1.
        -11    1    4    4    0    0 -0.52076477535E+01 -0.35936252482E+02 -0.85684826712E+02  0.93061395682E+02  0.00000000000E+00 0.  1.
         11    1    4    4    0    0 -0.65374480954E+01  0.54780946575E+02 -0.25290255168E+03  0.25885013228E+03  0.00000000000E+00 0. -1.
</event>
<event>
 8    1  0.6906553E-009  0.4483309E+02  0.7561462E-02  0.1475386E+00
          1   -1    0    0  501    0  0.00000000000E+00  0.00000000000E+00  0.18091866772E+03  0.18091866772E+03  0.00000000000E+00 0. -1.
         -1   -1    0    0    0  501 -0.00000000000E+00 -0.00000000000E+00 -0.64606361756E+02  0.64606361756E+02  0.00000000000E+00 0.  1.
         25    2    1    2    0    0 -0.88011493648E+01 -0.58736840034E+00  0.70108183094E+02  0.14366448186E+03  0.12508605349E+03 0.  0.
         23    2    1    2    0    0  0.88011493648E+01  0.58736840034E+00  0.46204122868E+02  0.10186054762E+03  0.90349017478E+02 0.  0.
          5    1    3    3  502    0  0.12735074698E+02 -0.88745654331E+01 -0.33648163813E+02  0.37290901936E+02  0.41800000000E+01 0. -1.
         -5    1    3    3    0  502 -0.21536224063E+02  0.82871970328E+01  0.10375634691E+03  0.10637357992E+03  0.41800000000E+01 0. -1.
        -11    1    4    4    0    0  0.61886422532E+01 -0.24320356145E+02  0.65565997181E+02  0.70204551151E+02  0.00000000000E+00 0. -1.
         11    1    4    4    0    0  0.26125071116E+01  0.24907724545E+02 -0.19361874313E+02  0.31655996467E+02  0.00000000000E+00 0.  1.
</event>
<event>
 8    1  0.6906553E-009  0.1484070E+03  0.7561462E-02  0.1202444E+00
          1   -1    0    0  501    0  0.00000000000E+00  0.00000000000E+00  0.54945470000E+03  0.54945470000E+03  0.00000000000E+00 0. -1.
         -1   -1    0    0    0  501 -0.00000000000E+00 -0.00000000000E+00 -0.59971303963E+02  0.59971303963E+02  0.00000000000E+00 0.  1.
         25    2    1    2    0    0  0.44011447320E+01  0.11503908375E+03  0.10920059895E+03  0.20205140624E+03  0.12508652641E+03 0.  0.
         23    2    1    2    0    0 -0.44011447320E+01 -0.11503908375E+03  0.38028279708E+03  0.40737459772E+03  0.89920499552E+02 0.  0.
          5    1    3    3  502    0 -0.42689661586E+02  0.10228805500E+03  0.10528420230E+03  0.15292968664E+03  0.41800000000E+01 0. -1.
         -5    1    3    3    0  502  0.47090806318E+02  0.12751028750E+02  0.39163966486E+01  0.49121719601E+02  0.41800000000E+01 0. -1.
        -11    1    4    4    0    0  0.31400435429E+02 -0.83535523012E+02  0.17282497473E+03  0.19450615117E+03  0.00000000000E+00 0.  1.
         11    1    4    4    0    0 -0.35801580161E+02 -0.31503560742E+02  0.20745782235E+03  0.21286844655E+03  0.00000000000E+00 0. -1.
</event>
<event>
 8    1  0.6906553E-009  0.6355467E+02  0.7561462E-02  0.1383492E+00
         -3   -1    0    0    0  501 -0.00000000000E+00  0.00000000000E+00  0.41309782436E+02  0.41309782436E+02  0.00000000000E+00 0.  1.
          3   -1    0    0  501    0  0.00000000000E+00 -0.00000000000E+00 -0.32544223689E+03  0.32544223689E+03  0.00000000000E+00 0. -1.
         25    2    1    2    0    0  0.10560067913E+02 -0.26263098881E+02 -0.20831654037E+03  0.24462950193E+03  0.12508615760E+03 0.  0.
         23    2    1    2    0    0 -0.10560067913E+02  0.26263098881E+02 -0.75815914085E+02  0.12212251740E+03  0.91458138133E+02 0.  0.
          5    1    3    3  502    0  0.18931851972E+02  0.15848807092E+01 -0.21385167132E+03  0.21473457242E+03  0.41800000000E+01 0.  1.
         -5    1    3    3    0  502 -0.83717840592E+01 -0.27847979591E+02  0.55351309487E+01  0.29894929507E+02  0.41800000000E+01 0.  1.
        -11    1    4    4    0    0 -0.30104489445E+02 -0.14243200515E+02  0.76377331938E+00  0.33312646178E+02  0.00000000000E+00 0.  1.
         11    1    4    4    0    0  0.19544421532E+02  0.40506299397E+02 -0.76579687405E+02  0.88809871224E+02  0.00000000000E+00 0. -1.
</event>
<event>
 8    1  0.6906553E-009  0.2054496E+03  0.7561462E-02  0.1145221E+00
          3   -1    0    0  501    0  0.00000000000E+00  0.00000000000E+00  0.13502757816E+03  0.13502757816E+03  0.00000000000E+00 0. -1.
         -3   -1    0    0    0  501 -0.00000000000E+00 -0.00000000000E+00 -0.34952948819E+03  0.34952948819E+03  0.00000000000E+00 0.  1.
         25    2    1    2    0    0 -0.93620211149E+02  0.16053247095E+03 -0.14172648148E+03  0.26508473502E+03  0.12509237796E+03 0.  0.
         23    2    1    2    0    0  0.93620211149E+02 -0.16053247095E+03 -0.72775428553E+02  0.21947233133E+03  0.91304014434E+02 0.  0.
          5    1    3    3  502    0 -0.11163066198E+03  0.78173529143E+02 -0.65127481825E+02  0.15110118014E+03  0.41800000000E+01 0. -1.
         -5    1    3    3    0  502  0.18010450827E+02  0.82358941808E+02 -0.76598999651E+02  0.11398355488E+03  0.41800000000E+01 0. -1.
        -11    1    4    4    0    0  0.55277666474E+02 -0.12954770568E+03 -0.90121151509E+02  0.16721259045E+03  0.00000000000E+00 0. -1.
         11    1    4    4    0    0  0.38342544675E+02 -0.30984765274E+02  0.17345722956E+02  0.52259740873E+02  0.00000000000E+00 0.  1.
</event>
<event>
 8    1  0.6906553E-009  0.7297482E+02  0.7561462E-02  0.1350260E+00
          1   -1    0    0  501    0  0.00000000000E+00  0.00000000000E+00  0.47240233879E+02  0.47240233879E+02  0.00000000000E+00 0. -1.
         -1   -1    0    0    0  501 -0.00000000000E+00 -0.00000000000E+00 -0.50550701116E+03  0.50550701116E+03  0.00000000000E+00 0.  1.
         25    2    1    2    0    0 -0.14769173946E+02  0.38565549970E+02 -0.65538995071E+02  0.14713644901E+03  0.12509334359E+03 0.  0.
         23    2    1    2    0    0  0.14769173946E+02 -0.38565549970E+02 -0.39272778221E+03  0.40561079603E+03  0.92626004939E+02 0.  0.
          5    1    3    3  502    0 -0.18408064556E+02  0.21075885631E+02  0.34961034707E+02  0.44975506040E+02  0.41800000000E+01 0. -1.
         -5    1    3    3    0  502  0.36388906094E+01  0.17489664339E+02 -0.10050002978E+03  0.10216094297E+03  0.41800000000E+01 0. -1.
        -11    1    4    4    0    0 -0.38370213431E+02 -0.16720228301E+02 -0.12616422551E+03  0.13292573532E+03  0.00000000000E+00 0.  1.
         11    1    4    4    0    0  0.53139387378E+02 -0.21845321668E+02 -0.26656355671E+03  0.27268506071E+03  0.00000000000E+00 0. -1.
</event>
<event>
 8    1  0.6906553E-009  0.1964945E+03  0.7561462E-02  0.1152731E+00
          1   -1    0    0  501    0  0.00000000000E+00  0.00000000000E+00  0.72960282489E+03  0.72960282489E+03  0.00000000000E+00 0. -1.
         -1   -1    0    0    0  501 -0.00000000000E+00 -0.00000000000E+00 -0.61369511090E+02  0.61369511090E+02  0.00000000000E+00 0.  1.
         25    2    1    2    0    0 -0.15482405420E+03 -0.89379070717E+02  0.40779283526E+03  0.46249581178E+03  0.12509305889E+03 0.  0.
         23    2    1    2    0    0  0.15482405420E+03  0.89379070717E+02  0.26044047853E+03  0.32847652420E+03  0.90047087963E+02 0.  0.
          5    1    3    3  502    0  0.10676222822E+02  0.13534200523E+02  0.12339340026E+02  0.21607591949E+02  0.41800000000E+01 0.  1.
         -5    1    3    3    0  502 -0.16550027702E+03 -0.10291327124E+03  0.39545349524E+03  0.44088821983E+03  0.41800000000E+01 0.  1.
        -11    1    4    4    0    0  0.60849296360E+02  0.48606051485E+02  0.18659659606E+03  0.20219662403E+03  0.00000000000E+00 0. -1.
         11    1    4    4    0    0  0.93974757836E+02  0.40773019232E+02  0.73843882475E+02  0.12627990017E+03  0.00000000000E+00 0.  1.
</event>
<event>
 8    1  0.6906553E-009  0.8994253E+02  0.7561462E-02  0.1302991E+00
          4   -1    0    0  501    0  0.00000000000E+00  0.00000000000E+00  0.60498474124E+03  0.60498474124E+03  0.00000000000E+00 0. -1.
         -4   -1    0    0    0  501 -0.00000000000E+00 -0.00000000000E+00 -0.21364961894E+02  0.21364961894E+02  0.00000000000E+00 0.  1.
         25    2    1    2    0    0  0.13353566855E+02 -0.17917872200E+01  0.41182469714E+03  0.43061419433E+03  0.12508986742E+03 0.  0.
         23    2    1    2    0    0 -0.13353566855E+02  0.17917872200E+01  0.17179508220E+03  0.19573550880E+03  0.92829472091E+02 0.  0.
          5    1    3    3  502    0 -0.39385881592E+02  0.82969575315E+01  0.47809789377E+02  0.62636535131E+02  0.41800000000E+01 0. -1.
         -5    1    3    3    0  502  0.52739448447E+02 -0.10088744751E+02  0.36401490776E+03  0.36797765919E+03  0.41800000000E+01 0. -1.
        -11    1    4    4    0    0  0.38750753301E+01  0.41810844190E+02  0.12468733030E+03  0.13156782751E+03  0.00000000000E+00 0. -1.
         11    1    4    4    0    0 -0.17228642185E+02 -0.40019056970E+02  0.47107751907E+02  0.64167681290E+02  0.00000000000E+00 0.  1.
</event>
<event>
 8    1  0.6906553E-009  0.8213087E+02  0.7561462E-02  0.1323111E+00
          2   -1    0    0  501    0  0.00000000000E+00  0.00000000000E+00  0.11842704299E+04  0.11842704299E+04  0.00000000000E+00 0. -1.
         -2   -1    0    0    0  501 -0.00000000000E+00 -0.00000000000E+00 -0.13524179740E+02  0.13524179740E+02  0.00000000000E+00 0.  1.
         25    2    1    2    0    0  0.27221391295E+02 -0.22529903674E+02  0.95620913208E+03  0.96500437170E+03  0.12509569304E+03 0.  0.
         23    2    1    2    0    0 -0.27221391295E+02  0.22529903674E+02  0.21453711804E+03  0.23279023791E+03  0.83165612742E+02 0.  0.
          5    1    3    3  502    0 -0.20880384703E+02 -0.14821108690E+01  0.27546419188E+02  0.34849171125E+02  0.41800000000E+01 0. -1.
         -5    1    3    3    0  502  0.48101775998E+02 -0.21047792805E+02  0.92866271290E+03  0.93015520058E+03  0.41800000000E+01 0. -1.
        -11    1    4    4    0    0  0.61608409264E+01 -0.28559026228E+02  0.75089449419E+02  0.80572944306E+02  0.00000000000E+00 0. -1.
         11    1    4    4    0    0 -0.33382232221E+02  0.51088929902E+02  0.13944766862E+03  0.15221729360E+03  0.00000000000E+00 0.  1.
</event>
<event>
 8    1  0.6906553E-009  0.1156213E+03  0.7561462E-02  0.1250500E+00
         -2   -1    0    0    0  501 -0.00000000000E+00  0.00000000000E+00  0.69927080173E+02  0.69927080173E+02  0.00000000000E+00 0.  1.
          2   -1    0    0  501    0  0.00000000000E+00 -0.00000000000E+00 -0.28598886412E+03  0.28598886412E+03  0.00000000000E+00 0. -1.
         25    2    1    2    0    0  0.62078304648E+02  0.12084917328E+02 -0.19791713444E+03  0.24252666669E+03  0.12509288876E+03 0.  0.
         23    2    1    2    0    0 -0.62078304648E+02 -0.12084917328E+02 -0.18144649508E+02  0.11338927760E+03  0.92347922741E+02 0.  0.
          5    1    3    3  502    0 -0.28188372469E+02  0.98793214980E+01 -0.11826082109E+03  0.12204621887E+03  0.41800000000E+01 0. -1.
         -5    1    3    3    0  502  0.90266677117E+02  0.22055958303E+01 -0.79656313348E+02  0.12048044782E+03  0.41800000000E+01 0. -1.
        -11    1    4    4    0    0  0.82363682146E+01  0.28389516690E+02 -0.12396708434E+02  0.32054341348E+02  0.00000000000E+00 0.  1.
         11    1    4    4    0    0 -0.70314672863E+02 -0.40474434018E+02 -0.57479410739E+01  0.81334936254E+02  0.00000000000E+00 0. -1.
</event>
<event>
 8    1  0.6906553E-009  0.1191012E+03  0.7561462E-02  0.1244587E+00
         -1   -1    0    0    0  501 -0.00000000000E+00  0.00000000000E+00  0.38140977014E+02  0.38140977014E+02  0.00000000000E+00 0.  1.
          1   -1    0    0  501    0  0.00000000000E+00 -0.00000000000E+00 -0.40596176064E+03  0.40596176064E+03  0.00000000000E+00 0. -1.
         25    2    1    2    0    0  0.51852918841E+01 -0.57251848177E+02 -0.23613640689E+03  0.27333780839E+03  0.12509393856E+03 0.  0.
         23    2    1    2    0    0 -0.51852918841E+01  0.57251848177E+02 -0.13168437673E+03  0.17076492926E+03  0.92277974725E+02 0.  0.
          5    1    3    3  502    0 -0.59334056995E+02 -0.36367727090E+02 -0.11807010051E+03  0.13711733270E+03  0.41800000000E+01 0.  1.
         -5    1    3    3    0  502  0.64519348879E+02 -0.20884121087E+02 -0.11806630638E+03  0.13622047568E+03  0.41800000000E+01 0.  1.
        -11    1    4    4    0    0 -0.43449790112E+02  0.37919769569E+02 -0.10631813744E+03  0.12095180666E+03  0.00000000000E+00 0.  1.
         11    1    4    4    0    0  0.38264498228E+02  0.19332078607E+02 -0.25366239292E+02  0.49813122605E+02  0.00000000000E+00 0. -1.
</event>
<event>
 8    1  0.6906553E-009  0.9790454E+02  0.7561462E-02  0.1284765E+00
         -2   -1    0    0    0  501 -0.00000000000E+00  0.00000000000E+00  0.35481589028E+02  0.35481589028E+02  0.00000000000E+00 0.  1.
          2   -1    0    0  501    0  0.00000000000E+00 -0.00000000000E+00 -0.33143159431E+03  0.33143159431E+03  0.00000000000E+00 0. -1.
         25    2    1    2    0    0  0.20972750593E+02 -0.34081068060E+01 -0.15060130858E+03  0.19692570502E+03  0.12508999837E+03 0.  0.
         23    2    1    2    0    0 -0.20972750593E+02  0.34081068060E+01 -0.14534869670E+03  0.16998747832E+03  0.85545471491E+02 0.  0.
          5    1    3    3  502    0 -0.19421417039E+02 -0.56251940372E+02 -0.61788170878E+02  0.85887849524E+02  0.41800000000E+01 0. -1.
         -5    1    3    3    0  502  0.40394167632E+02  0.52843833566E+02 -0.88813137706E+02  0.11103785550E+03  0.41800000000E+01 0. -1.
        -11    1    4    4    0    0  0.14199851068E+02 -0.21952327921E+02 -0.10218688051E+02  0.28070661855E+02  0.00000000000E+00 0.  1.
         11    1    4    4    0    0 -0.35172601661E+02  0.25360434727E+02 -0.13513000865E+03  0.14191681646E+03  0.00000000000E+00 0. -1.
</event>
<event>
 8    1  0.6906553E-009  0.1397003E+03  0.7561462E-02  0.1213733E+00
         -2   -1    0    0    0  501 -0.00000000000E+00  0.00000000000E+00  0.11059746413E+03  0.11059746413E+03  0.00000000000E+00 0.  1.
          2   -1    0    0  501    0  0.00000000000E+00 -0.00000000000E+00 -0.21805119740E+03  0.21805119740E+03  0.00000000000E+00 0. -1.
         25    2    1    2    0    0  0.11941497017E+02 -0.10135282510E+03 -0.10300362096E+03  0.19150067327E+03  0.12509103654E+03 0.  0.
         23    2    1    2    0    0 -0.11941497017E+02  0.10135282510E+03 -0.44501123064E+01  0.13714798826E+03  0.91513784080E+02 0.  0.
          5    1    3    3  502    0  0.51507388316E+02 -0.67176121839E+00 -0.45823149249E+02  0.69070223116E+02  0.41800000000E+01 0. -1.
         -5    1    3    3    0  502 -0.39565891299E+02 -0.10068106388E+03 -0.57180471712E+02  0.12243045015E+03  0.41800000000E+01 0. -1.
        -11    1    4    4    0    0  0.20279143271E+02  0.10033780950E+02  0.27098049926E+02  0.35301908188E+02  0.00000000000E+00 0. -1.
         11    1    4    4    0    0 -0.32220640288E+02  0.91319044153E+02 -0.31548162232E+02  0.10184608007E+03  0.00000000000E+00 0.  1.
</event>
<event>
 8    1  0.6906553E-009  0.7690387E+02  0.7561462E-02  0.1338075E+00
          1   -1    0    0  501    0  0.00000000000E+00  0.00000000000E+00  0.50069320375E+02  0.50069320375E+02  0.00000000000E+00 0. -1.
         -1   -1    0    0    0  501 -0.00000000000E+00 -0.00000000000E+00 -0.32527619555E+03  0.32527619555E+03  0.00000000000E+00 0.  1.
         25    2    1    2    0    0 -0.20208014252E+02 -0.71914483138E+01 -0.24692034440E+03  0.27762286265E+03  0.12507884160E+03 0.  0.
         23    2    1    2    0    0  0.20208014252E+02  0.71914483138E+01 -0.28286530772E+02  0.97722653277E+02  0.91046737292E+02 0.  0.
          5    1    3    3  502    0 -0.55085414783E+02  0.24848040311E+02 -0.20655716479E+03  0.21525603999E+03  0.41800000000E+01 0. -1.
         -5    1    3    3    0  502  0.34877400531E+02 -0.32039488625E+02 -0.40363179613E+02  0.62366822651E+02  0.41800000000E+01 0. -1.
        -11    1    4    4    0    0  0.12528349245E+01 -0.15823534945E+02  0.29046230976E+02  0.33100413705E+02  0.00000000000E+00 0. -1.
         11    1    4    4    0    0  0.18955179328E+02  0.23014983259E+02 -0.57332761747E+02  0.64622239572E+02  0.00000000000E+00 0.  1.
</event>
<event>
 8    1  0.6906553E-009  0.1166135E+03  0.7561462E-02  0.1248791E+00
          1   -1    0    0  501    0  0.00000000000E+00  0.00000000000E+00  0.24051618010E+03  0.24051618010E+03  0.00000000000E+00 0. -1.
         -1   -1    0    0    0  501 -0.00000000000E+00 -0.00000000000E+00 -0.76353871055E+02  0.76353871055E+02  0.00000000000E+00 0.  1.
         25    2    1    2    0    0 -0.68649539882E+02 -0.45391528641E+02  0.10927087282E+03  0.18536580885E+03  0.12508880543E+03 0.  0.
         23    2    1    2    0    0  0.68649539882E+02  0.45391528641E+02  0.54891436225E+02  0.13150424231E+03  0.86643786719E+02 0.  0.
          5    1    3    3  502    0 -0.57165747530E+02 -0.68047245156E+02  0.12630736387E+03  0.15449716124E+03  0.41800000000E+01 0.  1.
         -5    1    3    3    0  502 -0.11483792352E+02  0.22655716514E+02 -0.17036491049E+02  0.30868647603E+02  0.41800000000E+01 0.  1.
        -11    1    4    4    0    0  0.78781859810E+02  0.61184671254E+02  0.52090011236E+02  0.11253228293E+03  0.00000000000E+00 0. -1.
         11    1    4    4    0    0 -0.10132319928E+02 -0.15793142613E+02  0.28014249890E+01  0.18971959379E+02  0.00000000000E+00 0.  1.
</event>
<event>
 8    1  0.6906553E-009  0.1321474E+03  0.7561462E-02  0.1224304E+00
         -1   -1    0    0    0  501 -0.00000000000E+00  0.00000000000E+00  0.85922272574E+02  0.85922272574E+02  0.00000000000E+00 0.  1.
          1   -1    0    0  501    0  0.00000000000E+00 -0.00000000000E+00 -0.20828460511E+03  0.20828460511E+03  0.00000000000E+00 0. -1.
         25    2    1    2    0    0  0.56558852017E+02  0.53639913049E+02 -0.50719433686E+02  0.15586952237E+03  0.12508678202E+03 0.  0.
         23    2    1    2    0    0 -0.56558852017E+02 -0.53639913049E+02 -0.71642898849E+02  0.13833735531E+03  0.89041422416E+02 0.  0.
          5    1    3    3  502    0  0.71536881656E+02 -0.17820154064E+02 -0.31310530696E+02  0.80205392963E+02  0.41800000000E+01 0.  1.
         -5    1    3    3    0  502 -0.14978029639E+02  0.71460067113E+02 -0.19408902990E+02  0.75664129407E+02  0.41800000000E+01 0.  1.
        -11    1    4    4    0    0  0.19492512837E+02 -0.33318151496E+02 -0.15257992623E+02  0.41507392290E+02  0.00000000000E+00 0. -1.
         11    1    4    4    0    0 -0.76051364854E+02 -0.20321761553E+02 -0.56384906226E+02  0.96829963022E+02  0.00000000000E+00 0.  1.
</event>
<event>
 8    1  0.6906553E-009  0.9803509E+02  0.7561462E-02  0.1284483E+00
          3   -1    0    0  501    0  0.00000000000E+00  0.00000000000E+00  0.13074635667E+03  0.13074635667E+03  0.00000000000E+00 0. -1.
         -3   -1    0    0    0  501 -0.00000000000E+00 -0.00000000000E+00 -0.10676874529E+03  0.10676874529E+03  0.00000000000E+00 0.  1.
         25    2    1    2    0    0  0.61745579548E+01  0.35323331430E+02  0.46225417993E+02  0.13808661527E+03  0.12508101830E+03 0.  0.
         23    2    1    2    0    0 -0.61745579548E+01 -0.35323331430E+02 -0.22247806609E+02  0.99428486699E+02  0.90028862922E+02 0.  0.
          5    1    3    3  502    0 -0.14902444965E+02 -0.30399143377E+02 -0.22286016220E+02  0.40747143494E+02  0.41800000000E+01 0. -1.
         -5    1    3    3    0  502  0.21077002920E+02  0.65722474808E+02  0.68511434213E+02  0.97339471772E+02  0.41800000000E+01 0. -1.
        -11    1    4    4    0    0  0.18550788452E+02  0.22950013310E+02 -0.20811571004E+02  0.36110335788E+02  0.00000000000E+00 0.  1.
         11    1    4    4    0    0 -0.24725346406E+02 -0.58273344740E+02 -0.14362356055E+01  0.63318150911E+02  0.00000000000E+00 0. -1.
</event>
<event>
 8    1  0.6906553E-009  0.1619826E+03  0.7561462E-02  0.1186476E+00
          1   -1    0    0  501    0  0.00000000000E+00  0.00000000000E+00  0.29275687175E+03  0.29275687175E+03  0.00000000000E+00 0. -1.
         -1   -1    0    0    0  501 -0.00000000000E+00 -0.00000000000E+00 -0.12279772527E+03  0.12279772527E+03  0.00000000000E+00 0.  1.
         25    2    1    2    0    0 -0.10426191639E+03  0.67117124340E+02 -0.13909236161E+02  0.17668289575E+03  0.12509245865E+03 0.  0.
         23    2    1    2    0    0  0.10426191639E+03 -0.67117124340E+02  0.18386838265E+03  0.23887170127E+03  0.88751630651E+02 0.  0.
          5    1    3    3  502    0  0.23550723060E+02 -0.97141444227E+01  0.50221411824E+01  0.26300103813E+02  0.41800000000E+01 0.  1.
         -5    1    3    3    0  502 -0.12781263945E+03  0.76831268762E+02 -0.18931377343E+02  0.15038279193E+03  0.41800000000E+01 0.  1.
        -11    1    4    4    0    0  0.29039946774E+02  0.18934956044E+02  0.66807571032E+02  0.75266875957E+02  0.00000000000E+00 0.  1.
         11    1    4    4    0    0  0.75221969611E+02 -0.86052080383E+02  0.11706081161E+03  0.16360482531E+03  0.00000000000E+00 0. -1.
</event>
<event>
 8    1  0.6906553E-009  0.1223622E+03  0.7561462E-02  0.1239250E+00
         -1   -1    0    0    0  501 -0.00000000000E+00  0.00000000000E+00  0.47967463742E+03  0.47967463742E+03  0.00000000000E+00 0.  1.
          1   -1    0    0  501    0  0.00000000000E+00 -0.00000000000E+00 -0.39993954280E+02  0.39993954280E+02  0.00000000000E+00 0. -1.
         25    2    1    2    0    0 -0.26055242256E+02 -0.58031290446E+02  0.13312465992E+03  0.19343291563E+03  0.12509041310E+03 0.  0.
         23    2    1    2    0    0  0.26055242256E+02  0.58031290446E+02  0.30655602323E+03  0.32623567608E+03  0.91687592669E+02 0.  0.
          5    1    3    3  502    0 -0.24907704279E+02 -0.93797769263E+02  0.66594940413E+02  0.11777424905E+03  0.41800000000E+01 0.  1.
         -5    1    3    3    0  502 -0.11475379774E+01  0.35766478817E+02  0.66529719504E+02  0.75658666573E+02  0.41800000000E+01 0.  1.
        -11    1    4    4    0    0  0.25547526057E+02 -0.20665398416E+02  0.86564149430E+02  0.92590964710E+02  0.00000000000E+00 0. -1.
         11    1    4    4    0    0  0.50771619917E+00  0.78696688862E+02  0.21999187380E+03  0.23364471137E+03  0.00000000000E+00 0.  1.
</event>
<event>
 8    1  0.6906553E-009  0.1885114E+03  0.7561462E-02  0.1159811E+00
          2   -1    0    0  501    0  0.00000000000E+00  0.00000000000E+00  0.10069368358E+04  0.10069368358E+04  0.00000000000E+00 0. -1.
         -2   -1    0    0    0  501 -0.00000000000E+00 -0.00000000000E+00 -0.49313883458E+02  0.49313883458E+02  0.00000000000E+00 0.  1.
         25    2    1    2    0    0 -0.16677939848E+03  0.76157745151E+02  0.65043684651E+03  0.68726218357E+03  0.12508336328E+03 0.  0.
         23    2    1    2    0    0  0.16677939848E+03 -0.76157745151E+02  0.30718610586E+03  0.36898853572E+03  0.90409435079E+02 0.  0.
          5    1    3    3  502    0 -0.69904357954E+02  0.65881995183E+02  0.15559789109E+03  0.18290771624E+03  0.41800000000E+01 0.  1.
         -5    1    3    3    0  502 -0.96875040524E+02  0.10275749968E+02  0.49483895542E+03  0.50435446733E+03  0.41800000000E+01 0.  1.
        -11    1    4    4    0    0  0.91098600598E+02 -0.40070032780E+02  0.82842558477E+02  0.12948919666E+03  0.00000000000E+00 0.  1.
         11    1    4    4    0    0  0.75680797879E+02 -0.36087712371E+02  0.22434354739E+03  0.23949933905E+03  0.00000000000E+00 0. -1.
</event>
<event>
 8    1  0.6906553E-009  0.1257987E+03  0.7561462E-02  0.1233826E+00
          1   -1    0    0  501    0  0.00000000000E+00  0.00000000000E+00  0.14937538696E+04  0.14937538696E+04  0.00000000000E+00 0. -1.
         -1   -1    0    0    0  501 -0.00000000000E+00 -0.00000000000E+00 -0.26655860692E+02  0.26655860692E+02  0.00000000000E+00 0.  1.
         25    2    1    2    0    0  0.59090093490E+02 -0.65031298539E+02  0.13127565509E+04  0.13216267910E+04  0.12508758372E+03 0.  0.
         23    2    1    2    0    0 -0.59090093490E+02  0.65031298539E+02  0.15434145799E+03  0.19878293936E+03  0.89289766419E+02 0.  0.
          5    1    3    3  502    0  0.21859784526E+02  0.27325695281E+02  0.69404380931E+03  0.69493800115E+03  0.41800000000E+01 0.  1.
         -5    1    3    3    0  502  0.37230308964E+02 -0.92356993819E+02  0.61871274163E+03  0.62668878980E+03  0.41800000000E+01 0.  1.
        -11    1    4    4    0    0 -0.20287418513E+02  0.74111219461E+02  0.13294149524E+03  0.15354964460E+03  0.00000000000E+00 0. -1.
         11    1    4    4    0    0 -0.38802674977E+02 -0.90799209222E+01  0.21399962758E+02  0.45233294766E+02  0.00000000000E+00 0.  1.
</event>
<event>
 8    1  0.6906553E-009  0.1937528E+03  0.7561462E-02  0.1155119E+00
         -2   -1    0    0    0  501 -0.00000000000E+00  0.00000000000E+00  0.35755756139E+02  0.35755756139E+02  0.00000000000E+00 0.  1.
          2   -1    0    0  501    0  0.00000000000E+00 -0.00000000000E+00 -0.13841606539E+04  0.13841606539E+04  0.00000000000E+00 0. -1.
         25    2    1    2    0    0  0.17351994782E+03 -0.25738205724E+02 -0.44419256300E+03  0.49368715828E+03  0.12509336395E+03 0.  0.
         23    2    1    2    0    0 -0.17351994782E+03  0.25738205724E+02 -0.90421233476E+03  0.92622925175E+03  0.97616868136E+02 0.  0.
          5    1    3    3  502    0 -0.13407194632E+01 -0.15458904965E+02 -0.15302653902E+03  0.15386802565E+03  0.41800000000E+01 0. -1.
         -5    1    3    3    0  502  0.17486066729E+03 -0.10279300760E+02 -0.29116602398E+03  0.33981913264E+03  0.41800000000E+01 0. -1.
        -11    1    4    4    0    0 -0.20362373461E+02  0.37440177505E+02 -0.12630340973E+03  0.13330020426E+03  0.00000000000E+00 0.  1.
         11    1    4    4    0    0 -0.15315757436E+03 -0.11701971780E+02 -0.77790892502E+03  0.79292904749E+03  0.00000000000E+00 0. -1.
</event>
<event>
 8    1  0.6906553E-009  0.1553585E+03  0.7561462E-02  0.1194039E+00
          3   -1    0    0  501    0  0.00000000000E+00  0.00000000000E+00  0.67291318047E+03  0.67291318047E+03  0.00000000000E+00 0. -1.
         -3   -1    0    0    0  501 -0.00000000000E+00 -0.00000000000E+00 -0.54056386159E+02  0.54056386159E+02  0.00000000000E+00 0.  1.
         25    2    1    2    0    0 -0.74392081197E+02 -0.12263048145E+03  0.44595370455E+03  0.48486602762E+03  0.12509173197E+03 0.  0.
         23    2    1    2    0    0  0.74392081197E+02  0.12263048145E+03  0.17290308976E+03  0.24210353901E+03  0.90256459201E+02 0.  0.
          5    1    3    3  502    0  0.25266606698E+01 -0.49862519820E+02  0.30193209507E+03  0.30606064322E+03  0.41800000000E+01 0. -1.
         -5    1    3    3    0  502 -0.76918741867E+02 -0.72767961632E+02  0.14402160949E+03  0.17880538440E+03  0.41800000000E+01 0. -1.
        -11    1    4    4    0    0  0.39061630685E+02  0.15815730425E+02  0.98728154323E+02  0.10734615399E+03  0.00000000000E+00 0. -1.
         11    1    4    4    0    0  0.35330450512E+02  0.10681475103E+03  0.74174935432E+02  0.13475738502E+03  0.00000000000E+00 0.  1.
</event>
<event>
 8    1  0.6906553E-009  0.1104379E+03  0.7561462E-02  0.1259761E+00
          1   -1    0    0  501    0  0.00000000000E+00  0.00000000000E+00  0.25979547060E+02  0.25979547060E+02  0.00000000000E+00 0. -1.
         -1   -1    0    0    0  501 -0.00000000000E+00 -0.00000000000E+00 -0.54116548319E+03  0.54116548319E+03  0.00000000000E+00 0.  1.
         25    2    1    2    0    0  0.20390613711E+02  0.14067388639E+02 -0.19120889098E+03  0.22983092635E+03  0.12509095157E+03 0.  0.
         23    2    1    2    0    0 -0.20390613711E+02 -0.14067388639E+02 -0.32397704515E+03  0.33731410390E+03  0.90587031953E+02 0.  0.
          5    1    3    3  502    0  0.73254815346E+02  0.87597247762E+01 -0.11917586914E+03  0.14022610647E+03  0.41800000000E+01 0.  1.
         -5    1    3    3    0  502 -0.52864201636E+02  0.53076638627E+01 -0.72033021837E+02  0.89604819877E+02  0.41800000000E+01 0.  1.
        -11    1    4    4    0    0  0.24120666102E+02  0.24799050093E+02 -0.13113577650E+03  0.13562223748E+03  0.00000000000E+00 0.  1.
         11    1    4    4    0    0 -0.44511279813E+02 -0.38866438732E+02 -0.19284126864E+03  0.20169186643E+03  0.00000000000E+00 0. -1.
</event>
<event>
 8    1  0.6906553E-009  0.1222309E+03  0.7561462E-02  0.1239462E+00
         -2   -1    0    0    0  501 -0.00000000000E+00  0.00000000000E+00  0.27162680497E+03  0.27162680497E+03  0.00000000000E+00 0.  1.
          2   -1    0    0  501    0  0.00000000000E+00 -0.00000000000E+00 -0.95162013212E+02  0.95162013212E+02  0.00000000000E+00 0. -1.
         25    2    1    2    0    0 -0.10561471544E+03  0.48324776320E+02  0.68636176649E+02  0.18397428910E+03  0.12508342088E+03 0.  0.
         23    2    1    2    0    0  0.10561471544E+03 -0.48324776320E+02  0.10782861511E+03  0.18281452908E+03  0.91128424124E+02 0.  0.
          5    1    3    3  502    0 -0.45273809627E+02  0.33014039636E+02 -0.32670118658E+02  0.64995797590E+02  0.41800000000E+01 0. -1.
         -5    1    3    3    0  502 -0.60340905817E+02  0.15310736684E+02  0.10130629531E+03  0.11897849151E+03  0.41800000000E+01 0. -1.
        -11    1    4    4    0    0  0.82623399190E+02 -0.57986961414E+02  0.11852073510E+03  0.15568005150E+03  0.00000000000E+00 0.  1.
         11    1    4    4    0    0  0.22991316254E+02  0.96621850942E+01 -0.10692119987E+02  0.27134477583E+02  0.00000000000E+00 0. -1.
</event>
<event>
 8    1  0.6906553E-009  0.1018881E+03  0.7561462E-02  0.1276375E+00
          1   -1    0    0  501    0  0.00000000000E+00  0.00000000000E+00  0.33774770780E+02  0.33774770780E+02  0.00000000000E+00 0. -1.
         -1   -1    0    0    0  501 -0.00000000000E+00 -0.00000000000E+00 -0.36626122945E+03  0.36626122945E+03  0.00000000000E+00 0.  1.
         25    2    1    2    0    0  0.96291410618E+01  0.14123622183E+02 -0.24553719661E+03  0.27609429110E+03  0.12508935047E+03 0.  0.
         23    2    1    2    0    0 -0.96291410618E+01 -0.14123622183E+02 -0.86949262058E+02  0.12394170912E+03  0.86655501999E+02 0.  0.
          5    1    3    3  502    0 -0.51796316773E+02  0.14316120897E+02 -0.60228392702E+02  0.80825376190E+02  0.41800000000E+01 0.  1.
         -5    1    3    3    0  502  0.61425457835E+02 -0.19249871407E+00 -0.18530880391E+03  0.19526891491E+03  0.41800000000E+01 0.  1.
        -11    1    4    4    0    0  0.87797377858E+01  0.34876043540E+02 -0.36629282556E+02  0.51333483704E+02  0.00000000000E+00 0.  1.
         11    1    4    4    0    0 -0.18408878848E+02 -0.48999665723E+02 -0.50319979502E+02  0.72608225419E+02  0.00000000000E+00 0. -1.
</event>
<event>
 8    1  0.6906553E-009  0.1167539E+03  0.7561462E-02  0.1248550E+00
          2   -1    0    0  501    0  0.00000000000E+00  0.00000000000E+00  0.12048394671E+03  0.12048394671E+03  0.00000000000E+00 0. -1.
         -2   -1    0    0    0  501 -0.00000000000E+00 -0.00000000000E+00 -0.11564640279E+03  0.11564640279E+03  0.00000000000E+00 0.  1.
         25    2    1    2    0    0  0.31489446288E+02 -0.33791087657E+02  0.16763166280E+02  0.13439760957E+03  0.12509312883E+03 0.  0.
         23    2    1    2    0    0 -0.31489446288E+02  0.33791087657E+02 -0.11925622356E+02  0.10173273993E+03  0.89854922362E+02 0.  0.
          5    1    3    3  502    0 -0.21093409019E+01  0.45887518100E+02  0.12158898959E+02  0.47701413609E+02  0.41800000000E+01 0.  1.
         -5    1    3    3    0  502  0.33598787190E+02 -0.79678605757E+02  0.46042673204E+01  0.86696195958E+02  0.41800000000E+01 0.  1.
        -11    1    4    4    0    0 -0.17429952780E+02  0.64617514369E+02 -0.47163316917E+01  0.67092996667E+02  0.00000000000E+00 0.  1.
         11    1    4    4    0    0 -0.14059493508E+02 -0.30826426712E+02 -0.72092906643E+01  0.34639743264E+02  0.00000000000E+00 0. -1.
</event>
<event>
 8    1  0.6906553E-009  0.1211989E+03  0.7561462E-02  0.1241132E+00
          2   -1    0    0  501    0  0.00000000000E+00  0.00000000000E+00  0.20172921146E+04  0.20172921146E+04  0.00000000000E+00 0. -1.
         -2   -1    0    0    0  501 -0.00000000000E+00 -0.00000000000E+00 -0.89206589074E+01  0.89206589074E+01  0.00000000000E+00 0.  1.
         25    2    1    2    0    0  0.38154440774E+01  0.68250337699E+02  0.14364175574E+04  0.14434733093E+04  0.12508848628E+03 0.  0.
         23    2    1    2    0    0 -0.38154440774E+01 -0.68250337699E+02  0.57195389834E+03  0.58273946421E+03  0.88211989557E+02 0.  0.
          5    1    3    3  502    0 -0.53314244033E+02  0.24796705058E+02  0.37312095486E+03  0.37774859968E+03  0.41800000000E+01 0. -1.
         -5    1    3    3    0  502  0.57129688110E+02  0.43453632642E+02  0.10632966025E+04  0.10657247096E+04  0.41800000000E+01 0. -1.
        -11    1    4    4    0    0  0.71158491793E+01 -0.88368932303E+02  0.44765307914E+03  0.45634743646E+03  0.00000000000E+00 0.  1.
         11    1    4    4    0    0 -0.10931293257E+02  0.20118594604E+02  0.12430081921E+03  0.12639202774E+03  0.00000000000E+00 0. -1.
</event>
<event>
 8    1  0.6906553E-009  0.1152850E+03  0.7561462E-02  0.1251084E+00
          1   -1    0    0  501    0  0.00000000000E+00  0.00000000000E+00  0.10741601674E+03  0.10741601674E+03  0.00000000000E+00 0. -1.
         -1   -1    0    0    0  501 -0.00000000000E+00 -0.00000000000E+00 -0.16960425242E+03  0.16960425242E+03  0.00000000000E+00 0.  1.
         25    2    1    2    0    0 -0.76557318038E+02  0.19765106509E+02 -0.56034562524E+02  0.15824422324E+03  0.12509867950E+03 0.  0.
         23    2    1    2    0    0  0.76557318038E+02 -0.19765106509E+02 -0.61536731561E+01  0.11877604593E+03  0.88420580250E+02 0.  0.
          5    1    3    3  502    0 -0.10784775616E+02 -0.28556437386E+02 -0.68938257774E+02  0.75509848935E+02  0.41800000000E+01 0.  1.
         -5    1    3    3    0  502 -0.65772542422E+02  0.48321543895E+02  0.12903695250E+02  0.82734374308E+02  0.41800000000E+01 0.  1.
        -11    1    4    4    0    0  0.85821710786E+02 -0.40820169027E+02 -0.95900243361E+01  0.95517646581E+02  0.00000000000E+00 0.  1.
         11    1    4    4    0    0 -0.92643927477E+01  0.21055062518E+02  0.34363511801E+01  0.23258399344E+02  0.00000000000E+00 0. -1.
</event>
<event>
 8    1  0.6906553E-009  0.9932947E+02  0.7561462E-02  0.1281712E+00
         -1   -1    0    0    0  501 -0.00000000000E+00  0.00000000000E+00  0.36867378917E+02  0.36867378917E+02  0.00000000000E+00 0.  1.
          1   -1    0    0  501    0  0.00000000000E+00 -0.00000000000E+00 -0.41179515770E+03  0.41179515770E+03  0.00000000000E+00 0. -1.
         25    2    1    2    0    0  0.54429312428E+02 -0.57678340715E+01 -0.16971547988E+03  0.21781534081E+03  0.12507741851E+03 0.  0.
         23    2    1    2    0    0 -0.54429312428E+02  0.57678340715E+01 -0.20521229890E+03  0.23084719580E+03  0.90457295051E+02 0.  0.
          5    1    3    3  502    0 -0.21773893499E+02  0.40247224571E+02 -0.43234490944E+02  0.63092274733E+02  0.41800000000E+01 0. -1.
         -5    1    3    3    0  502  0.76203205927E+02 -0.46015058643E+02 -0.12648098894E+03  0.15472306608E+03  0.41800000000E+01 0. -1.
        -11    1    4    4    0    0 -0.16240344502E+02 -0.13222175182E+02  0.31172884139E+00  0.20944495242E+02  0.00000000000E+00 0.  1.
         11    1    4    4    0    0 -0.38188967927E+02  0.18990009253E+02 -0.20552402774E+03  0.20990270056E+03  0.00000000000E+00 0. -1.
</event>
<event>
 8    1  0.6906553E-009  0.1512141E+03  0.7561462E-02  0.1198989E+00
         -2   -1    0    0    0  501 -0.00000000000E+00  0.00000000000E+00  0.32463635696E+02  0.32463635696E+02  0.00000000000E+00 0.  1.
          2   -1    0    0  501    0  0.00000000000E+00 -0.00000000000E+00 -0.99402940270E+03  0.99402940270E+03  0.00000000000E+00 0. -1.
         25    2    1    2    0    0  0.25412283790E+02 -0.11133348961E+03 -0.75296341809E+03  0.77177902883E+03  0.12509208724E+03 0.  0.
         23    2    1    2    0    0 -0.25412283790E+02  0.11133348961E+03 -0.20860234892E+03  0.25471400957E+03  0.91232431832E+02 0.  0.
          5    1    3    3  502    0  0.18311233767E+02  0.18475058847E+02 -0.28062187257E+03  0.28185587956E+03  0.41800000000E+01 0.  1.
         -5    1    3    3    0  502  0.71010500230E+01 -0.12980854846E+03 -0.47234154552E+03  0.48992314927E+03  0.41800000000E+01 0.  1.
        -11    1    4    4    0    0 -0.37885841170E+02  0.12314067763E+03 -0.18765402075E+03  0.22762468001E+03  0.00000000000E+00 0.  1.
         11    1    4    4    0    0  0.12473557380E+02 -0.11807188015E+02 -0.20948328172E+02  0.27089329555E+02  0.00000000000E+00 0. -1.
</event>
<event>
 8    1  0.6906553E-009  0.1116017E+03  0.7561462E-02  0.1257632E+00
         -2   -1    0    0    0  501 -0.00000000000E+00  0.00000000000E+00  0.22236912527E+02  0.22236912527E+02  0.00000000000E+00 0.  1.
          2   -1    0    0  501    0  0.00000000000E+00 -0.00000000000E+00 -0.74524002106E+03  0.74524002106E+03  0.00000000000E+00 0. -1.
         25    2    1    2    0    0  0.60028795109E+02 -0.71842325484E+01 -0.49448240065E+03  0.51363024608E+03  0.12509242863E+03 0.  0.
         23    2    1    2    0    0 -0.60028795109E+02  0.71842325484E+01 -0.22852070789E+03  0.25384668751E+03  0.92527603371E+02 0.  0.
          5    1    3    3  502    0  0.32158731002E+00  0.46593566376E+02 -0.92311112128E+02  0.10348853883E+03  0.41800000000E+01 0. -1.
         -5    1    3    3    0  502  0.59707207799E+02 -0.53777798925E+02 -0.40217128852E+03  0.41014170726E+03  0.41800000000E+01 0. -1.
        -11    1    4    4    0    0 -0.37475339592E+02  0.40849796094E+02 -0.19005604965E+03  0.19797577864E+03  0.00000000000E+00 0. -1.
         11    1    4    4    0    0 -0.22553455517E+02 -0.33665563546E+02 -0.38464658236E+02  0.55870908869E+02  0.00000000000E+00 0.  1.
</event>
<event>
 8    1  0.6906553E-009  0.1003709E+03  0.7561462E-02  0.1279518E+00
          2   -1    0    0  501    0  0.00000000000E+00  0.00000000000E+00  0.23563788595E+02  0.23563788595E+02  0.00000000000E+00 0. -1.
         -2   -1    0    0    0  501 -0.00000000000E+00 -0.00000000000E+00 -0.52968677814E+03  0.52968677814E+03  0.00000000000E+00 0.  1.
         25    2    1    2    0    0 -0.11840881838E+02 -0.27603010823E+01 -0.23141443329E+03  0.26334313918E+03  0.12509653582E+03 0.  0.
         23    2    1    2    0    0  0.11840881838E+02  0.27603010823E+01 -0.27470855626E+03  0.28990742756E+03  0.91835178050E+02 0.  0.
          5    1    3    3  502    0 -0.30997922659E+02  0.46162077188E+02 -0.18463721408E+03  0.19287348653E+03  0.41800000000E+01 0.  1.
         -5    1    3    3    0  502  0.19157040821E+02 -0.48922378270E+02 -0.46777219204E+02  0.70469652653E+02  0.41800000000E+01 0.  1.
        -11    1    4    4    0    0  0.25250539750E+02 -0.40088083443E+02 -0.12823444584E+03  0.13670668342E+03  0.00000000000E+00 0. -1.
         11    1    4    4    0    0 -0.13409657912E+02  0.42848384526E+02 -0.14647411041E+03  0.15320074413E+03  0.00000000000E+00 0.  1.
</event>
<event>
 8    1  0.6906553E-009  0.1761254E+03  0.7561462E-02  0.1171606E+00
         -1   -1    0    0    0  501 -0.00000000000E+00  0.00000000000E+00  0.94328559868E+02  0.94328559868E+02  0.00000000000E+00 0.  1.
          1   -1    0    0  501    0  0.00000000000E+00 -0.00000000000E+00 -0.39586877661E+03  0.39586877661E+03  0.00000000000E+00 0. -1.
         25    2    1    2    0    0 -0.13103990283E+03  0.88953517021E+02 -0.13793073729E+03  0.24444934053E+03  0.12508560059E+03 0.  0.
         23    2    1    2    0    0  0.13103990283E+03 -0.88953517021E+02 -0.16360947945E+03  0.24574799595E+03  0.92411208314E+02 0.  0.
          5    1    3    3  502    0 -0.14983104327E+02  0.43390053932E+02  0.13708754349E+02  0.48089422343E+02  0.41800000000E+01 0. -1.
         -5    1    3    3    0  502 -0.11605679850E+03  0.45563463089E+02 -0.15163949164E+03  0.19635991819E+03  0.41800000000E+01 0. -1.
        -11    1    4    4    0    0  0.34759318032E+02  0.16615202883E+02 -0.21007142926E+02  0.43881376583E+02  0.00000000000E+00 0.  1.
         11    1    4    4    0    0  0.96280584794E+02 -0.10556871990E+03 -0.14260233653E+03  0.20186661936E+03  0.00000000000E+00 0. -1.
</event>
<event>
 8    1  0.6906553E-009  0.3286529E+03  0.7561462E-02  0.1071734E+00
          2   -1    0    0  501    0  0.00000000000E+00  0.00000000000E+00  0.58929625711E+03  0.58929625711E+03  0.00000000000E+00 0. -1.
         -2   -1    0    0    0  501 -0.00000000000E+00 -0.00000000000E+00 -0.22674115973E+03  0.22674115973E+03  0.00000000000E+00 0.  1.
         25    2    1    2    0    0 -0.48543515989E+02 -0.31778267800E+03  0.32431035390E+02  0.34647091067E+03  0.12509203213E+03 0.  0.
         23    2    1    2    0    0  0.48543515989E+02  0.31778267800E+03  0.33012406199E+03  0.46956650616E+03  0.90379776639E+02 0.  0.
          5    1    3    3  502    0 -0.28481025394E+02 -0.28144839852E+03  0.68761789631E+02  0.29115292536E+03  0.41800000000E+01 0. -1.
         -5    1    3    3    0  502 -0.20062490595E+02 -0.36334279485E+02 -0.36330754241E+02  0.55317985305E+02  0.41800000000E+01 0. -1.
        -11    1    4    4    0    0 -0.72185567211E+01  0.21992778809E+03  0.19867702001E+03  0.29646736383E+03  0.00000000000E+00 0. -1.
         11    1    4    4    0    0  0.55762072711E+02  0.97854889910E+02  0.13144704198E+03  0.17309914233E+03  0.00000000000E+00 0.  1.
</event>
<event>
 8    1  0.6906553E-009  0.1740618E+03  0.7561462E-02  0.1173677E+00
          3   -1    0    0  501    0  0.00000000000E+00  0.00000000000E+00  0.16227081246E+03  0.16227081246E+03  0.00000000000E+00 0. -1.
         -3   -1    0    0    0  501 -0.00000000000E+00 -0.00000000000E+00 -0.29098879270E+03  0.29098879270E+03  0.00000000000E+00 0.  1.
         25    2    1    2    0    0  0.67150892053E+02 -0.15239642241E+03 -0.15738245195E+03  0.26105603972E+03  0.12508840005E+03 0.  0.
         23    2    1    2    0    0 -0.67150892053E+02  0.15239642241E+03  0.28664471708E+02  0.19220356543E+03  0.91578637037E+02 0.  0.
          5    1    3    3  502    0  0.31659269946E+02 -0.10021068492E+02  0.13227073439E+02  0.35988318369E+02  0.41800000000E+01 0.  1.
         -5    1    3    3    0  502  0.35491622107E+02 -0.14237535391E+03 -0.17060952539E+03  0.22506772135E+03  0.41800000000E+01 0.  1.
        -11    1    4    4    0    0 -0.60843005366E+02  0.11665474426E+03 -0.18315672139E+02  0.13283698471E+03  0.00000000000E+00 0.  1.
         11    1    4    4    0    0 -0.63078866867E+01  0.35741678142E+02  0.46980143847E+02  0.59366580723E+02  0.00000000000E+00 0. -1.
</event>
<event>
 8    1  0.6906553E-009  0.1766961E+03  0.7561462E-02  0.1171039E+00
          2   -1    0    0  501    0  0.00000000000E+00  0.00000000000E+00  0.22885125513E+03  0.22885125513E+03  0.00000000000E+00 0. -1.
         -2   -1    0    0    0  501 -0.00000000000E+00 -0.00000000000E+00 -0.18972330515E+03  0.18972330515E+03  0.00000000000E+00 0.  1.
         25    2    1    2    0    0  0.14054893278E+03  0.76117274551E+02 -0.57612747505E+02  0.21098555429E+03  0.12509130047E+03 0.  0.
         23    2    1    2    0    0 -0.14054893278E+03 -0.76117274551E+02  0.96740697480E+02  0.20758900599E+03  0.90479781552E+02 0.  0.
          5    1    3    3  502    0 -0.74396711050E+01  0.14440219318E+02  0.25365697985E+02  0.30409861466E+02  0.41800000000E+01 0.  1.
         -5    1    3    3    0  502  0.14798860389E+03  0.61677055233E+02 -0.82978445490E+02  0.18057569282E+03  0.41800000000E+01 0.  1.
        -11    1    4    4    0    0 -0.12664057446E+03 -0.32909852303E+02  0.44094615031E+02  0.13807689363E+03  0.00000000000E+00 0.  1.
         11    1    4    4    0    0 -0.13908358317E+02 -0.43207422248E+02  0.52646082449E+02  0.69512112367E+02  0.00000000000E+00 0. -1.
</event>
<event>
 8    1  0.6906553E-009  0.1128193E+03  0.7561462E-02  0.1255436E+00
         -1   -1    0    0    0  501 -0.00000000000E+00  0.00000000000E+00  0.29286982395E+02  0.29286982395E+02  0.00000000000E+00 0.  1.
          1   -1    0    0  501    0  0.00000000000E+00 -0.00000000000E+00 -0.63134346846E+03  0.63134346846E+03  0.00000000000E+00 0. -1.
         25    2    1    2    0    0  0.28478783586E+02  0.34416095516E+02 -0.49397913810E+03  0.51152462353E+03  0.12508614173E+03 0.  0.
         23    2    1    2    0    0 -0.28478783586E+02 -0.34416095516E+02 -0.10807734796E+03  0.14910582732E+03  0.92500410023E+02 0.  0.
          5    1    3    3  502    0 -0.37020075986E+02 -0.23805845077E+02 -0.19431434312E+03  0.19928055758E+03  0.41800000000E+01 0.  1.
         -5    1    3    3    0  502  0.65498859572E+02  0.58221940593E+02 -0.29966479498E+03  0.31224406595E+03  0.41800000000E+01 0.  1.
        -11    1    4    4    0    0  0.70011160517E-01  0.26457028586E+02 -0.62526044309E+02  0.67893191706E+02  0.00000000000E+00 0.  1.
         11    1    4    4    0    0 -0.28548794746E+02 -0.60873124103E+02 -0.45551303652E+02  0.81212635617E+02  0.00000000000E+00 0. -1.
</event>
<event>
 8    1  0.6906553E-009  0.1993770E+03  0.7561462E-02  0.1150266E+00
         -2   -1    0    0    0  501 -0.00000000000E+00  0.00000000000E+00  0.21678038054E+02  0.21678038054E+02  0.00000000000E+00 0.  1.
          2   -1    0    0  501    0  0.00000000000E+00 -0.00000000000E+00 -0.21348648255E+04  0.21348648255E+04  0.00000000000E+00 0. -1.
         25    2    1    2    0    0 -0.49602429498E+02 -0.15862639219E+03 -0.14978717426E+04  0.15122469537E+04  0.12509339786E+03 0.  0.
         23    2    1    2    0    0  0.49602429498E+02  0.15862639219E+03 -0.61531504485E+03  0.64429590993E+03  0.94243736201E+02 0.  0.
          5    1    3    3  502    0 -0.64801836189E+02 -0.17398006837E+03 -0.13120456012E+04  0.13251224375E+04  0.41800000000E+01 0.  1.
         -5    1    3    3    0  502  0.15199406691E+02  0.15353676180E+02 -0.18582614138E+03  0.18712451618E+03  0.41800000000E+01 0.  1.
        -11    1    4    4    0    0  0.67244287403E+02  0.57753245334E+02 -0.28126809151E+03  0.29490502002E+03  0.00000000000E+00 0.  1.
         11    1    4    4    0    0 -0.17641857905E+02  0.10087314686E+03 -0.33404695335E+03  0.34939088991E+03  0.00000000000E+00 0. -1.
</event>
<event>
 8    1  0.6906553E-009  0.1232733E+03  0.7561462E-02  0.1237793E+00
          1   -1    0    0  501    0  0.00000000000E+00  0.00000000000E+00  0.47948027062E+03  0.47948027062E+03  0.00000000000E+00 0. -1.
         -1   -1    0    0    0  501 -0.00000000000E+00 -0.00000000000E+00 -0.42091651378E+02  0.42091651378E+02  0.00000000000E+00 0.  1.
         25    2    1    2    0    0 -0.87318826992E+00  0.87045133064E+02  0.28406131411E+03  0.32236124739E+03  0.12509326919E+03 0.  0.
         23    2    1    2    0    0  0.87318826992E+00 -0.87045133064E+02  0.15332730513E+03  0.19921067461E+03  0.92725469700E+02 0.  0.
          5    1    3    3  502    0 -0.51491113799E+02  0.57719159673E+02  0.85738319622E+02  0.11554812004E+03  0.41800000000E+01 0.  1.
         -5    1    3    3    0  502  0.50617925529E+02  0.29325973391E+02  0.19832299449E+03  0.20681312735E+03  0.41800000000E+01 0.  1.
        -11    1    4    4    0    0  0.34099840558E+02 -0.36521800073E+02  0.21930676332E+02  0.54567348946E+02  0.00000000000E+00 0.  1.
         11    1    4    4    0    0 -0.33226652288E+02 -0.50523332991E+02  0.13139662880E+03  0.14464332566E+03  0.00000000000E+00 0. -1.
</event>
<event>
 8    1  0.6906553E-009  0.1116463E+03  0.7561462E-02  0.1257551E+00
          1   -1    0    0  501    0  0.00000000000E+00  0.00000000000E+00  0.77033775835E+03  0.77033775835E+03  0.00000000000E+00 0. -1.
         -1   -1    0    0    0  501 -0.00000000000E+00 -0.00000000000E+00 -0.24318744417E+02  0.24318744417E+02  0.00000000000E+00 0.  1.
         25    2    1    2    0    0 -0.27788131097E+02 -0.78012060669E+02  0.43686470605E+03  0.46190548422E+03  0.12509133912E+03 0.  0.
         23    2    1    2    0    0  0.27788131097E+02  0.78012060669E+02  0.30915430788E+03  0.33275101854E+03  0.91042805422E+02 0.  0.
          5    1    3    3  502    0 -0.57554293381E+02 -0.64258839355E+02  0.14956404420E+03  0.17270949841E+03  0.41800000000E+01 0. -1.
         -5    1    3    3    0  502  0.29766162284E+02 -0.13753221314E+02  0.28730066185E+03  0.28919598582E+03  0.41800000000E+01 0. -1.
        -11    1    4    4    0    0  0.42797826893E+02  0.26781353326E+02  0.24072035539E+03  0.24595768817E+03  0.00000000000E+00 0.  1.
         11    1    4    4    0    0 -0.15009695796E+02  0.51230707343E+02  0.68433952491E+02  0.86793330368E+02  0.00000000000E+00 0. -1.
</event>
<event>
 8    1  0.6906553E-009  0.1351964E+03  0.7561462E-02  0.1219943E+00
          2   -1    0    0  501    0  0.00000000000E+00  0.00000000000E+00  0.36361885425E+03  0.36361885425E+03  0.00000000000E+00 0. -1.
         -2   -1    0    0    0  501 -0.00000000000E+00 -0.00000000000E+00 -0.71300888087E+02  0.71300888087E+02  0.00000000000E+00 0.  1.
         25    2    1    2    0    0  0.84541482950E+02  0.65423717052E+02  0.87921024890E+02  0.18656189925E+03  0.12509080919E+03 0.  0.
         23    2    1    2    0    0 -0.84541482950E+02 -0.65423717052E+02  0.20439694127E+03  0.24835784308E+03  0.92065104830E+02 0.  0.
          5    1    3    3  502    0  0.39003459072E+02  0.94162697194E+02  0.27766159024E+02  0.10571809377E+03  0.41800000000E+01 0. -1.
         -5    1    3    3    0  502  0.45538023878E+02 -0.28738980142E+02  0.60154865866E+02  0.80843805487E+02  0.41800000000E+01 0. -1.
        -11    1    4    4    0    0 -0.31629439320E+02 -0.50171455983E+02  0.32024041444E+02  0.67402786719E+02  0.00000000000E+00 0.  1.
         11    1    4    4    0    0 -0.52912043631E+02 -0.15252261069E+02  0.17237289982E+03  0.18095505636E+03  0.00000000000E+00 0. -1.
</event>
<event>
 8    1  0.6906553E-009  0.8600240E+02  0.7561462E-02  0.1312832E+00
          2   -1    0    0  501    0  0.00000000000E+00  0.00000000000E+00  0.39565842061E+03  0.39565842061E+03  0.00000000000E+00 0. -1.
         -2   -1    0    0    0  501 -0.00000000000E+00 -0.00000000000E+00 -0.49647490877E+02  0.49647490877E+02  0.00000000000E+00 0.  1.
         25    2    1    2    0    0 -0.52558150401E+02  0.49115618835E+02  0.27056874790E+03  0.30664379267E+03  0.12509302560E+03 0.  0.
         23    2    1    2    0    0  0.52558150401E+02 -0.49115618835E+02  0.75442181826E+02  0.13866211882E+03  0.91438269934E+02 0.  0.
          5    1    3    3  502    0 -0.56009428085E+02  0.72955437517E+01  0.25574959036E+03  0.26194580806E+03  0.41800000000E+01 0.  1.
         -5    1    3    3    0  502  0.34512776839E+01  0.41820075083E+02  0.14819157546E+02  0.44697984607E+02  0.41800000000E+01 0.  1.
        -11    1    4    4    0    0  0.88609701115E+01 -0.16292446236E+02  0.81584886953E+02  0.83666327604E+02  0.00000000000E+00 0. -1.
         11    1    4    4    0    0  0.43697180289E+02 -0.32823172599E+02 -0.61427051262E+01  0.54995791211E+02  0.00000000000E+00 0.  1.
</event>
<event>
 8    1  0.6906553E-009  0.1785714E+03  0.7561462E-02  0.1169193E+00
         -1   -1    0    0    0  501 -0.00000000000E+00  0.00000000000E+00  0.48565532098E+02  0.48565532098E+02  0.00000000000E+00 0.  1.
          1   -1    0    0  501    0  0.00000000000E+00 -0.00000000000E+00 -0.77922329970E+03  0.77922329970E+03  0.00000000000E+00 0. -1.
         25    2    1    2    0    0 -0.13871498380E+03 -0.68878014237E+02 -0.47701435997E+03  0.51689257250E+03  0.12509677979E+03 0.  0.
         23    2    1    2    0    0  0.13871498380E+03  0.68878014237E+02 -0.25364340764E+03  0.31089625930E+03  0.91298840263E+02 0.  0.
          5    1    3    3  502    0 -0.96530792376E+02  0.68722596481E+01 -0.34921712082E+03  0.36240238921E+03  0.41800000000E+01 0. -1.
         -5    1    3    3    0  502 -0.42184191426E+02 -0.75750273885E+02 -0.12779723914E+03  0.15449018329E+03  0.41800000000E+01 0. -1.
        -11    1    4    4    0    0  0.88495921736E+02  0.82976450890E+02 -0.21157013141E+03  0.24388222582E+03  0.00000000000E+00 0. -1.
         11    1    4    4    0    0  0.50219062066E+02 -0.14098436653E+02 -0.42073276226E+02  0.67014033480E+02  0.00000000000E+00 0.  1.
</event>
<event>
 8    1  0.6906553E-009  0.1054570E+03  0.7561462E-02  0.1269222E+00
          1   -1    0    0  501    0  0.00000000000E+00  0.00000000000E+00  0.58917088402E+03  0.58917088402E+03  0.00000000000E+00 0. -1.
         -1   -1    0    0    0  501 -0.00000000000E+00 -0.00000000000E+00 -0.22185036930E+02  0.22185036930E+02  0.00000000000E+00 0.  1.
         25    2    1    2    0    0 -0.33998308375E+02 -0.16268555357E+01  0.29649929635E+03  0.32360136687E+03  0.12508988877E+03 0.  0.
         23    2    1    2    0    0  0.33998308375E+02  0.16268555357E+01  0.27048655073E+03  0.28775455408E+03  0.92093309378E+02 0.  0.
          5    1    3    3  502    0 -0.19599667093E+02  0.54041914460E+02  0.74248024579E+02  0.93994239305E+02  0.41800000000E+01 0. -1.
         -5    1    3    3    0  502 -0.14398641282E+02 -0.55668769996E+02  0.22225127177E+03  0.22960712757E+03  0.41800000000E+01 0. -1.
        -11    1    4    4    0    0 -0.19316240030E+02 -0.28467006188E+02  0.67871595864E+02  0.76092319556E+02  0.00000000000E+00 0.  1.
         11    1    4    4    0    0  0.53314548405E+02  0.30093861724E+02  0.20261495487E+03  0.21166223452E+03  0.00000000000E+00 0. -1.
</event>
<event>
 8    1  0.6906553E-009  0.1411666E+03  0.7561462E-02  0.1211768E+00
          1   -1    0    0  501    0  0.00000000000E+00  0.00000000000E+00  0.72300723797E+02  0.72300723797E+02  0.00000000000E+00 0. -1.
         -1   -1    0    0    0  501 -0.00000000000E+00 -0.00000000000E+00 -0.30101618895E+03  0.30101618895E+03  0.00000000000E+00 0.  1.
         25    2    1    2    0    0  0.35217492906E+02  0.90366760649E+02 -0.12531523875E+03  0.20188545629E+03  0.12508958855E+03 0.  0.
         23    2    1    2    0    0 -0.35217492906E+02 -0.90366760649E+02 -0.10340022640E+03  0.17143145645E+03  0.96388350980E+02 0.  0.
          5    1    3    3  502    0 -0.11240726826E+01  0.10617579758E+03 -0.12215836261E+03  0.16190954724E+03  0.41800000000E+01 0.  1.
         -5    1    3    3    0  502  0.36341565588E+02 -0.15809036927E+02 -0.31568761357E+01  0.39975909057E+02  0.41800000000E+01 0.  1.
        -11    1    4    4    0    0  0.33281118559E+02 -0.33035748555E+02 -0.28622818535E+02  0.54938686515E+02  0.00000000000E+00 0.  1.
         11    1    4    4    0    0 -0.68498611465E+02 -0.57331012093E+02 -0.74777407870E+02  0.11649276994E+03  0.00000000000E+00 0. -1.
</event>
<event>
 8    1  0.6906553E-009  0.1067541E+03  0.7561462E-02  0.1266702E+00
         -1   -1    0    0    0  501 -0.00000000000E+00  0.00000000000E+00  0.35460808664E+02  0.35460808664E+02  0.00000000000E+00 0.  1.
          1   -1    0    0  501    0  0.00000000000E+00 -0.00000000000E+00 -0.40015906325E+03  0.40015906325E+03  0.00000000000E+00 0. -1.
         25    2    1    2    0    0 -0.37803632159E+02 -0.22309444027E+02 -0.17078263962E+03  0.21619520658E+03  0.12508729533E+03 0.  0.
         23    2    1    2    0    0  0.37803632159E+02  0.22309444027E+02 -0.19391561496E+03  0.21942466534E+03  0.92828293822E+02 0.  0.
          5    1    3    3  502    0 -0.43280071335E+02 -0.63066269656E+02 -0.58020177408E+02  0.96095433448E+02  0.41800000000E+01 0.  1.
         -5    1    3    3    0  502  0.54764391760E+01  0.40756825628E+02 -0.11276246221E+03  0.12009977313E+03  0.41800000000E+01 0.  1.
        -11    1    4    4    0    0  0.33448072471E+02 -0.28883128725E+02 -0.13066878317E+03  0.13793962292E+03  0.00000000000E+00 0. -1.
         11    1    4    4    0    0  0.43555596878E+01  0.51192572752E+02 -0.63246831797E+02  0.81485042416E+02  0.00000000000E+00 0.  1.
</event>
<event>
 8    1  0.6906553E-009  0.1117338E+03  0.7561462E-02  0.1257392E+00
          1   -1    0    0  501    0  0.00000000000E+00  0.00000000000E+00  0.22876875694E+02  0.22876875694E+02  0.00000000000E+00 0. -1.
         -1   -1    0    0    0  501 -0.00000000000E+00 -0.00000000000E+00 -0.69458896568E+03  0.69458896568E+03  0.00000000000E+00 0.  1.
         25    2    1    2    0    0  0.27722911720E+02 -0.44605200729E+02 -0.27203870844E+03  0.30399147227E+03  0.12509025764E+03 0.  0.
         23    2    1    2    0    0 -0.27722911720E+02  0.44605200729E+02 -0.39967338155E+03  0.41347436911E+03  0.92000316435E+02 0.  0.
          5    1    3    3  502    0 -0.40119946785E+02 -0.75256502696E+01 -0.32788196156E+02  0.52524125401E+02  0.41800000000E+01 0. -1.
         -5    1    3    3    0  502  0.67842858504E+02 -0.37079550460E+02 -0.23925051229E+03  0.25146734687E+03  0.41800000000E+01 0. -1.
        -11    1    4    4    0    0 -0.49638464872E+02  0.60261677467E+02 -0.31937638676E+03  0.32878066151E+03  0.00000000000E+00 0. -1.
         11    1    4    4    0    0  0.21915553152E+02 -0.15656476738E+02 -0.80296994793E+02  0.84693707597E+02  0.00000000000E+00 0.  1.
</event>
<event>
 8    1  0.6906553E-009  0.1024763E+03  0.7561462E-02  0.1275173E+00
         -2   -1    0    0    0  501 -0.00000000000E+00  0.00000000000E+00  0.44211935542E+02  0.44211935542E+02  0.00000000000E+00 0.  1.
          2   -1    0    0  501    0  0.00000000000E+00 -0.00000000000E+00 -0.38982748738E+03  0.38982748738E+03  0.00000000000E+00 0. -1.
         25    2    1    2    0    0  0.68082904701E+02 -0.30144395817E+02 -0.20873553022E+03  0.25448272269E+03  0.12508784137E+03 0.  0.
         23    2    1    2    0    0 -0.68082904701E+02  0.30144395817E+02 -0.13688002162E+03  0.17955670023E+03  0.89221644063E+02 0.  0.
          5    1    3    3  502    0 -0.10107675227E+02 -0.11385110505E+02 -0.15912888266E+03  0.15991016083E+03  0.41800000000E+01 0. -1.
         -5    1    3    3    0  502  0.78190579928E+02 -0.18759285311E+02 -0.49606647563E+02  0.94572561863E+02  0.41800000000E+01 0. -1.
        -11    1    4    4    0    0 -0.48188806284E+02  0.57372502024E+02 -0.12091464018E+03  0.14224667043E+03  0.00000000000E+00 0. -1.
         11    1    4    4    0    0 -0.19894098417E+02 -0.27228106207E+02 -0.15965381443E+02  0.37310029805E+02  0.00000000000E+00 0.  1.
</event>
<event>
 8    1  0.6906553E-009  0.1203779E+03  0.7561462E-02  0.1242475E+00
          3   -1    0    0  501    0  0.00000000000E+00  0.00000000000E+00  0.14657741814E+03  0.14657741814E+03  0.00000000000E+00 0. -1.
         -3   -1    0    0    0  501 -0.00000000000E+00 -0.00000000000E+00 -0.11353482274E+03  0.11353482274E+03  0.00000000000E+00 0.  1.
         25    2    1    2    0    0 -0.71095519801E+02  0.19079684357E+02  0.24888914637E+02  0.14725932287E+03  0.12508893960E+03 0.  0.
         23    2    1    2    0    0  0.71095519801E+02 -0.19079684357E+02  0.81536807684E+01  0.11285291801E+03  0.85150991195E+02 0.  0.
          5    1    3    3  502    0 -0.81500067441E+02  0.57999870550E+02  0.77534601163E+00  0.10012152385E+03  0.41800000000E+01 0. -1.
         -5    1    3    3    0  502  0.10404547640E+02 -0.38920186193E+02  0.24113568625E+02  0.47137799023E+02  0.41800000000E+01 0. -1.
        -11    1    4    4    0    0  0.83966207638E+02 -0.22279148860E+02 -0.13046780013E+02  0.87845904673E+02  0.00000000000E+00 0.  1.
         11    1    4    4    0    0 -0.12870687837E+02  0.31994645029E+01  0.21200460781E+02  0.25007013333E+02  0.00000000000E+00 0. -1.
</event>
<event>
 8    1  0.6906553E-009  0.1074458E+03  0.7561462E-02  0.1265374E+00
          1   -1    0    0  501    0  0.00000000000E+00  0.00000000000E+00  0.12883842128E+03  0.12883842128E+03  0.00000000000E+00 0. -1.
         -1   -1    0    0    0  501 -0.00000000000E+00 -0.00000000000E+00 -0.12420670403E+03  0.12420670403E+03  0.00000000000E+00 0.  1.
         25    2    1    2    0    0 -0.41852488076E+02 -0.43242607873E+02 -0.21884647740E+02  0.14052804660E+03  0.12509052794E+03 0.  0.
         23    2    1    2    0    0  0.41852488076E+02  0.43242607873E+02  0.26516364981E+02  0.11251707871E+03  0.91298529535E+02 0.  0.
          5    1    3    3  502    0 -0.62683466809E+02 -0.60774968663E+01 -0.57087434339E+02  0.85103469605E+02  0.41800000000E+01 0. -1.
         -5    1    3    3    0  502  0.20830978733E+02 -0.37165111006E+02  0.35202786599E+02  0.55424576998E+02  0.41800000000E+01 0. -1.
        -11    1    4    4    0    0  0.28183298846E+02 -0.26025761413E+02  0.13850927328E+02  0.40785864939E+02  0.00000000000E+00 0. -1.
         11    1    4    4    0    0  0.13669189230E+02  0.69268369286E+02  0.12665437653E+02  0.71731213768E+02  0.00000000000E+00 0.  1.
</event>
<event>
 8    1  0.6906553E-009  0.6455664E+02  0.7561462E-02  0.1379647E+00
          1   -1    0    0  501    0  0.00000000000E+00  0.00000000000E+00  0.15527638503E+03  0.15527638503E+03  0.00000000000E+00 0. -1.
         -1   -1    0    0    0  501 -0.00000000000E+00 -0.00000000000E+00 -0.77658504105E+02  0.77658504105E+02  0.00000000000E+00 0.  1.
         25    2    1    2    0    0  0.14964712832E+02 -0.58946156449E+01  0.56121458319E+02  0.13804099936E+03  0.12508801020E+03 0.  0.
         23    2    1    2    0    0 -0.14964712832E+02  0.58946156449E+01  0.21496422604E+02  0.94893889775E+02  0.91016839146E+02 0.  0.
          5    1    3    3  502    0  0.12905682224E+02 -0.33167896987E+02  0.88482900049E+02  0.95463930494E+02  0.41800000000E+01 0.  1.
         -5    1    3    3    0  502  0.20590306086E+01  0.27273281342E+02 -0.32361441730E+02  0.42577068864E+02  0.41800000000E+01 0.  1.
        -11    1    4    4    0    0  0.20600341757E+02  0.18687919338E+02 -0.23299395694E+02  0.36283250260E+02  0.00000000000E+00 0.  1.
         11    1    4    4    0    0 -0.35565054590E+02 -0.12793303693E+02  0.44795818298E+02  0.58610639515E+02  0.00000000000E+00 0. -1.
</event>
<event>
 8    1  0.6906553E-009  0.2080573E+03  0.7561462E-02  0.1143114E+00
          1   -1    0    0  501    0  0.00000000000E+00  0.00000000000E+00  0.24917052751E+03  0.24917052751E+03  0.00000000000E+00 0. -1.
         -1   -1    0    0    0  501 -0.00000000000E+00 -0.00000000000E+00 -0.24032612164E+03  0.24032612164E+03  0.00000000000E+00 0.  1.
         25    2    1    2    0    0 -0.13000478440E+03 -0.13225735368E+03  0.12120962661E+03  0.25442631093E+03  0.12509085714E+03 0.  0.
         23    2    1    2    0    0  0.13000478440E+03  0.13225735368E+03 -0.11236522074E+03  0.23507033821E+03  0.90768218596E+02 0.  0.
          5    1    3    3  502    0 -0.11596995012E+03 -0.49718563932E+02  0.28474769020E+02  0.12941889276E+03  0.41800000000E+01 0. -1.
         -5    1    3    3    0  502 -0.14034834277E+02 -0.82538789744E+02  0.92734857594E+02  0.12500741817E+03  0.41800000000E+01 0. -1.
        -11    1    4    4    0    0 -0.13979950229E+02  0.12726006305E+02 -0.60765734823E+01  0.19857366144E+02  0.00000000000E+00 0. -1.
         11    1    4    4    0    0  0.14398473463E+03  0.11953134737E+03 -0.10628864726E+03  0.21521297207E+03  0.00000000000E+00 0.  1.
</event>
<event>
 8    1  0.6906553E-009  0.1607612E+03  0.7561462E-02  0.1187840E+00
         -1   -1    0    0    0  501 -0.00000000000E+00  0.00000000000E+00  0.29856158604E+03  0.29856158604E+03  0.00000000000E+00 0.  1.
          1   -1    0    0  501    0  0.00000000000E+00 -0.00000000000E+00 -0.10674053738E+03  0.10674053738E+03  0.00000000000E+00 0. -1.
         25    2    1    2    0    0 -0.11427616338E+03  0.74435805876E+02  0.14137768685E+03  0.23288069776E+03  0.12508412504E+03 0.  0.
         23    2    1    2    0    0  0.11427616338E+03 -0.74435805876E+02  0.50443361809E+02  0.17242142566E+03  0.92654652147E+02 0.  0.
          5    1    3    3  502    0 -0.14051074622E+03  0.51238576448E+02  0.11823103163E+03  0.19069533492E+03  0.41800000000E+01 0.  1.
         -5    1    3    3    0  502  0.26234582844E+02  0.23197229428E+02  0.23146655217E+02  0.42185362839E+02  0.41800000000E+01 0.  1.
        -11    1    4    4    0    0  0.18464703337E+02 -0.85001195278E+01  0.52287431552E+02  0.56099668444E+02  0.00000000000E+00 0.  1.
         11    1    4    4    0    0  0.95811460041E+02 -0.65935686348E+02 -0.18440697427E+01  0.11632175722E+03  0.00000000000E+00 0. -1.
</event>
<event>
 8    1  0.6906553E-009  0.7673073E+02  0.7561462E-02  0.1338594E+00
          2   -1    0    0  501    0  0.00000000000E+00  0.00000000000E+00  0.12469394466E+03  0.12469394466E+03  0.00000000000E+00 0. -1.
         -2   -1    0    0    0  501 -0.00000000000E+00 -0.00000000000E+00 -0.10931306115E+03  0.10931306115E+03  0.00000000000E+00 0.  1.
         25    2    1    2    0    0 -0.14340655705E+02 -0.18269779898E+01 -0.31377947019E+02  0.12977239946E+03  0.12508919956E+03 0.  0.
         23    2    1    2    0    0  0.14340655705E+02  0.18269779898E+01  0.46758830530E+02  0.10423460636E+03  0.92029737998E+02 0.  0.
          5    1    3    3  502    0 -0.20772861102E+02  0.25157960748E+02  0.40757085700E+02  0.52374107936E+02  0.41800000000E+01 0. -1.
         -5    1    3    3    0  502  0.64322053962E+01 -0.26984938737E+02 -0.72135032719E+02  0.77398291520E+02  0.41800000000E+01 0. -1.
        -11    1    4    4    0    0 -0.36410219077E+02  0.16076710106E+02  0.26216489892E+02  0.47659930794E+02  0.00000000000E+00 0.  1.
         11    1    4    4    0    0  0.50750874782E+02 -0.14249732116E+02  0.20542340639E+02  0.56574675566E+02  0.00000000000E+00 0. -1.
</event>
<event>
 8    1  0.6906553E-009  0.1261883E+03  0.7561462E-02  0.1233224E+00
          1   -1    0    0  501    0  0.00000000000E+00  0.00000000000E+00  0.59377201465E+03  0.59377201465E+03  0.00000000000E+00 0. -1.
         -1   -1    0    0    0  501 -0.00000000000E+00 -0.00000000000E+00 -0.45031094427E+02  0.45031094427E+02  0.00000000000E+00 0.  1.
         25    2    1    2    0    0  0.67034492348E+02 -0.95080857801E+02  0.35724780828E+03  0.39598943158E+03  0.12509053008E+03 0.  0.
         23    2    1    2    0    0 -0.67034492348E+02  0.95080857801E+02  0.19149311194E+03  0.24281367750E+03  0.93567501702E+02 0.  0.
          5    1    3    3  502    0 -0.84342371509E+01 -0.95063530439E+01  0.20625560668E+03  0.20668902920E+03  0.41800000000E+01 0. -1.
         -5    1    3    3    0  502  0.75468729498E+02 -0.85574504757E+02  0.15099220160E+03  0.18930040238E+03  0.41800000000E+01 0. -1.
        -11    1    4    4    0    0 -0.37051413242E+02  0.16204339526E+02  0.85307778274E+01  0.41329916683E+02  0.00000000000E+00 0.  1.
         11    1    4    4    0    0 -0.29983079106E+02  0.78876518275E+02  0.18296233411E+03  0.20148376082E+03  0.00000000000E+00 0. -1.
</event>
<event>
 8    1  0.6906553E-009  0.2005327E+03  0.7561462E-02  0.1149290E+00
         -1   -1    0    0    0  501 -0.00000000000E+00  0.00000000000E+00  0.35677937835E+02  0.35677937835E+02  0.00000000000E+00 0.  1.
          1   -1    0    0  501    0  0.00000000000E+00 -0.00000000000E+00 -0.13985924962E+04  0.13985924962E+04  0.00000000000E+00 0. -1.
         25    2    1    2    0    0 -0.17196481286E+03  0.70996135216E+02 -0.51815093263E+03  0.56457107011E+03  0.12509099146E+03 0.  0.
         23    2    1    2    0    0  0.17196481286E+03 -0.70996135216E+02 -0.84476362578E+03  0.86969936397E+03  0.90216695597E+02 0.  0.
          5    1    3    3  502    0 -0.11804173717E+03  0.83734973832E+01 -0.17302319033E+03  0.20966273862E+03  0.41800000000E+01 0.  1.
         -5    1    3    3    0  502 -0.53923075695E+02  0.62622637833E+02 -0.34512774230E+03  0.35490833150E+03  0.41800000000E+01 0.  1.
        -11    1    4    4    0    0  0.12043367296E+03 -0.11173189294E+02 -0.39658612511E+03  0.41461990349E+03  0.00000000000E+00 0.  1.
         11    1    4    4    0    0  0.51531139897E+02 -0.59822945922E+02 -0.44817750067E+03  0.45507946048E+03  0.00000000000E+00 0. -1.
</event>
<event>
 8    1  0.6906553E-009  0.8438753E+02  0.7561462E-02  0.1317042E+00
          3   -1    0    0  501    0  0.00000000000E+00  0.00000000000E+00  0.40541904375E+03  0.40541904375E+03  0.00000000000E+00 0. -1.
         -3   -1    0    0    0  501 -0.00000000000E+00 -0.00000000000E+00 -0.53654352814E+02  0.53654352814E+02  0.00000000000E+00 0.  1.
         25    2    1    2    0    0  0.27248840028E+02  0.12779627359E+02  0.33735532078E+03  0.36105716925E+03  0.12509136200E+03 0.  0.
         23    2    1    2    0    0 -0.27248840028E+02 -0.12779627359E+02  0.14409370156E+02  0.98016227318E+02  0.92161449159E+02 0.  0.
          5    1    3    3  502    0  0.62700474000E+02  0.26840964208E+02  0.10315125065E+03  0.12373132065E+03  0.41800000000E+01 0. -1.
         -5    1    3    3    0  502 -0.35451633973E+02 -0.14061336849E+02  0.23420407014E+03  0.23732584860E+03  0.41800000000E+01 0. -1.
        -11    1    4    4    0    0 -0.42423269337E+02 -0.17922857564E+02  0.44427088356E+02  0.63990067856E+02  0.00000000000E+00 0. -1.
         11    1    4    4    0    0  0.15174429309E+02  0.51432302052E+01 -0.30017718200E+02  0.34026159462E+02  0.00000000000E+00 0.  1.
</event>
<event>
 8    1  0.6906553E-009  0.1035396E+03  0.7561462E-02  0.1273024E+00
         -2   -1    0    0    0  501 -0.00000000000E+00  0.00000000000E+00  0.55508567768E+02  0.55508567768E+02  0.00000000000E+00 0.  1.
          2   -1    0    0  501    0  0.00000000000E+00 -0.00000000000E+00 -0.22901984537E+03  0.22901984537E+03  0.00000000000E+00 0. -1.
         25    2    1    2    0    0  0.22247676029E+02  0.22761759822E+02 -0.13072209305E+03  0.18371025901E+03  0.12509251318E+03 0.  0.
         23    2    1    2    0    0 -0.22247676029E+02 -0.22761759822E+02 -0.42789184553E+02  0.10081815413E+03  0.85558921739E+02 0.  0.
          5    1    3    3  502    0 -0.23436152838E+02  0.54860093952E+02 -0.10766589090E+03  0.12315965099E+03  0.41800000000E+01 0.  1.
         -5    1    3    3    0  502  0.45683828867E+02 -0.32098334130E+02 -0.23056202150E+02  0.60550608018E+02  0.41800000000E+01 0.  1.
        -11    1    4    4    0    0  0.24187367878E+02 -0.35664765920E+02 -0.20191262675E+02  0.47588773691E+02  0.00000000000E+00 0.  1.
         11    1    4    4    0    0 -0.46435043907E+02  0.12903006098E+02 -0.22597921878E+02  0.53229380442E+02  0.00000000000E+00 0. -1.
</event>
<event>
 8    1  0.6906553E-009  0.1999034E+03  0.7561462E-02  0.1149821E+00
         -1   -1    0    0    0  501 -0.00000000000E+00  0.00000000000E+00  0.11904142816E+03  0.11904142816E+03  0.00000000000E+00 0.  1.
          1   -1    0    0  501    0  0.00000000000E+00 -0.00000000000E+00 -0.38255231005E+03  0.38255231005E+03  0.00000000000E+00 0. -1.
         25    2    1    2    0    0  0.11972093238E+03  0.12925803139E+03 -0.19740945782E+03  0.29267368640E+03  0.12508657941E+03 0.  0.
         23    2    1    2    0    0 -0.11972093238E+03 -0.12925803139E+03 -0.66101424074E+02  0.20892005180E+03  0.90760395823E+02 0.  0.
          5    1    3    3  502    0  0.77024160587E+02 -0.27413418299E+01 -0.74631335158E+02  0.10736640469E+03  0.41800000000E+01 0. -1.
         -5    1    3    3    0  502  0.42696771794E+02  0.13199937322E+03 -0.12277812266E+03  0.18530728171E+03  0.41800000000E+01 0. -1.
        -11    1    4    4    0    0 -0.54674487461E+02 -0.23166319997E+02  0.13891282063E+02  0.60983158976E+02  0.00000000000E+00 0.  1.
         11    1    4    4    0    0 -0.65046444920E+02 -0.10609171139E+03 -0.79992706137E+02  0.14793689282E+03  0.00000000000E+00 0. -1.
</event>
<event>
 8    1  0.6906553E-009  0.1172310E+03  0.7561462E-02  0.1247736E+00
          3   -1    0    0  501    0  0.00000000000E+00  0.00000000000E+00  0.52211335305E+03  0.52211335305E+03  0.00000000000E+00 0. -1.
         -3   -1    0    0    0  501 -0.00000000000E+00 -0.00000000000E+00 -0.48314451663E+02  0.48314451663E+02  0.00000000000E+00 0.  1.
         25    2    1    2    0    0  0.59443828993E+02 -0.73451406706E+02  0.36654191190E+03  0.39865937175E+03  0.12509054142E+03 0.  0.
         23    2    1    2    0    0 -0.59443828993E+02  0.73451406706E+02  0.10725698948E+03  0.17176843296E+03  0.95245235131E+02 0.  0.
          5    1    3    3  502    0  0.34510569381E+02  0.16959438675E+02  0.22830618395E+03  0.23155946966E+03  0.41800000000E+01 0. -1.
         -5    1    3    3    0  502  0.24933259611E+02 -0.90410845381E+02  0.13823572796E+03  0.16709990210E+03  0.41800000000E+01 0. -1.
        -11    1    4    4    0    0 -0.22282316205E+02  0.33106572847E+01  0.86969894827E+02  0.89839994843E+02  0.00000000000E+00 0. -1.
         11    1    4    4    0    0 -0.37161512788E+02  0.70140749421E+02  0.20287094654E+02  0.81928438112E+02  0.00000000000E+00 0.  1.
</event>
<event>
 8    1  0.6906553E-009  0.1021907E+03  0.7561462E-02  0.1275755E+00
         -2   -1    0    0    0  501 -0.00000000000E+00  0.00000000000E+00  0.95844485994E+02  0.95844485994E+02  0.00000000000E+00 0.  1.
          2   -1    0    0  501    0  0.00000000000E+00 -0.00000000000E+00 -0.14154129946E+03  0.14154129946E+03  0.00000000000E+00 0. -1.
         25    2    1    2    0    0 -0.28336528416E+02 -0.76871857855E+01  0.25593511693E+01  0.12850889883E+03  0.12508371250E+03 0.  0.
         23    2    1    2    0    0  0.28336528416E+02  0.76871857855E+01 -0.48256164633E+02  0.10887688662E+03  0.93077748933E+02 0.  0.
          5    1    3    3  502    0  0.10483335049E+02 -0.53356677323E+02  0.30234195911E+02  0.62357151403E+02  0.41800000000E+01 0. -1.
         -5    1    3    3    0  502 -0.38819863466E+02  0.45669491538E+02 -0.27674844742E+02  0.66151747432E+02  0.41800000000E+01 0. -1.
        -11    1    4    4    0    0  0.12862883176E+00  0.43875873999E+02 -0.22999604361E+01  0.43936302560E+02  0.00000000000E+00 0.  1.
         11    1    4    4    0    0  0.28207899584E+02 -0.36188688214E+02 -0.45956204197E+02  0.64940584058E+02  0.00000000000E+00 0. -1.
</event>
<event>
 8    1  0.6906553E-009  0.2150317E+03  0.7561462E-02  0.1137642E+00
          1   -1    0    0  501    0  0.00000000000E+00  0.00000000000E+00  0.11370459442E+03  0.11370459442E+03  0.00000000000E+00 0. -1.
         -1   -1    0    0    0  501 -0.00000000000E+00 -0.00000000000E+00 -0.41728811565E+03  0.41728811565E+03  0.00000000000E+00 0.  1.
         25    2    1    2    0    0  0.17448416631E+03 -0.71890102845E+02 -0.14417148853E+03  0.26841464499E+03  0.12509233534E+03 0.  0.
         23    2    1    2    0    0 -0.17448416631E+03  0.71890102845E+02 -0.15941203269E+03  0.26257806507E+03  0.89006364428E+02 0.  0.
          5    1    3    3  502    0  0.23526782777E+02  0.32115856211E+02 -0.10163597922E+02  0.41300228216E+02  0.41800000000E+01 0. -1.
         -5    1    3    3    0  502  0.15095738353E+03 -0.10400595906E+03 -0.13400789061E+03  0.22711441678E+03  0.41800000000E+01 0. -1.
        -11    1    4    4    0    0 -0.15778698508E+03  0.90312222225E+02 -0.12719125783E+03  0.22187980127E+03  0.00000000000E+00 0. -1.
         11    1    4    4    0    0 -0.16697181228E+02 -0.18422119380E+02 -0.32220774860E+02  0.40698263796E+02  0.00000000000E+00 0.  1.
</event>
<event>
 8    1  0.6906553E-009  0.2849960E+03  0.7561462E-02  0.1092991E+00
          2   -1    0    0  501    0  0.00000000000E+00  0.00000000000E+00  0.63077411775E+03  0.63077411775E+03  0.00000000000E+00 0.  1.
         -2   -1    0    0    0  501 -0.00000000000E+00 -0.00000000000E+00 -0.16162257111E+03  0.16162257111E+03  0.00000000000E+00 0. -1.
         25    2    1    2    0    0  0.89421138849E+01 -0.28129658496E+03  0.10966218048E+03  0.32692386832E+03  0.12508273958E+03 0.  0.
         23    2    1    2    0    0 -0.89421138849E+01  0.28129658496E+03  0.35948936616E+03  0.46547282054E+03  0.90689647511E+02 0.  0.
          5    1    3    3  502    0  0.23208915742E+02 -0.15427827520E+03 -0.35735430127E+01  0.15611112253E+03  0.41800000000E+01 0.  1.
         -5    1    3    3    0  502 -0.14266801857E+02 -0.12701830976E+03  0.11323572349E+03  0.17081274579E+03  0.41800000000E+01 0.  1.
        -11    1    4    4    0    0  0.11008088818E+02  0.23918539236E+03  0.24842955619E+03  0.34503343943E+03  0.00000000000E+00 0. -1.
         11    1    4    4    0    0 -0.19950202703E+02  0.42111192600E+02  0.11105980997E+03  0.12043938111E+03  0.00000000000E+00 0.  1.
</event>
<event>
 8    1  0.6906553E-009  0.9765092E+02  0.7561462E-02  0.1285315E+00
         -2   -1    0    0    0  501 -0.00000000000E+00  0.00000000000E+00  0.18190170083E+02  0.18190170083E+02  0.00000000000E+00 0.  1.
          2   -1    0    0  501    0  0.00000000000E+00 -0.00000000000E+00 -0.72492540607E+03  0.72492540607E+03  0.00000000000E+00 0. -1.
         25    2    1    2    0    0 -0.21727327961E+01 -0.37317551055E+02 -0.42163696866E+03  0.44138680602E+03  0.12508900354E+03 0.  0.
         23    2    1    2    0    0  0.21727327961E+01  0.37317551055E+02 -0.28509826732E+03  0.30172877013E+03  0.91443470551E+02 0.  0.
          5    1    3    3  502    0 -0.36618407596E+01  0.31596550669E+02 -0.29840654642E+03  0.30012612422E+03  0.41800000000E+01 0. -1.
         -5    1    3    3    0  502  0.14891079635E+01 -0.68914101724E+02 -0.12323042224E+03  0.14126068181E+03  0.41800000000E+01 0. -1.
        -11    1    4    4    0    0  0.15721077383E+02 -0.25469846932E+02 -0.52587075891E+02  0.60508395513E+02  0.00000000000E+00 0.  1.
         11    1    4    4    0    0 -0.13548344587E+02  0.62787397987E+02 -0.23251119143E+03  0.24122037461E+03  0.00000000000E+00 0. -1.
</event>
<event>
 8    1  0.6906553E-009  0.1553407E+03  0.7561462E-02  0.1194060E+00
          2   -1    0    0  501    0  0.00000000000E+00  0.00000000000E+00  0.12230650158E+03  0.12230650158E+03  0.00000000000E+00 0.  1.
         -2   -1    0    0    0  501 -0.00000000000E+00 -0.00000000000E+00 -0.24558024006E+03  0.24558024006E+03  0.00000000000E+00 0. -1.
         25    2    1    2    0    0 -0.97541447774E+02 -0.84593950461E+02 -0.19424417457E+02  0.18082100273E+03  0.12509379100E+03 0.  0.
         23    2    1    2    0    0  0.97541447774E+02  0.84593950461E+02 -0.10384932102E+03  0.18706573891E+03  0.86824182744E+02 0.  0.
          5    1    3    3  502    0 -0.29220618630E+02 -0.10441590285E+03 -0.12428008062E+02  0.10921745788E+03  0.41800000000E+01 0.  1.
         -5    1    3    3    0  502 -0.68320829144E+02  0.19821952389E+02 -0.69964093950E+01  0.71603544855E+02  0.41800000000E+01 0.  1.
        -11    1    4    4    0    0  0.39140596718E+02  0.48237508476E+02  0.45158753791E+00  0.62121232012E+02  0.00000000000E+00 0.  1.
         11    1    4    4    0    0  0.58400851055E+02  0.36356441985E+02 -0.10430090856E+03  0.12494450690E+03  0.00000000000E+00 0. -1.
</event>
<event>
 8    1  0.6906553E-009  0.2596188E+03  0.7561462E-02  0.1107372E+00
          1   -1    0    0  501    0  0.00000000000E+00  0.00000000000E+00  0.14459746918E+03  0.14459746918E+03  0.00000000000E+00 0. -1.
         -1   -1    0    0    0  501 -0.00000000000E+00 -0.00000000000E+00 -0.49631232145E+03  0.49631232145E+03  0.00000000000E+00 0.  1.
         25    2    1    2    0    0  0.22964643407E+03 -0.73815070561E+02 -0.22469911389E+03  0.35259479684E+03  0.12508896695E+03 0.  0.
         23    2    1    2    0    0 -0.22964643407E+03  0.73815070561E+02 -0.12701573838E+03  0.28831499380E+03  0.93842359999E+02 0.  0.
          5    1    3    3  502    0  0.58021248753E+02 -0.80656859518E+02 -0.72543581960E+02  0.12309361469E+03  0.41800000000E+01 0. -1.
         -5    1    3    3    0  502  0.17162518531E+03  0.68417889577E+01 -0.15215553193E+03  0.22950118215E+03  0.41800000000E+01 0. -1.
        -11    1    4    4    0    0 -0.51415607129E+02  0.43164692787E+02 -0.73876741294E+02  0.99822483761E+02  0.00000000000E+00 0.  1.
         11    1    4    4    0    0 -0.17823082694E+03  0.30650377773E+02 -0.53138997089E+02  0.18849251004E+03  0.00000000000E+00 0. -1.
</event>
<event>
 8    1  0.6906553E-009  0.1521894E+03  0.7561462E-02  0.1197808E+00
         -2   -1    0    0    0  501 -0.00000000000E+00  0.00000000000E+00  0.36289925560E+02  0.36289925560E+02  0.00000000000E+00 0.  1.
          2   -1    0    0  501    0  0.00000000000E+00 -0.00000000000E+00 -0.75063320337E+03  0.75063320337E+03  0.00000000000E+00 0. -1.
         25    2    1    2    0    0  0.37222401211E+02 -0.11527260665E+03 -0.32253079584E+03  0.36653443480E+03  0.12509235242E+03 0.  0.
         23    2    1    2    0    0 -0.37222401211E+02  0.11527260665E+03 -0.39181248197E+03  0.42038869413E+03  0.92392381339E+02 0.  0.
          5    1    3    3  502    0  0.19604664954E+02  0.25364296244E+02 -0.60808157880E+02  0.68867952465E+02  0.41800000000E+01 0.  1.
         -5    1    3    3    0  502  0.17617736257E+02 -0.14063690289E+03 -0.26172263796E+03  0.29766648233E+03  0.41800000000E+01 0.  1.
        -11    1    4    4    0    0 -0.29018860828E+02  0.21486126084E+02 -0.31296504231E+02  0.47783041708E+02  0.00000000000E+00 0.  1.
         11    1    4    4    0    0 -0.82035403837E+01  0.93786480562E+02 -0.36051597774E+03  0.37260565242E+03  0.00000000000E+00 0. -1.
</event>
<event>
 8    1  0.6906553E-009  0.1105989E+03  0.7561462E-02  0.1259465E+00
          1   -1    0    0  501    0  0.00000000000E+00  0.00000000000E+00  0.49918738103E+02  0.49918738103E+02  0.00000000000E+00 0.  1.
         -1   -1    0    0    0  501 -0.00000000000E+00 -0.00000000000E+00 -0.26924954341E+03  0.26924954341E+03  0.00000000000E+00 0. -1.
         25    2    1    2    0    0  0.13901109960E+02  0.19851477812E+02 -0.17128982622E+03  0.21347220042E+03  0.12507139464E+03 0.  0.
         23    2    1    2    0    0 -0.13901109960E+02 -0.19851477812E+02 -0.48040979088E+02  0.10569608109E+03  0.90974742963E+02 0.  0.
          5    1    3    3  502    0 -0.47381074997E+02 -0.22615929795E+02 -0.67795355056E+02  0.85849456116E+02  0.41800000000E+01 0. -1.
         -5    1    3    3    0  502  0.61282184958E+02  0.42467407607E+02 -0.10349447116E+03  0.12762274430E+03  0.41800000000E+01 0. -1.
        -11    1    4    4    0    0 -0.31248172907E+01  0.36423177277E+02 -0.14680030290E+02  0.39394360197E+02  0.00000000000E+00 0.  1.
         11    1    4    4    0    0 -0.10776292670E+02 -0.56274655089E+02 -0.33360948798E+02  0.66301720896E+02  0.00000000000E+00 0. -1.
</event>
<event>
 8    1  0.6906553E-009  0.1015826E+03  0.7561462E-02  0.1277003E+00
          1   -1    0    0  501    0  0.00000000000E+00  0.00000000000E+00  0.13247756284E+04  0.13247756284E+04  0.00000000000E+00 0. -1.
         -1   -1    0    0    0  501 -0.00000000000E+00 -0.00000000000E+00 -0.96106301821E+01  0.96106301821E+01  0.00000000000E+00 0.  1.
         25    2    1    2    0    0 -0.42948644167E+01 -0.34347964479E+02  0.76278355196E+03  0.77374716089E+03  0.12509074036E+03 0.  0.
         23    2    1    2    0    0  0.42948644167E+01  0.34347964479E+02  0.55238144625E+03  0.56063909768E+03  0.89401941616E+02 0.  0.
          5    1    3    3  502    0 -0.50375282978E+02 -0.11593487104E+01  0.14935234487E+03  0.15767881450E+03  0.41800000000E+01 0.  1.
         -5    1    3    3    0  502  0.46080418561E+02 -0.33188615769E+02  0.61343120709E+03  0.61606834639E+03  0.41800000000E+01 0.  1.
        -11    1    4    4    0    0 -0.64953794890E+01 -0.29857567617E+02  0.15967480701E+03  0.16257216334E+03  0.00000000000E+00 0.  1.
         11    1    4    4    0    0  0.10790243906E+02  0.64205532096E+02  0.39270663924E+03  0.39806693434E+03  0.00000000000E+00 0. -1.
</event>
<event>
 8    1  0.6906553E-009  0.1050341E+03  0.7561462E-02  0.1270052E+00
          2   -1    0    0  501    0  0.00000000000E+00  0.00000000000E+00  0.46475896643E+03  0.46475896643E+03  0.00000000000E+00 0. -1.
         -2   -1    0    0    0  501 -0.00000000000E+00 -0.00000000000E+00 -0.28269292691E+02  0.28269292691E+02  0.00000000000E+00 0.  1.
         25    2    1    2    0    0  0.36255752677E+02 -0.12181538867E+01  0.23549837638E+03  0.26911746944E+03  0.12509501820E+03 0.  0.
         23    2    1    2    0    0 -0.36255752677E+02  0.12181538867E+01  0.20099129736E+03  0.22391078969E+03  0.91774596817E+02 0.  0.
          5    1    3    3  502    0 -0.23616478381E+02 -0.47227201910E+02  0.11859461838E+03  0.12988572885E+03  0.41800000000E+01 0. -1.
         -5    1    3    3    0  502  0.59872231058E+02  0.46009048024E+02  0.11690375800E+03  0.13923174059E+03  0.41800000000E+01 0. -1.
        -11    1    4    4    0    0  0.22488762631E+02  0.31005408063E+01  0.11370287288E+02  0.25389785957E+02  0.00000000000E+00 0.  1.
         11    1    4    4    0    0 -0.58744515308E+02 -0.18823869196E+01  0.18962101008E+03  0.19852100373E+03  0.00000000000E+00 0. -1.
</event>
<event>
 8    1  0.6906553E-009  0.8412263E+02  0.7561462E-02  0.1317743E+00
          2   -1    0    0  501    0  0.00000000000E+00  0.00000000000E+00  0.54624523089E+02  0.54624523089E+02  0.00000000000E+00 0.  1.
         -2   -1    0    0    0  501 -0.00000000000E+00 -0.00000000000E+00 -0.24478467762E+03  0.24478467762E+03  0.00000000000E+00 0. -1.
         25    2    1    2    0    0 -0.42767036007E+01  0.36062277847E+02 -0.13374937975E+03  0.18669438656E+03  0.12508844596E+03 0.  0.
         23    2    1    2    0    0  0.42767036007E+01 -0.36062277847E+02 -0.56410774783E+02  0.11271481415E+03  0.90574144988E+02 0.  0.
          5    1    3    3  502    0  0.52222502122E+02 -0.12381631891E+02 -0.40798800624E+02  0.67546347559E+02  0.41800000000E+01 0.  1.
         -5    1    3    3    0  502 -0.56499205723E+02  0.48443909737E+02 -0.92950579126E+02  0.11914803900E+03  0.41800000000E+01 0.  1.
        -11    1    4    4    0    0  0.80333500623E+01 -0.72698081606E+01  0.24480010224E+02  0.26770426304E+02  0.00000000000E+00 0.  1.
         11    1    4    4    0    0 -0.37566464616E+01 -0.28792469686E+02 -0.80890785007E+02  0.85944387847E+02  0.00000000000E+00 0. -1.
</event>
<event>
 8    1  0.6906553E-009  0.8418708E+02  0.7561462E-02  0.1317572E+00
          1   -1    0    0  501    0  0.00000000000E+00  0.00000000000E+00  0.58690518254E+02  0.58690518254E+02  0.00000000000E+00 0. -1.
         -1   -1    0    0    0  501 -0.00000000000E+00 -0.00000000000E+00 -0.28426884770E+03  0.28426884770E+03  0.00000000000E+00 0.  1.
         25    2    1    2    0    0 -0.46865395975E+02 -0.15094697401E+02 -0.19049654219E+03  0.23315264962E+03  0.12508800985E+03 0.  0.
         23    2    1    2    0    0  0.46865395975E+02  0.15094697401E+02 -0.35081787256E+02  0.10980671633E+03  0.91665522010E+02 0.  0.
          5    1    3    3  502    0 -0.17016011873E+02 -0.59098503979E+02 -0.39995169827E+02  0.73479683193E+02  0.41800000000E+01 0. -1.
         -5    1    3    3    0  502 -0.29849384101E+02  0.44003806578E+02 -0.15050137237E+03  0.15967296643E+03  0.41800000000E+01 0. -1.
        -11    1    4    4    0    0  0.35276630568E+02  0.20290792901E+02  0.25422422226E+02  0.47983919104E+02  0.00000000000E+00 0. -1.
         11    1    4    4    0    0  0.11588765407E+02 -0.51960954997E+01 -0.60504209483E+02  0.61822797229E+02  0.00000000000E+00 0.  1.
</event>
<event>
 8    1  0.6906553E-009  0.1479016E+03  0.7561462E-02  0.1203075E+00
          2   -1    0    0  501    0  0.00000000000E+00  0.00000000000E+00  0.15445216965E+04  0.15445216965E+04  0.00000000000E+00 0. -1.
         -2   -1    0    0    0  501 -0.00000000000E+00 -0.00000000000E+00 -0.22510604986E+02  0.22510604986E+02  0.00000000000E+00 0.  1.
         25    2    1    2    0    0 -0.10390957794E+03  0.14441423480E+02  0.12563522308E+04  0.12669151150E+04  0.12508887109E+03 0.  0.
         23    2    1    2    0    0  0.10390957794E+03 -0.14441423480E+02  0.26565886069E+03  0.30011718647E+03  0.92140871764E+02 0.  0.
          5    1    3    3  502    0 -0.50950429714E+02  0.65898294194E+02  0.83161357506E+03  0.83578534450E+03  0.41800000000E+01 0. -1.
         -5    1    3    3    0  502 -0.52959148227E+02 -0.51456870713E+02  0.42473865579E+03  0.43112977054E+03  0.41800000000E+01 0. -1.
        -11    1    4    4    0    0  0.11644254439E+03  0.35716152275E+01  0.23637369831E+03  0.26352257557E+03  0.00000000000E+00 0.  1.
         11    1    4    4    0    0 -0.12532966448E+02 -0.18013038708E+02  0.29285162379E+02  0.36594610902E+02  0.00000000000E+00 0. -1.
</event>
<event>
 8    1  0.6906553E-009  0.1562322E+03  0.7561462E-02  0.1193017E+00
          2   -1    0    0  501    0  0.00000000000E+00  0.00000000000E+00  0.10688413336E+04  0.10688413336E+04  0.00000000000E+00 0. -1.
         -2   -1    0    0    0  501 -0.00000000000E+00 -0.00000000000E+00 -0.27128154513E+02  0.27128154513E+02  0.00000000000E+00 0.  1.
         25    2    1    2    0    0  0.10551149768E+03 -0.75707587539E+02  0.50198815696E+03  0.53338942510E+03  0.12509138307E+03 0.  0.
         23    2    1    2    0    0 -0.10551149768E+03  0.75707587539E+02  0.53972502210E+03  0.56258006299E+03  0.91262877686E+02 0.  0.
          5    1    3    3  502    0  0.24940980070E+02  0.31697492712E+02  0.17986243319E+03  0.18437665471E+03  0.41800000000E+01 0.  1.
         -5    1    3    3    0  502  0.80570517612E+02 -0.10740508025E+03  0.32212572378E+03  0.34901277038E+03  0.41800000000E+01 0.  1.
        -11    1    4    4    0    0 -0.66868067738E+02  0.20018724550E+02  0.41308530034E+03  0.41894099009E+03  0.00000000000E+00 0.  1.
         11    1    4    4    0    0 -0.38643429945E+02  0.55688862989E+02  0.12663972176E+03  0.14363907291E+03  0.00000000000E+00 0. -1.
</event>
<event>
 8    1  0.6906553E-009  0.9176624E+02  0.7561462E-02  0.1298630E+00
          1   -1    0    0  501    0  0.00000000000E+00  0.00000000000E+00  0.37860211733E+03  0.37860211733E+03  0.00000000000E+00 0. -1.
         -1   -1    0    0    0  501 -0.00000000000E+00 -0.00000000000E+00 -0.59695988214E+02  0.59695988214E+02  0.00000000000E+00 0.  1.
         25    2    1    2    0    0  0.38596992470E+01 -0.78735030242E+02  0.74691136936E+02  0.16565833137E+03  0.12509921883E+03 0.  0.
         23    2    1    2    0    0 -0.38596992470E+01  0.78735030242E+02  0.24421499218E+03  0.27263977417E+03  0.92072698387E+02 0.  0.
          5    1    3    3  502    0  0.10202786473E+02 -0.54890052775E+02  0.10938504595E+03  0.12288032968E+03  0.41800000000E+01 0. -1.
         -5    1    3    3    0  502 -0.63430872255E+01 -0.23844977467E+02 -0.34693909015E+02  0.42778001691E+02  0.41800000000E+01 0. -1.
        -11    1    4    4    0    0  0.28006478467E+02  0.16251847738E+02  0.15903698587E+03  0.16229987143E+03  0.00000000000E+00 0. -1.
         11    1    4    4    0    0 -0.31866177714E+02  0.62483182504E+02  0.85178006309E+02  0.11033990274E+03  0.00000000000E+00 0.  1.
</event>
<event>
 8    1  0.6906553E-009  0.8683221E+02  0.7561462E-02  0.1310709E+00
         -4   -1    0    0    0  501 -0.00000000000E+00  0.00000000000E+00  0.28700000740E+02  0.28700000740E+02  0.00000000000E+00 0.  1.
          4   -1    0    0  501    0  0.00000000000E+00 -0.00000000000E+00 -0.46528409637E+03  0.46528409637E+03  0.00000000000E+00 0. -1.
         25    2    1    2    0    0 -0.30993111555E+02  0.16587967355E+02 -0.30828016038E+03  0.33454371903E+03  0.12508840488E+03 0.  0.
         23    2    1    2    0    0  0.30993111555E+02 -0.16587967355E+02 -0.12830393526E+03  0.15944037809E+03  0.87884018667E+02 0.  0.
          5    1    3    3  502    0 -0.56200943691E+02  0.35327616625E+02 -0.79837382223E+02  0.10391374581E+03  0.41800000000E+01 0. -1.
         -5    1    3    3    0  502  0.25207832136E+02 -0.18739649270E+02 -0.22844277815E+03  0.23062997322E+03  0.41800000000E+01 0. -1.
        -11    1    4    4    0    0 -0.71922652138E+01  0.20808389497E+02 -0.92559886274E+02  0.95142263476E+02  0.00000000000E+00 0. -1.
         11    1    4    4    0    0  0.38185376769E+02 -0.37396356852E+02 -0.35744048984E+02  0.64298114611E+02  0.00000000000E+00 0.  1.
</event>
<event>
 8    1  0.6906553E-009  0.1041079E+03  0.7561462E-02  0.1271887E+00
          1   -1    0    0  501    0  0.00000000000E+00  0.00000000000E+00  0.59733765916E+02  0.59733765916E+02  0.00000000000E+00 0. -1.
         -1   -1    0    0    0  501 -0.00000000000E+00 -0.00000000000E+00 -0.24535751962E+03  0.24535751962E+03  0.00000000000E+00 0.  1.
         25    2    1    2    0    0 -0.27119710881E+02 -0.16239634774E+02 -0.48910047533E+02  0.13798150244E+03  0.12508995887E+03 0.  0.
         23    2    1    2    0    0  0.27119710881E+02  0.16239634774E+02 -0.13671370617E+03  0.16710978310E+03  0.90751516216E+02 0.  0.
          5    1    3    3  502    0 -0.33136871058E+01 -0.62374613564E+02 -0.57729430969E+02  0.85157105045E+02  0.41800000000E+01 0.  1.
         -5    1    3    3    0  502 -0.23806023775E+02  0.46134978791E+02  0.88193834356E+01  0.52824397396E+02  0.41800000000E+01 0.  1.
        -11    1    4    4    0    0 -0.68086971143E+01 -0.33021388254E+02 -0.68756248512E+02  0.76578013477E+02  0.00000000000E+00 0.  1.
         11    1    4    4    0    0  0.33928407995E+02  0.49261023028E+02 -0.67957457659E+02  0.90531769619E+02  0.00000000000E+00 0. -1.
</event>
<event>
 8    1  0.6906553E-009  0.1228169E+03  0.7561462E-02  0.1238521E+00
         -2   -1    0    0    0  501 -0.00000000000E+00  0.00000000000E+00  0.32274345505E+02  0.32274345505E+02  0.00000000000E+00 0.  1.
          2   -1    0    0  501    0  0.00000000000E+00 -0.00000000000E+00 -0.50950845545E+03  0.50950845545E+03  0.00000000000E+00 0. -1.
         25    2    1    2    0    0 -0.90283265377E+01  0.68579796978E+02 -0.25250473733E+03  0.29015437076E+03  0.12508484027E+03 0.  0.
         23    2    1    2    0    0  0.90283265377E+01 -0.68579796978E+02 -0.22472937262E+03  0.25162843020E+03  0.89603999528E+02 0.  0.
          5    1    3    3  502    0  0.36144996345E+02  0.86746286036E+02 -0.16618426149E+03  0.19096088623E+03  0.41800000000E+01 0.  1.
         -5    1    3    3    0  502 -0.45173322883E+02 -0.18166489058E+02 -0.86320475839E+02  0.99193484534E+02  0.41800000000E+01 0.  1.
        -11    1    4    4    0    0  0.42201421161E+02 -0.46777149851E+02 -0.81566128516E+02  0.10306354844E+03  0.00000000000E+00 0.  1.
         11    1    4    4    0    0 -0.33173094623E+02 -0.21802647127E+02 -0.14316324410E+03  0.14856488176E+03  0.00000000000E+00 0. -1.
</event>
<event>
 8    1  0.6906553E-009  0.1061603E+03  0.7561462E-02  0.1267850E+00
         -1   -1    0    0    0  501 -0.00000000000E+00  0.00000000000E+00  0.46542830239E+03  0.46542830239E+03  0.00000000000E+00 0.  1.
          1   -1    0    0  501    0  0.00000000000E+00 -0.00000000000E+00 -0.43555674724E+02  0.43555674724E+02  0.00000000000E+00 0. -1.
         25    2    1    2    0    0  0.37563339464E+01 -0.60942273244E+02  0.35007763110E+03  0.37673619423E+03  0.12509093308E+03 0.  0.
         23    2    1    2    0    0 -0.37563339464E+01  0.60942273244E+02  0.71794996570E+02  0.13224778288E+03  0.92773292665E+02 0.  0.
          5    1    3    3  502    0  0.35131519447E+02 -0.82911985216E+02  0.16831431433E+03  0.19093402463E+03  0.41800000000E+01 0. -1.
         -5    1    3    3    0  502 -0.31375185501E+02  0.21969711972E+02  0.18176331676E+03  0.18580216961E+03  0.41800000000E+01 0. -1.
        -11    1    4    4    0    0  0.25530107227E+02  0.16418799546E+02 -0.12248625004E+02  0.32732127460E+02  0.00000000000E+00 0. -1.
         11    1    4    4    0    0 -0.29286441174E+02  0.44523473698E+02  0.84043621574E+02  0.99515655422E+02  0.00000000000E+00 0.  1.
</event>
<event>
 8    1  0.6906553E-009  0.1020341E+03  0.7561462E-02  0.1276076E+00
          2   -1    0    0  501    0  0.00000000000E+00  0.00000000000E+00  0.11674028209E+03  0.11674028209E+03  0.00000000000E+00 0.  1.
         -2   -1    0    0    0  501 -0.00000000000E+00 -0.00000000000E+00 -0.12575941548E+03  0.12575941548E+03  0.00000000000E+00 0. -1.
         25    2    1    2    0    0  0.10925439880E+02 -0.51681701397E+02 -0.17644268377E+01  0.13578440280E+03  0.12507568647E+03 0.  0.
         23    2    1    2    0    0 -0.10925439880E+02  0.51681701397E+02 -0.72547065503E+01  0.10671529478E+03  0.92440033952E+02 0.  0.
          5    1    3    3  502    0  0.46485385825E+02  0.14669512082E+02  0.26043840651E+02  0.55424179884E+02  0.41800000000E+01 0. -1.
         -5    1    3    3    0  502 -0.35559945945E+02 -0.66351213479E+02 -0.27808267488E+02  0.80360222912E+02  0.41800000000E+01 0. -1.
        -11    1    4    4    0    0  0.48888853789E+01  0.61131186236E+02  0.27631352835E+02  0.67263770266E+02  0.00000000000E+00 0.  1.
         11    1    4    4    0    0 -0.15814325259E+02 -0.94494848390E+01 -0.34886059385E+02  0.39451524515E+02  0.00000000000E+00 0. -1.
</event>
<event>
 8    1  0.6906553E-009  0.1257734E+03  0.7561462E-02  0.1233866E+00
         -1   -1    0    0    0  501 -0.00000000000E+00  0.00000000000E+00  0.61575031093E+02  0.61575031093E+02  0.00000000000E+00 0.  1.
          1   -1    0    0  501    0  0.00000000000E+00 -0.00000000000E+00 -0.13098104461E+04  0.13098104461E+04  0.00000000000E+00 0. -1.
         25    2    1    2    0    0  0.53187439941E+02 -0.93032527980E+02 -0.12133413121E+04  0.12244707519E+04  0.12509007812E+03 0.  0.
         23    2    1    2    0    0 -0.53187439941E+02  0.93032527980E+02 -0.34894102940E+02  0.14691472530E+03  0.94246395475E+02 0.  0.
          5    1    3    3  502    0  0.60195426101E+01 -0.83324944795E+02 -0.10686533920E+04  0.10719220242E+04  0.41800000000E+01 0.  1.
         -5    1    3    3    0  502  0.47167897331E+02 -0.97075831854E+01 -0.14468792009E+03  0.15254872772E+03  0.41800000000E+01 0.  1.
        -11    1    4    4    0    0 -0.60798438650E+02  0.59109252135E+02 -0.60132485409E+02  0.10395320886E+03  0.00000000000E+00 0. -1.
         11    1    4    4    0    0  0.76109987085E+01  0.33923275845E+02  0.25238382469E+02  0.42961516443E+02  0.00000000000E+00 0.  1.
</event>
<event>
 8    1  0.6906553E-009  0.1274856E+03  0.7561462E-02  0.1231235E+00
          1   -1    0    0  501    0  0.00000000000E+00  0.00000000000E+00  0.30160792705E+03  0.30160792705E+03  0.00000000000E+00 0. -1.
         -1   -1    0    0    0  501 -0.00000000000E+00 -0.00000000000E+00 -0.57454671410E+02  0.57454671410E+02  0.00000000000E+00 0.  1.
         25    2    1    2    0    0 -0.70871930487E+02  0.16625217117E+02  0.14936886143E+03  0.20798031469E+03  0.12508207768E+03 0.  0.
         23    2    1    2    0    0  0.70871930487E+02 -0.16625217117E+02  0.94784394210E+02  0.15108228377E+03  0.92425898477E+02 0.  0.
          5    1    3    3  502    0  0.23046989855E+02  0.35777201748E+02  0.20783325389E+02  0.47545671943E+02  0.41800000000E+01 0.  1.
         -5    1    3    3    0  502 -0.93918920342E+02 -0.19151984631E+02  0.12858553604E+03  0.16043464274E+03  0.41800000000E+01 0.  1.
        -11    1    4    4    0    0  0.23238655846E+02  0.37530358562E+02  0.25026981603E+02  0.50743598093E+02  0.00000000000E+00 0.  1.
         11    1    4    4    0    0  0.47633274642E+02 -0.54155575680E+02  0.69757412608E+02  0.10033868568E+03  0.00000000000E+00 0. -1.
</event>
<event>
 8    1  0.6906553E-009  0.1797470E+03  0.7561462E-02  0.1168048E+00
          2   -1    0    0  501    0  0.00000000000E+00  0.00000000000E+00  0.24067969201E+03  0.24067969201E+03  0.00000000000E+00 0. -1.
         -2   -1    0    0    0  501 -0.00000000000E+00 -0.00000000000E+00 -0.18518333626E+03  0.18518333626E+03  0.00000000000E+00 0.  1.
         25    2    1    2    0    0 -0.16886917783E+03 -0.54246355383E+02  0.64241491114E+02  0.22635054707E+03  0.12509250451E+03 0.  0.
         23    2    1    2    0    0  0.16886917783E+03  0.54246355383E+02 -0.87451353623E+01  0.19951248119E+03  0.90935617141E+02 0.  0.
          5    1    3    3  502    0 -0.10219509851E+03 -0.21615946538E+02  0.99270425946E+02  0.14416371656E+03  0.41800000000E+01 0.  1.
         -5    1    3    3    0  502 -0.66674079320E+02 -0.32630408844E+02 -0.35028934831E+02  0.82186830514E+02  0.41800000000E+01 0.  1.
        -11    1    4    4    0    0  0.93654250745E+02  0.47713211425E+02  0.36772223645E+02  0.11135468405E+03  0.00000000000E+00 0.  1.
         11    1    4    4    0    0  0.75214927089E+02  0.65331439579E+01 -0.45517359008E+02  0.88157797148E+02  0.00000000000E+00 0. -1.
</event>
<event>
 8    1  0.6906553E-009  0.8855355E+02  0.7561462E-02  0.1306393E+00
         -2   -1    0    0    0  501 -0.00000000000E+00  0.00000000000E+00  0.14815186745E+03  0.14815186745E+03  0.00000000000E+00 0.  1.
          2   -1    0    0  501    0  0.00000000000E+00 -0.00000000000E+00 -0.87362654117E+02  0.87362654117E+02  0.00000000000E+00 0. -1.
         25    2    1    2    0    0 -0.13757611679E+02 -0.42801744165E+01  0.23803782110E+01  0.12594245442E+03  0.12509294086E+03 0.  0.
         23    2    1    2    0    0  0.13757611679E+02  0.42801744165E+01  0.58408835123E+02  0.10957206715E+03  0.91579769089E+02 0.  0.
          5    1    3    3  502    0 -0.36943492788E+01 -0.64489890361E+02  0.15200160109E+01  0.64748567738E+02  0.41800000000E+01 0. -1.
         -5    1    3    3    0  502 -0.10063262400E+02  0.60209715945E+02  0.86036220010E+00  0.61193886683E+02  0.41800000000E+01 0. -1.
        -11    1    4    4    0    0  0.84632908844E+01  0.26774135799E+02  0.75680675341E+02  0.80722030824E+02  0.00000000000E+00 0.  1.
         11    1    4    4    0    0  0.52943207944E+01 -0.22493961382E+02 -0.17271840218E+02  0.28850036323E+02  0.00000000000E+00 0. -1.
</event>
<event>
 8    1  0.6906553E-009  0.1294295E+03  0.7561462E-02  0.1228305E+00
         -1   -1    0    0    0  501 -0.00000000000E+00  0.00000000000E+00  0.21498871783E+02  0.21498871783E+02  0.00000000000E+00 0.  1.
          1   -1    0    0  501    0  0.00000000000E+00 -0.00000000000E+00 -0.92681767590E+03  0.92681767590E+03  0.00000000000E+00 0. -1.
         25    2    1    2    0    0  0.55052841496E+02 -0.49602033840E+02 -0.65760478529E+03  0.67348552014E+03  0.12509002794E+03 0.  0.
         23    2    1    2    0    0 -0.55052841496E+02  0.49602033840E+02 -0.24771401883E+03  0.27483102754E+03  0.93159441048E+02 0.  0.
          5    1    3    3  502    0  0.93388529939E+02 -0.20246807544E+02 -0.47670139384E+03  0.48620267587E+03  0.41800000000E+01 0.  1.
         -5    1    3    3    0  502 -0.38335688443E+02 -0.29355226296E+02 -0.18090339145E+03  0.18728284427E+03  0.41800000000E+01 0.  1.
        -11    1    4    4    0    0 -0.68887648360E+02  0.61709970935E+01 -0.11166539991E+03  0.13134972721E+03  0.00000000000E+00 0.  1.
         11    1    4    4    0    0  0.13834806864E+02  0.43431036746E+02 -0.13604861892E+03  0.14348130033E+03  0.00000000000E+00 0. -1.
</event>
<event>
 8    1  0.6906553E-009  0.1256527E+03  0.7561462E-02  0.1234053E+00
         -2   -1    0    0    0  501 -0.00000000000E+00  0.00000000000E+00  0.11017590947E+03  0.11017590947E+03  0.00000000000E+00 0. -1.
          2   -1    0    0  501    0  0.00000000000E+00 -0.00000000000E+00 -0.15581683678E+03  0.15581683678E+03  0.00000000000E+00 0.  1.
         25    2    1    2    0    0  0.31736149704E+02 -0.61874462303E+02 -0.91319449611E+00  0.14312282132E+03  0.12509067021E+03 0.  0.
         23    2    1    2    0    0 -0.31736149704E+02  0.61874462303E+02 -0.44727732812E+02  0.12286992493E+03  0.90889031713E+02 0.  0.
          5    1    3    3  502    0 -0.47082532249E+02 -0.10634626566E+02  0.57229105058E+01  0.48786106934E+02  0.41800000000E+01 0.  1.
         -5    1    3    3    0  502  0.78818681953E+02 -0.51239835738E+02 -0.66361050019E+01  0.94336714384E+02  0.41800000000E+01 0.  1.
        -11    1    4    4    0    0 -0.37111689650E+02 -0.85827454007E+01  0.20189397686E+01  0.38144686984E+02  0.00000000000E+00 0.  1.
         11    1    4    4    0    0  0.53755399463E+01  0.70457207704E+02 -0.46746672581E+02  0.84725237943E+02  0.00000000000E+00 0. -1.
</event>
<event>
 8    1  0.6906553E-009  0.1430739E+03  0.7561462E-02  0.1209252E+00
          2   -1    0    0  501    0  0.00000000000E+00  0.00000000000E+00  0.48463320595E+03  0.48463320595E+03  0.00000000000E+00 0.  1.
         -2   -1    0    0    0  501 -0.00000000000E+00 -0.00000000000E+00 -0.53067571917E+02  0.53067571917E+02  0.00000000000E+00 0. -1.
         25    2    1    2    0    0  0.39798740645E+02  0.99316694329E+02  0.14886891266E+03  0.22193622230E+03  0.12508392416E+03 0.  0.
         23    2    1    2    0    0 -0.39798740645E+02 -0.99316694329E+02  0.28269672137E+03  0.31576455557E+03  0.91334948120E+02 0.  0.
          5    1    3    3  502    0  0.63236007366E+02  0.11049838099E+03  0.85746990994E+02  0.15355358574E+03  0.41800000000E+01 0.  1.
         -5    1    3    3    0  502 -0.23437266721E+02 -0.11181686662E+02  0.63121921666E+02  0.68382636559E+02  0.41800000000E+01 0.  1.
        -11    1    4    4    0    0  0.19593858155E+02 -0.54922571484E+02  0.17918136438E+03  0.18843133889E+03  0.00000000000E+00 0. -1.
         11    1    4    4    0    0 -0.59392598800E+02 -0.44394122845E+02  0.10351535700E+03  0.12733321668E+03  0.00000000000E+00 0.  1.
</event>
<event>
 8    1  0.6906553E-009  0.1599914E+03  0.7561462E-02  0.1188707E+00
         -4   -1    0    0    0  501 -0.00000000000E+00  0.00000000000E+00  0.19213640288E+03  0.19213640288E+03  0.00000000000E+00 0.  1.
          4   -1    0    0  501    0  0.00000000000E+00 -0.00000000000E+00 -0.13790798632E+03  0.13790798632E+03  0.00000000000E+00 0. -1.
         25    2    1    2    0    0 -0.51085346933E+02  0.10927883753E+03  0.21827258288E+02  0.17514608190E+03  0.12509254093E+03 0.  0.
         23    2    1    2    0    0  0.51085346933E+02 -0.10927883753E+03  0.32401158278E+02  0.15489830730E+03  0.91608261327E+02 0.  0.
          5    1    3    3  502    0  0.36578611354E+02  0.64581854484E+02  0.34115127320E+00  0.74339757340E+02  0.41800000000E+01 0.  1.
         -5    1    3    3    0  502 -0.87663958287E+02  0.44696983049E+02  0.21486107014E+02  0.10080632456E+03  0.41800000000E+01 0.  1.
        -11    1    4    4    0    0  0.69725615597E+02 -0.52177604441E+02  0.37073966408E+02  0.94650107558E+02  0.00000000000E+00 0. -1.
         11    1    4    4    0    0 -0.18640268664E+02 -0.57101233092E+02 -0.46728081296E+01  0.60248199743E+02  0.00000000000E+00 0.  1.
</event>
<event>
 8    1  0.6906553E-009  0.1393897E+03  0.7561462E-02  0.1214152E+00
         -3   -1    0    0    0  501 -0.00000000000E+00  0.00000000000E+00  0.76049514902E+02  0.76049514902E+02  0.00000000000E+00 0.  1.
          3   -1    0    0  501    0  0.00000000000E+00 -0.00000000000E+00 -0.40052922969E+03  0.40052922969E+03  0.00000000000E+00 0. -1.
         25    2    1    2    0    0  0.78136421265E+01 -0.10261613954E+03 -0.49220177776E+02  0.16929751795E+03  0.12509156081E+03 0.  0.
         23    2    1    2    0    0 -0.78136421265E+01  0.10261613954E+03 -0.27525953701E+03  0.30728122664E+03  0.89793175888E+02 0.  0.
          5    1    3    3  502    0 -0.91015557489E+01  0.25685882026E+02 -0.25716856830E+02  0.37701882947E+02  0.41800000000E+01 0. -1.
         -5    1    3    3    0  502  0.16915197875E+02 -0.12830202156E+03 -0.23503320946E+02  0.13159563500E+03  0.41800000000E+01 0. -1.
        -11    1    4    4    0    0 -0.25141496045E+02  0.92803211741E+01 -0.13682118461E+03  0.13942114525E+03  0.00000000000E+00 0.  1.
         11    1    4    4    0    0  0.17327853918E+02  0.93335818361E+02 -0.13843835240E+03  0.16786008139E+03  0.00000000000E+00 0. -1.
</event>
<event>
 8    1  0.6906553E-009  0.1416782E+03  0.7561462E-02  0.1211089E+00
          2   -1    0    0  501    0  0.00000000000E+00  0.00000000000E+00  0.19699504129E+04  0.19699504129E+04  0.00000000000E+00 0.  1.
         -2   -1    0    0    0  501 -0.00000000000E+00 -0.00000000000E+00 -0.17073933955E+02  0.17073933955E+02  0.00000000000E+00 0. -1.
         25    2    1    2    0    0 -0.64961527137E+02 -0.98131554443E+02  0.15044558220E+04  0.15142270565E+04  0.12508579607E+03 0.  0.
         23    2    1    2    0    0  0.64961527137E+02  0.98131554443E+02  0.44842065696E+03  0.47279729034E+03  0.92770632114E+02 0.  0.
          5    1    3    3  502    0 -0.36884763692E+02 -0.96031256552E-01  0.11108361208E+03  0.11712188645E+03  0.41800000000E+01 0.  1.
         -5    1    3    3    0  502 -0.28076763445E+02 -0.98035523187E+02  0.13933722099E+04  0.13971051700E+04  0.41800000000E+01 0.  1.
        -11    1    4    4    0    0  0.76121024118E+02  0.41992513645E+02  0.33015447956E+03  0.34140849710E+03  0.00000000000E+00 0.  1.
         11    1    4    4    0    0 -0.11159496981E+02  0.56139040799E+02  0.11826617740E+03  0.13138879325E+03  0.00000000000E+00 0. -1.
</event>
<event>
 8    1  0.6906553E-009  0.1136172E+03  0.7561462E-02  0.1254014E+00
         -2   -1    0    0    0  501 -0.00000000000E+00  0.00000000000E+00  0.21484787129E+02  0.21484787129E+02  0.00000000000E+00 0.  1.
          2   -1    0    0  501    0  0.00000000000E+00 -0.00000000000E+00 -0.75044383535E+03  0.75044383535E+03  0.00000000000E+00 0. -1.
         25    2    1    2    0    0  0.39334664112E+02 -0.18892009471E+01 -0.56927987568E+03  0.58419111165E+03  0.12509553624E+03 0.  0.
         23    2    1    2    0    0 -0.39334664112E+02  0.18892009471E+01 -0.15967917253E+03  0.18773751083E+03  0.90538113247E+02 0.  0.
          5    1    3    3  502    0 -0.83415359103E+01 -0.56563623508E+02 -0.21319719035E+03  0.22077033111E+03  0.41800000000E+01 0. -1.
         -5    1    3    3    0  502  0.47676200023E+02  0.54674422560E+02 -0.35608268533E+03  0.36342078054E+03  0.41800000000E+01 0. -1.
        -11    1    4    4    0    0 -0.62849788522E+02  0.21706176990E+02 -0.93175058497E+02  0.11446766165E+03  0.00000000000E+00 0.  1.
         11    1    4    4    0    0  0.23515124410E+02 -0.19816976043E+02 -0.66504114037E+02  0.73269849183E+02  0.00000000000E+00 0. -1.
</event>
<event>
 8    1  0.6906553E-009  0.1656586E+03  0.7561462E-02  0.1182452E+00
          1   -1    0    0  501    0  0.00000000000E+00  0.00000000000E+00  0.48023192317E+02  0.48023192317E+02  0.00000000000E+00 0. -1.
         -1   -1    0    0    0  501 -0.00000000000E+00 -0.00000000000E+00 -0.77502063177E+03  0.77502063177E+03  0.00000000000E+00 0.  1.
         25    2    1    2    0    0 -0.16384215781E+01  0.15617730165E+03 -0.43356205675E+03  0.47751186201E+03  0.12508991697E+03 0.  0.
         23    2    1    2    0    0  0.16384215781E+01 -0.15617730165E+03 -0.29343538270E+03  0.34553196208E+03  0.94307894795E+02 0.  0.
          5    1    3    3  502    0 -0.63250648623E+01  0.15768336926E+03 -0.44055966910E+03  0.46798968560E+03  0.41800000000E+01 0. -1.
         -5    1    3    3    0  502  0.46866432842E+01 -0.15060676091E+01  0.69976123532E+01  0.95221764089E+01  0.41800000000E+01 0. -1.
        -11    1    4    4    0    0 -0.26477253991E+02 -0.10813240429E+03 -0.25395901804E+03  0.27728837819E+03  0.00000000000E+00 0.  1.
         11    1    4    4    0    0  0.28115675569E+02 -0.48044897359E+02 -0.39476364667E+02  0.68243583891E+02  0.00000000000E+00 0. -1.
</event>
<event>
 8    1  0.6906553E-009  0.8016384E+02  0.7561462E-02  0.1328587E+00
          2   -1    0    0  501    0  0.00000000000E+00  0.00000000000E+00  0.40760728839E+02  0.40760728839E+02  0.00000000000E+00 0. -1.
         -2   -1    0    0    0  501 -0.00000000000E+00 -0.00000000000E+00 -0.42339758905E+03  0.42339758905E+03  0.00000000000E+00 0.  1.
         25    2    1    2    0    0 -0.62586875923E+02  0.26137248829E+02 -0.26120851637E+03  0.29745159057E+03  0.12508911581E+03 0.  0.
         23    2    1    2    0    0  0.62586875923E+02 -0.26137248829E+02 -0.12142834384E+03  0.16670672732E+03  0.91902216684E+02 0.  0.
          5    1    3    3  502    0 -0.10494855932E+02  0.14904437259E+02  0.98746566345E+01  0.21148652314E+02  0.41800000000E+01 0.  1.
         -5    1    3    3    0  502 -0.52092019991E+02  0.11232811570E+02 -0.27108317300E+03  0.27630293826E+03  0.41800000000E+01 0.  1.
        -11    1    4    4    0    0  0.21338600302E+02 -0.39431611387E+02 -0.83472184135E+01  0.45605524826E+02  0.00000000000E+00 0. -1.
         11    1    4    4    0    0  0.41248275621E+02  0.13294362559E+02 -0.11308112542E+03  0.12110120249E+03  0.00000000000E+00 0.  1.
</event>
<event>
 8    1  0.6906553E-009  0.1492736E+03  0.7561462E-02  0.1201368E+00
          2   -1    0    0  501    0  0.00000000000E+00  0.00000000000E+00  0.22429945115E+04  0.22429945115E+04  0.00000000000E+00 0.  1.
         -2   -1    0    0    0  501 -0.00000000000E+00 -0.00000000000E+00 -0.26400771765E+02  0.26400771765E+02  0.00000000000E+00 0. -1.
         25    2    1    2    0    0  0.30585743638E+01  0.14798352956E+03  0.18850489684E+04  0.18949835982E+04  0.12507895185E+03 0.  0.
         23    2    1    2    0    0 -0.30585743638E+01 -0.14798352956E+03  0.33154477134E+03  0.37441168509E+03  0.91398548306E+02 0.  0.
          5    1    3    3  502    0 -0.39472565874E+01  0.93303041292E+02  0.16804094856E+04  0.16830075906E+04  0.41800000000E+01 0. -1.
         -5    1    3    3    0  502  0.70058309512E+01  0.54680488272E+02  0.20463948284E+03  0.21197600761E+03  0.41800000000E+01 0. -1.
        -11    1    4    4    0    0  0.90855400047E+01 -0.94540505280E+02  0.29136918959E+03  0.30645792341E+03  0.00000000000E+00 0.  1.
         11    1    4    4    0    0 -0.12144114369E+02 -0.53443024283E+02  0.40175581745E+02  0.67953761683E+02  0.00000000000E+00 0. -1.
</event>
<event>
 8    1  0.6906553E-009  0.1020175E+03  0.7561462E-02  0.1276110E+00
         -1   -1    0    0    0  501 -0.00000000000E+00  0.00000000000E+00  0.13468027003E+03  0.13468027003E+03  0.00000000000E+00 0.  1.
          1   -1    0    0  501    0  0.00000000000E+00 -0.00000000000E+00 -0.90687028755E+02  0.90687028755E+02  0.00000000000E+00 0. -1.
         25    2    1    2    0    0 -0.40105297131E+01 -0.19209441840E+02  0.10968338623E+02  0.12709230408E+03  0.12508821807E+03 0.  0.
         23    2    1    2    0    0  0.40105297131E+01  0.19209441840E+02  0.33024902648E+02  0.98274994702E+02  0.90455753739E+02 0.  0.
          5    1    3    3  502    0  0.50032531603E+02  0.79853933079E+01 -0.24928168781E+02  0.56620726979E+02  0.41800000000E+01 0.  1.
         -5    1    3    3    0  502 -0.54043061316E+02 -0.27194835148E+02  0.35896507404E+02  0.70471577100E+02  0.41800000000E+01 0.  1.
        -11    1    4    4    0    0  0.21913614776E+02 -0.31728667124E+02  0.13179161957E+02  0.40750523186E+02  0.00000000000E+00 0.  1.
         11    1    4    4    0    0 -0.17903085063E+02  0.50938108965E+02  0.19845740691E+02  0.57524471516E+02  0.00000000000E+00 0. -1.
</event>
<event>
 8    1  0.6906553E-009  0.1091967E+03  0.7561462E-02  0.1262065E+00
         -2   -1    0    0    0  501 -0.00000000000E+00  0.00000000000E+00  0.14528234738E+02  0.14528234738E+02  0.00000000000E+00 0.  1.
          2   -1    0    0  501    0  0.00000000000E+00 -0.00000000000E+00 -0.89112561403E+03  0.89112561403E+03  0.00000000000E+00 0. -1.
         25    2    1    2    0    0  0.67674308068E+01 -0.29459235782E+02 -0.55862690851E+03  0.57325807579E+03  0.12508858405E+03 0.  0.
         23    2    1    2    0    0 -0.67674308068E+01  0.29459235782E+02 -0.31797047078E+03  0.33239577298E+03  0.92022197915E+02 0.  0.
          5    1    3    3  502    0 -0.27550251321E+02 -0.68228203840E+02 -0.38650789778E+03  0.39347164014E+03  0.41800000000E+01 0. -1.
         -5    1    3    3    0  502  0.34317682127E+02  0.38768968058E+02 -0.17211901073E+03  0.17978643565E+03  0.41800000000E+01 0. -1.
        -11    1    4    4    0    0 -0.27683895068E+02 -0.23180270250E+02 -0.17351503387E+03  0.17723202294E+03  0.00000000000E+00 0. -1.
         11    1    4    4    0    0  0.20916464261E+02  0.52639506032E+02 -0.14445543691E+03  0.15516375004E+03  0.00000000000E+00 0.  1.
</event>
<event>
 8    1  0.6906553E-009  0.1018255E+03  0.7561462E-02  0.1276503E+00
          2   -1    0    0  501    0  0.00000000000E+00  0.00000000000E+00  0.48060163939E+03  0.48060163939E+03  0.00000000000E+00 0. -1.
         -2   -1    0    0    0  501 -0.00000000000E+00 -0.00000000000E+00 -0.25171001945E+02  0.25171001945E+02  0.00000000000E+00 0.  1.
         25    2    1    2    0    0 -0.11102717840E+02 -0.20874184919E+02  0.26718546579E+03  0.29596308103E+03  0.12508824991E+03 0.  0.
         23    2    1    2    0    0  0.11102717840E+02  0.20874184919E+02  0.18824517166E+03  0.20980956031E+03  0.89581275969E+02 0.  0.
          5    1    3    3  502    0 -0.45175115370E+02  0.37243295343E+02  0.14386917723E+03  0.15538232413E+03  0.41800000000E+01 0. -1.
         -5    1    3    3    0  502  0.34072397529E+02 -0.58117480262E+02  0.12331628856E+03  0.14058075690E+03  0.41800000000E+01 0. -1.
        -11    1    4    4    0    0  0.92440114586E+01  0.48699074132E+02  0.56573148514E+02  0.75216837889E+02  0.00000000000E+00 0.  1.
         11    1    4    4    0    0  0.18587063818E+01 -0.27824889213E+02  0.13167202315E+03  0.13459272242E+03  0.00000000000E+00 0. -1.
</event>
<event>
 8    1  0.6906553E-009  0.1162066E+03  0.7561462E-02  0.1249490E+00
          1   -1    0    0  501    0  0.00000000000E+00  0.00000000000E+00  0.51461174706E+03  0.51461174706E+03  0.00000000000E+00 0. -1.
         -1   -1    0    0    0  501 -0.00000000000E+00 -0.00000000000E+00 -0.38602421868E+02  0.38602421868E+02  0.00000000000E+00 0.  1.
         25    2    1    2    0    0 -0.44211148097E+02  0.28753105836E+02  0.11041562531E+03  0.17498698501E+03  0.12508983931E+03 0.  0.
         23    2    1    2    0    0  0.44211148097E+02 -0.28753105836E+02  0.36559369989E+03  0.37822718392E+03  0.81336846204E+02 0.  0.
          5    1    3    3  502    0  0.27005978519E+01 -0.46597080100E+02  0.39946693494E+02  0.61577526937E+02  0.41800000000E+01 0.  1.
         -5    1    3    3    0  502 -0.46911745949E+02  0.75350185936E+02  0.70468931812E+02  0.11340945807E+03  0.41800000000E+01 0.  1.
        -11    1    4    4    0    0 -0.16074855184E+02 -0.32533483752E+02  0.15047250264E+03  0.15478631266E+03  0.00000000000E+00 0. -1.
         11    1    4    4    0    0  0.60286003281E+02  0.37803779154E+01  0.21512119724E+03  0.22344087127E+03  0.00000000000E+00 0.  1.
</event>
<event>
 8    1  0.6906553E-009  0.1816160E+03  0.7561462E-02  0.1166248E+00
         -2   -1    0    0    0  501 -0.00000000000E+00  0.00000000000E+00  0.24725320734E+02  0.24725320734E+02  0.00000000000E+00 0.  1.
          2   -1    0    0  501    0  0.00000000000E+00 -0.00000000000E+00 -0.19284909491E+04  0.19284909491E+04  0.00000000000E+00 0. -1.
         25    2    1    2    0    0 -0.14651674514E+03 -0.56657729168E+02 -0.14489187020E+04  0.14627681872E+04  0.12509240409E+03 0.  0.
         23    2    1    2    0    0  0.14651674514E+03  0.56657729168E+02 -0.45484692632E+03  0.49044808260E+03  0.94743551035E+02 0.  0.
          5    1    3    3  502    0  0.22601712931E+02 -0.86816902363E+01 -0.21017069239E+03  0.21160198844E+03  0.41800000000E+01 0.  1.
         -5    1    3    3    0  502 -0.16911845807E+03 -0.47976038931E+02 -0.12387480096E+04  0.12511661988E+04  0.41800000000E+01 0.  1.
        -11    1    4    4    0    0  0.50583581997E+02 -0.15542005727E+01 -0.53222647023E+02  0.73442252574E+02  0.00000000000E+00 0.  1.
         11    1    4    4    0    0  0.95933163142E+02  0.58211929740E+02 -0.40162427929E+03  0.41700583002E+03  0.00000000000E+00 0. -1.
</event>
<event>
 8    1  0.6906553E-009  0.9802256E+02  0.7561462E-02  0.1284510E+00
         -1   -1    0    0    0  501 -0.00000000000E+00  0.00000000000E+00  0.35484648168E+02  0.35484648168E+02  0.00000000000E+00 0.  1.
          1   -1    0    0  501    0  0.00000000000E+00 -0.00000000000E+00 -0.54255046485E+03  0.54255046485E+03  0.00000000000E+00 0. -1.
         25    2    1    2    0    0 -0.38963133299E+02 -0.35812833275E+02 -0.13612703985E+03  0.19230575777E+03  0.12510095406E+03 0.  0.
         23    2    1    2    0    0  0.38963133299E+02  0.35812833275E+02 -0.37093877683E+03  0.38572935525E+03  0.91601717028E+02 0.  0.
          5    1    3    3  502    0 -0.54051421262E+02  0.58225369304E+01 -0.13738178015E+03  0.14780623801E+03  0.41800000000E+01 0. -1.
         -5    1    3    3    0  502  0.15088287963E+02 -0.41635370206E+02  0.12547402957E+01  0.44499519762E+02  0.41800000000E+01 0. -1.
        -11    1    4    4    0    0 -0.14255040365E+02  0.41154229441E+02 -0.24596639594E+03  0.24979260339E+03  0.00000000000E+00 0.  1.
         11    1    4    4    0    0  0.53218173664E+02 -0.53413961651E+01 -0.12497238089E+03  0.13593675186E+03  0.00000000000E+00 0. -1.
</event>
<event>
 8    1  0.6906553E-009  0.2536473E+03  0.7561462E-02  0.1111021E+00
         -2   -1    0    0    0  501 -0.00000000000E+00  0.00000000000E+00  0.33537814749E+03  0.33537814749E+03  0.00000000000E+00 0.  1.
          2   -1    0    0  501    0  0.00000000000E+00 -0.00000000000E+00 -0.23493413864E+03  0.23493413864E+03  0.00000000000E+00 0. -1.
         25    2    1    2    0    0 -0.13282570921E+03  0.20462964324E+03 -0.36870806704E+02  0.27662826265E+03  0.12509108439E+03 0.  0.
         23    2    1    2    0    0  0.13282570921E+03 -0.20462964324E+03  0.13731481555E+03  0.29368402348E+03  0.88763659001E+02 0.  0.
          5    1    3    3  502    0 -0.12094197185E+03  0.10145504385E+03 -0.62069263318E+02  0.16967661102E+03  0.41800000000E+01 0. -1.
         -5    1    3    3    0  502 -0.11883737361E+02  0.10317459939E+03  0.25198456614E+02  0.10695165164E+03  0.41800000000E+01 0. -1.
        -11    1    4    4    0    0  0.69993278589E+02 -0.13193834915E+03  0.35148635982E+02  0.15343472109E+03  0.00000000000E+00 0. -1.
         11    1    4    4    0    0  0.62832430619E+02 -0.72691294090E+02  0.10216617957E+03  0.14024930239E+03  0.00000000000E+00 0.  1.
</event>
<event>
 8    1  0.6906553E-009  0.1471798E+03  0.7561462E-02  0.1203982E+00
         -2   -1    0    0    0  501 -0.00000000000E+00  0.00000000000E+00  0.79921317340E+02  0.79921317340E+02  0.00000000000E+00 0.  1.
          2   -1    0    0  501    0  0.00000000000E+00 -0.00000000000E+00 -0.36502895409E+03  0.36502895409E+03  0.00000000000E+00 0. -1.
         25    2    1    2    0    0  0.90746846642E+02  0.51021793516E+02 -0.49301421326E+02  0.17004715915E+03  0.12508873890E+03 0.  0.
         23    2    1    2    0    0 -0.90746846642E+02 -0.51021793516E+02 -0.23580621543E+03  0.27490311229E+03  0.95545467301E+02 0.  0.
          5    1    3    3  502    0  0.11549403401E+03  0.11789859053E+02 -0.34929702430E+02  0.12130716871E+03  0.41800000000E+01 0.  1.
         -5    1    3    3    0  502 -0.24747187364E+02  0.39231934462E+02 -0.14371718896E+02  0.48739990440E+02  0.41800000000E+01 0.  1.
        -11    1    4    4    0    0 -0.20474432844E+02  0.22151923790E+02 -0.19313262896E+02  0.35817764469E+02  0.00000000000E+00 0.  1.
         11    1    4    4    0    0 -0.70272413799E+02 -0.73173717306E+02 -0.21649295253E+03  0.23908534782E+03  0.00000000000E+00 0. -1.
</event>
<event>
 8    1  0.6906553E-009  0.1280087E+03  0.7561462E-02  0.1230441E+00
          2   -1    0    0  501    0  0.00000000000E+00  0.00000000000E+00  0.30718411959E+03  0.30718411959E+03  0.00000000000E+00 0. -1.
         -2   -1    0    0    0  501 -0.00000000000E+00 -0.00000000000E+00 -0.63081384646E+02  0.63081384646E+02  0.00000000000E+00 0.  1.
         25    2    1    2    0    0 -0.81886205246E+02  0.20269760388E+01  0.89382919645E+02  0.17420209140E+03  0.12509037965E+03 0.  0.
         23    2    1    2    0    0  0.81886205246E+02 -0.20269760388E+01  0.15471981530E+03  0.19606341284E+03  0.88278997313E+02 0.  0.
          5    1    3    3  502    0 -0.10949871397E+03 -0.12526652288E+02  0.43519525944E+02  0.11856773135E+03  0.41800000000E+01 0.  1.
         -5    1    3    3    0  502  0.27612508728E+02  0.14553628326E+02  0.45863393701E+02  0.55634360044E+02  0.41800000000E+01 0.  1.
        -11    1    4    4    0    0  0.97507765661E+02  0.37452911859E+01  0.14965343225E+03  0.17865593008E+03  0.00000000000E+00 0. -1.
         11    1    4    4    0    0 -0.15621560414E+02 -0.57722672248E+01  0.50663830510E+01  0.17407482756E+02  0.00000000000E+00 0.  1.
</event>
<event>
 8    1  0.6906553E-009  0.1457394E+03  0.7561462E-02  0.1205808E+00
         -1   -1    0    0    0  501 -0.00000000000E+00  0.00000000000E+00  0.15921550116E+03  0.15921550116E+03  0.00000000000E+00 0.  1.
          1   -1    0    0  501    0  0.00000000000E+00 -0.00000000000E+00 -0.20047993194E+03  0.20047993194E+03  0.00000000000E+00 0. -1.
         25    2    1    2    0    0 -0.50667552017E+02 -0.11750622891E+03 -0.86147870437E+02  0.19861385778E+03  0.12510433351E+03 0.  0.
         23    2    1    2    0    0  0.50667552017E+02  0.11750622891E+03  0.44883439664E+02  0.16108157532E+03  0.86935815934E+02 0.  0.
          5    1    3    3  502    0 -0.53967640285E+02 -0.47907709849E+02 -0.10391723498E+03  0.12658561919E+03  0.41800000000E+01 0. -1.
         -5    1    3    3    0  502  0.33000882688E+01 -0.69598519058E+02  0.17769364542E+02  0.72028238587E+02  0.41800000000E+01 0. -1.
        -11    1    4    4    0    0  0.56979414167E+02  0.35479693496E+02  0.41140614311E+02  0.78727456680E+02  0.00000000000E+00 0.  1.
         11    1    4    4    0    0 -0.63118621501E+01  0.82026535411E+02  0.37428253522E+01  0.82354118640E+02  0.00000000000E+00 0. -1.
</event>
<event>
 8    1  0.6906553E-009  0.1715294E+03  0.7561462E-02  0.1176262E+00
         -1   -1    0    0    0  501 -0.00000000000E+00  0.00000000000E+00  0.12963482807E+03  0.12963482807E+03  0.00000000000E+00 0. -1.
          1   -1    0    0  501    0  0.00000000000E+00 -0.00000000000E+00 -0.31705131384E+03  0.31705131384E+03  0.00000000000E+00 0.  1.
         25    2    1    2    0    0 -0.33966173102E+01  0.15302975090E+03 -0.13232239371E+02  0.19812150256E+03  0.12508955171E+03 0.  0.
         23    2    1    2    0    0  0.33966173102E+01 -0.15302975090E+03 -0.17418424639E+03  0.24856463935E+03  0.89524223401E+02 0.  0.
          5    1    3    3  502    0  0.39832318231E+02  0.11166597297E+02  0.19914238263E+02  0.46101580846E+02  0.41800000000E+01 0. -1.
         -5    1    3    3    0  502 -0.43228935541E+02  0.14186315360E+03 -0.33146477634E+02  0.15201992171E+03  0.41800000000E+01 0. -1.
        -11    1    4    4    0    0 -0.41955110299E+00 -0.69382182392E+02 -0.18527101110E+02  0.71814460467E+02  0.00000000000E+00 0. -1.
         11    1    4    4    0    0  0.38161684132E+01 -0.83647568509E+02 -0.15565714528E+03  0.17675017889E+03  0.00000000000E+00 0.  1.
</event>
<event>
 8    1  0.6906553E-009  0.9781130E+02  0.7561462E-02  0.1284967E+00
         -1   -1    0    0    0  501 -0.00000000000E+00  0.00000000000E+00  0.17545019075E+02  0.17545019075E+02  0.00000000000E+00 0.  1.
          1   -1    0    0  501    0  0.00000000000E+00 -0.00000000000E+00 -0.10180884733E+04  0.10180884733E+04  0.00000000000E+00 0. -1.
         25    2    1    2    0    0  0.20566268399E+02 -0.32851272821E+02 -0.82104287189E+03  0.83142163320E+03  0.12509339375E+03 0.  0.
         23    2    1    2    0    0 -0.20566268399E+02  0.32851272821E+02 -0.17950058231E+03  0.20421185915E+03  0.89329988488E+02 0.  0.
          5    1    3    3  502    0 -0.30207097189E+02  0.32080145165E+02 -0.39386049356E+03  0.39633970937E+03  0.41800000000E+01 0.  1.
         -5    1    3    3    0  502  0.50773365589E+02 -0.64931417987E+02 -0.42718237833E+03  0.43508192384E+03  0.41800000000E+01 0.  1.
        -11    1    4    4    0    0  0.17093020885E+02  0.25121090075E+02 -0.15647839943E+03  0.15940116065E+03  0.00000000000E+00 0. -1.
         11    1    4    4    0    0 -0.37659289284E+02  0.77301827458E+01 -0.23022182882E+02  0.44810698492E+02  0.00000000000E+00 0.  1.
</event>
<event>
 8    1  0.6906553E-009  0.1293600E+03  0.7561462E-02  0.1228408E+00
          2   -1    0    0  501    0  0.00000000000E+00  0.00000000000E+00  0.75716166563E+02  0.75716166563E+02  0.00000000000E+00 0. -1.
         -2   -1    0    0    0  501 -0.00000000000E+00 -0.00000000000E+00 -0.23354923667E+03  0.23354923667E+03  0.00000000000E+00 0.  1.
         25    2    1    2    0    0  0.66128072764E+02  0.23916115685E+02 -0.10306025316E+03  0.17667466223E+03  0.12509043886E+03 0.  0.
         23    2    1    2    0    0 -0.66128072764E+02 -0.23916115685E+02 -0.54772816945E+02  0.13259074101E+03  0.98159770417E+02 0.  0.
          5    1    3    3  502    0 -0.11290417528E+02 -0.37508018072E+02 -0.95003465992E+01  0.40522264659E+02  0.41800000000E+01 0.  1.
         -5    1    3    3    0  502  0.77418490292E+02  0.61424133757E+02 -0.93559906566E+02  0.13615239757E+03  0.41800000000E+01 0.  1.
        -11    1    4    4    0    0 -0.21265279459E+02 -0.59477921748E+02 -0.23790503914E+02  0.67496839648E+02  0.00000000000E+00 0.  1.
         11    1    4    4    0    0 -0.44862793306E+02  0.35561806063E+02 -0.30982313032E+02  0.65093901362E+02  0.00000000000E+00 0. -1.
</event>
<event>
 8    1  0.6906553E-009  0.1039965E+03  0.7561462E-02  0.1272109E+00
         -1   -1    0    0    0  501 -0.00000000000E+00  0.00000000000E+00  0.33235198475E+02  0.33235198475E+02  0.00000000000E+00 0.  1.
          1   -1    0    0  501    0  0.00000000000E+00 -0.00000000000E+00 -0.47204219104E+03  0.47204219104E+03  0.00000000000E+00 0. -1.
         25    2    1    2    0    0  0.44252014705E+02 -0.59891276461E+01 -0.31041086225E+03  0.33763268136E+03  0.12508722423E+03 0.  0.
         23    2    1    2    0    0 -0.44252014705E+02  0.59891276461E+01 -0.12839613032E+03  0.16764470816E+03  0.98107448429E+02 0.  0.
          5    1    3    3  502    0  0.45717859196E+02 -0.57395574458E+02 -0.23526534722E+03  0.24647845873E+03  0.41800000000E+01 0. -1.
         -5    1    3    3    0  502 -0.14658444905E+01  0.51406446812E+02 -0.75145515034E+02  0.91154222632E+02  0.41800000000E+01 0. -1.
        -11    1    4    4    0    0 -0.63177040155E+02  0.44580191327E+00 -0.35073429341E+02  0.72261210811E+02  0.00000000000E+00 0.  1.
         11    1    4    4    0    0  0.18925025450E+02  0.55433257328E+01 -0.93322700976E+02  0.95383497346E+02  0.00000000000E+00 0. -1.
</event>
<event>
 8    1  0.6906553E-009  0.1097576E+03  0.7561462E-02  0.1261019E+00
          1   -1    0    0  501    0  0.00000000000E+00  0.00000000000E+00  0.83461788485E+02  0.83461788485E+02  0.00000000000E+00 0. -1.
         -1   -1    0    0    0  501 -0.00000000000E+00 -0.00000000000E+00 -0.22428882384E+03  0.22428882384E+03  0.00000000000E+00 0.  1.
         25    2    1    2    0    0 -0.65776417665E+00 -0.78634393956E+02 -0.47104355898E+02  0.15507986053E+03  0.12508853756E+03 0.  0.
         23    2    1    2    0    0  0.65776417665E+00  0.78634393956E+02 -0.93722679462E+02  0.15267075180E+03  0.91326979826E+02 0.  0.
          5    1    3    3  502    0 -0.30029882736E+02  0.99386766204E+01  0.22112345325E+02  0.38820089720E+02  0.41800000000E+01 0.  1.
         -5    1    3    3    0  502  0.29372118559E+02 -0.88573070576E+02 -0.69216701223E+02  0.11625977081E+03  0.41800000000E+01 0.  1.
        -11    1    4    4    0    0  0.23224805333E+02  0.17642829605E+02 -0.81417855316E+02  0.86484265525E+02  0.00000000000E+00 0.  1.
         11    1    4    4    0    0 -0.22567041156E+02  0.60991564351E+02 -0.12304824146E+02  0.66186486278E+02  0.00000000000E+00 0. -1.
</event>
<event>
 8    1  0.6906553E-009  0.1387719E+03  0.7561462E-02  0.1214991E+00
         -2   -1    0    0    0  501 -0.00000000000E+00  0.00000000000E+00  0.19718140868E+03  0.19718140868E+03  0.00000000000E+00 0.  1.
          2   -1    0    0  501    0  0.00000000000E+00 -0.00000000000E+00 -0.25340668427E+03  0.25340668427E+03  0.00000000000E+00 0. -1.
         25    2    1    2    0    0 -0.11234224940E+03  0.40012470608E+02  0.12563007087E+03  0.21366453438E+03  0.12509132560E+03 0.  0.
         23    2    1    2    0    0  0.11234224940E+03 -0.40012470608E+02 -0.18185534646E+03  0.23692355857E+03  0.94019289311E+02 0.  0.
          5    1    3    3  502    0 -0.16328739378E+01  0.11896013777E+02 -0.22931825015E+02  0.26220648725E+02  0.41800000000E+01 0.  1.
         -5    1    3    3    0  502 -0.11070937547E+03  0.28116456831E+02  0.14856189589E+03  0.18744388566E+03  0.41800000000E+01 0.  1.
        -11    1    4    4    0    0  0.22736424300E+02  0.29412275843E+02 -0.59252254681E+02  0.69948957426E+02  0.00000000000E+00 0. -1.
         11    1    4    4    0    0  0.89605825104E+02 -0.69424746451E+02 -0.12260309178E+03  0.16697460114E+03  0.00000000000E+00 0.  1.
</event>
<event>
 8    1  0.6906553E-009  0.8462097E+02  0.7561462E-02  0.1316427E+00
          3   -1    0    0  501    0  0.00000000000E+00  0.00000000000E+00  0.44092302805E+03  0.44092302805E+03  0.00000000000E+00 0. -1.
         -3   -1    0    0    0  501 -0.00000000000E+00 -0.00000000000E+00 -0.36960026527E+02  0.36960026527E+02  0.00000000000E+00 0.  1.
         25    2    1    2    0    0 -0.58310971181E+02  0.16186177634E+02  0.17670088876E+03  0.22479501642E+03  0.12508970226E+03 0.  0.
         23    2    1    2    0    0  0.58310971181E+02 -0.16186177634E+02  0.22726211276E+03  0.25308803816E+03  0.93505750918E+02 0.  0.
          5    1    3    3  502    0  0.78143884765E+01 -0.24641792133E+02  0.13296944135E+03  0.13552353051E+03  0.41800000000E+01 0. -1.
         -5    1    3    3    0  502 -0.66125359657E+02  0.40827969767E+02  0.43731447408E+02  0.89271485915E+02  0.41800000000E+01 0. -1.
        -11    1    4    4    0    0  0.43519909115E+02 -0.22679591142E+02  0.23129063933E+03  0.23643964597E+03  0.00000000000E+00 0. -1.
         11    1    4    4    0    0  0.14791062066E+02  0.64934135073E+01 -0.40285265724E+01  0.16648392185E+02  0.00000000000E+00 0.  1.
</event>
<event>
 8    1  0.6906553E-009  0.9425525E+02  0.7561462E-02  0.1292862E+00
         -2   -1    0    0    0  501 -0.00000000000E+00  0.00000000000E+00  0.30915594794E+02  0.30915594794E+02  0.00000000000E+00 0.  1.
          2   -1    0    0  501    0  0.00000000000E+00 -0.00000000000E+00 -0.39252261946E+03  0.39252261946E+03  0.00000000000E+00 0. -1.
         25    2    1    2    0    0 -0.12243918272E+02 -0.15984327079E+02 -0.19991537820E+03  0.23668438142E+03  0.12509166926E+03 0.  0.
         23    2    1    2    0    0  0.12243918272E+02  0.15984327079E+02 -0.16169164647E+03  0.18675383284E+03  0.91254552195E+02 0.  0.
          5    1    3    3  502    0  0.47990585063E+02 -0.37149094015E+02 -0.77165294592E+02  0.98260401640E+02  0.41800000000E+01 0.  1.
         -5    1    3    3    0  502 -0.60234503335E+02  0.21164766936E+02 -0.12275008361E+03  0.13842397978E+03  0.41800000000E+01 0.  1.
        -11    1    4    4    0    0  0.12126692510E+01 -0.23076203356E+02 -0.34188936552E+01  0.23359592502E+02  0.00000000000E+00 0.  1.
         11    1    4    4    0    0  0.11031249021E+02  0.39060530435E+02 -0.15827275281E+03  0.16339424034E+03  0.00000000000E+00 0. -1.
</event>
<event>
 8    1  0.6906553E-009  0.1546307E+03  0.7561462E-02  0.1194896E+00
         -2   -1    0    0    0  501 -0.00000000000E+00  0.00000000000E+00  0.30195305431E+02  0.30195305431E+02  0.00000000000E+00 0.  1.
          2   -1    0    0  501    0  0.00000000000E+00 -0.00000000000E+00 -0.98708387083E+03  0.98708387083E+03  0.00000000000E+00 0. -1.
         25    2    1    2    0    0  0.65457659738E+02  0.12025397630E+03 -0.52921797050E+03  0.56077216202E+03  0.12509209954E+03 0.  0.
         23    2    1    2    0    0 -0.65457659738E+02 -0.12025397630E+03 -0.42767059490E+03  0.45650701424E+03  0.82163205096E+02 0.  0.
          5    1    3    3  502    0  0.53962423027E+02  0.92936677209E+01 -0.30936569112E+03  0.31420203468E+03  0.41800000000E+01 0.  1.
         -5    1    3    3    0  502  0.11495236711E+02  0.11096030858E+03 -0.21985227938E+03  0.24657012734E+03  0.41800000000E+01 0.  1.
        -11    1    4    4    0    0 -0.15490839770E+02 -0.70564852982E+02 -0.11358866399E+03  0.13461704640E+03  0.00000000000E+00 0.  1.
         11    1    4    4    0    0 -0.49966819967E+02 -0.49689123320E+02 -0.31408193091E+03  0.32188996784E+03  0.00000000000E+00 0. -1.
</event>
<event>
 8    1  0.6906553E-009  0.7196921E+02  0.7561462E-02  0.1353522E+00
         -1   -1    0    0    0  501 -0.00000000000E+00  0.00000000000E+00  0.47562991420E+03  0.47562991420E+03  0.00000000000E+00 0.  1.
          1   -1    0    0  501    0  0.00000000000E+00 -0.00000000000E+00 -0.26812090502E+02  0.26812090502E+02  0.00000000000E+00 0. -1.
         25    2    1    2    0    0  0.28881126277E+02 -0.41708813307E+01  0.28458391880E+03  0.31223036626E+03  0.12509308162E+03 0.  0.
         23    2    1    2    0    0 -0.28881126277E+02  0.41708813307E+01  0.16423390489E+03  0.19021163844E+03  0.91412122686E+02 0.  0.
          5    1    3    3  502    0  0.76191484277E+01  0.34306353350E+02  0.13986713573E+02  0.38053618218E+02  0.41800000000E+01 0.  1.
         -5    1    3    3    0  502  0.21261977849E+02 -0.38477234681E+02  0.27059720523E+03  0.27417674805E+03  0.41800000000E+01 0.  1.
        -11    1    4    4    0    0 -0.23113990424E+02 -0.25352661823E+02  0.14097260805E+02  0.37091060609E+02  0.00000000000E+00 0. -1.
         11    1    4    4    0    0 -0.57671358527E+01  0.29523543154E+02  0.15013664409E+03  0.15312057783E+03  0.00000000000E+00 0.  1.
</event>
<event>
 8    1  0.6906553E-009  0.1272180E+03  0.7561462E-02  0.1231643E+00
          2   -1    0    0  501    0  0.00000000000E+00  0.00000000000E+00  0.13628529629E+03  0.13628529629E+03  0.00000000000E+00 0.  1.
         -2   -1    0    0    0  501 -0.00000000000E+00 -0.00000000000E+00 -0.22541192273E+03  0.22541192273E+03  0.00000000000E+00 0. -1.
         25    2    1    2    0    0  0.11646056809E+03 -0.27262319420E+02  0.22040384594E+02  0.17446761096E+03  0.12508745237E+03 0.  0.
         23    2    1    2    0    0 -0.11646056809E+03  0.27262319420E+02 -0.11116701104E+03  0.18722960806E+03  0.91599802464E+02 0.  0.
          5    1    3    3  502    0  0.74353440380E+02 -0.12408468769E+02  0.74079207993E+02  0.10577147844E+03  0.41800000000E+01 0.  1.
         -5    1    3    3    0  502  0.42107127709E+02 -0.14853850651E+02 -0.52038823399E+02  0.68696132525E+02  0.41800000000E+01 0.  1.
        -11    1    4    4    0    0 -0.35620579517E+02  0.38528494933E+02 -0.87876971986E+02  0.10235053890E+03  0.00000000000E+00 0. -1.
         11    1    4    4    0    0 -0.80839988572E+02 -0.11266175513E+02 -0.23290039051E+02  0.84879069163E+02  0.00000000000E+00 0.  1.
</event>
<event>
 8    1  0.6906553E-009  0.2739866E+03  0.7561462E-02  0.1099019E+00
          2   -1    0    0  501    0  0.00000000000E+00  0.00000000000E+00  0.23435840542E+03  0.23435840542E+03  0.00000000000E+00 0. -1.
         -2   -1    0    0    0  501 -0.00000000000E+00 -0.00000000000E+00 -0.34224721234E+03  0.34224721234E+03  0.00000000000E+00 0.  1.
         25    2    1    2    0    0  0.25943841362E+03 -0.17926460871E+02 -0.29621195038E+02  0.29009494762E+03  0.12509202604E+03 0.  0.
         23    2    1    2    0    0 -0.25943841362E+03  0.17926460871E+02 -0.78267611878E+02  0.28651067013E+03  0.91284700633E+02 0.  0.
          5    1    3    3  502    0  0.21229963247E+03  0.36398218631E+02 -0.33093702989E+02  0.21796474450E+03  0.41800000000E+01 0. -1.
         -5    1    3    3    0  502  0.47138781153E+02 -0.54324679502E+02  0.34725079510E+01  0.72130203126E+02  0.41800000000E+01 0. -1.
        -11    1    4    4    0    0 -0.57984261016E+02  0.10287878448E+02 -0.60022948861E+02  0.84087866892E+02  0.00000000000E+00 0.  1.
         11    1    4    4    0    0 -0.20145415261E+03  0.76385824238E+01 -0.18244663016E+02  0.20242280324E+03  0.00000000000E+00 0. -1.
</event>
<event>
 8    1  0.6906553E-009  0.1593594E+03  0.7561462E-02  0.1189422E+00
          2   -1    0    0  501    0  0.00000000000E+00  0.00000000000E+00  0.69568145671E+03  0.69568145671E+03  0.00000000000E+00 0. -1.
         -2   -1    0    0    0  501 -0.00000000000E+00 -0.00000000000E+00 -0.51946007104E+02  0.51946007104E+02  0.00000000000E+00 0.  1.
         25    2    1    2    0    0  0.76089739947E+02 -0.13880656279E+03  0.31947014053E+03  0.37784324657E+03  0.12508971937E+03 0.  0.
         23    2    1    2    0    0 -0.76089739947E+02  0.13880656279E+03  0.32426530907E+03  0.36978421724E+03  0.80842230630E+02 0.  0.
          5    1    3    3  502    0  0.19865758632E+02 -0.18151684602E+02 -0.44688517949E+01  0.27596649367E+02  0.41800000000E+01 0.  1.
         -5    1    3    3    0  502  0.56223981314E+02 -0.12065487819E+03  0.32393899232E+03  0.35024659720E+03  0.41800000000E+01 0.  1.
        -11    1    4    4    0    0 -0.24730343851E+02  0.42992357898E+02  0.34828420623E+02  0.60604881220E+02  0.00000000000E+00 0.  1.
         11    1    4    4    0    0 -0.51359396096E+02  0.95814204890E+02  0.28943688845E+03  0.30917933602E+03  0.00000000000E+00 0. -1.
</event>
<event>
 8    1  0.6906553E-009  0.1657264E+03  0.7561462E-02  0.1182379E+00
          2   -1    0    0  501    0  0.00000000000E+00  0.00000000000E+00  0.53979153387E+03  0.53979153387E+03  0.00000000000E+00 0.  1.
         -2   -1    0    0    0  501 -0.00000000000E+00 -0.00000000000E+00 -0.10927699031E+03  0.10927699031E+03  0.00000000000E+00 0. -1.
         25    2    1    2    0    0 -0.57056320296E+02  0.10817302819E+03  0.45764576458E+03  0.48994331970E+03  0.12509189811E+03 0.  0.
         23    2    1    2    0    0  0.57056320296E+02 -0.10817302819E+03 -0.27131221024E+02  0.15912520448E+03  0.98121862156E+02 0.  0.
          5    1    3    3  502    0  0.10131529756E+02  0.10704112962E+03  0.28454178269E+03  0.30420708378E+03  0.41800000000E+01 0.  1.
         -5    1    3    3    0  502 -0.67187850053E+02  0.11318985663E+01  0.17310398189E+03  0.18573623592E+03  0.41800000000E+01 0.  1.
        -11    1    4    4    0    0  0.48742371436E+02 -0.71697848133E+00 -0.41408378992E+01  0.48923198688E+02  0.00000000000E+00 0.  1.
         11    1    4    4    0    0  0.83139488607E+01 -0.10745604971E+03 -0.22990383125E+02  0.11020200579E+03  0.00000000000E+00 0. -1.
</event>
<event>
 8    1  0.6906553E-009  0.1327212E+03  0.7561462E-02  0.1223473E+00
          2   -1    0    0  501    0  0.00000000000E+00  0.00000000000E+00  0.41138489457E+03  0.41138489457E+03  0.00000000000E+00 0. -1.
         -2   -1    0    0    0  501 -0.00000000000E+00 -0.00000000000E+00 -0.59675455092E+02  0.59675455092E+02  0.00000000000E+00 0.  1.
         25    2    1    2    0    0 -0.63260921848E+02  0.53597591128E+02  0.30648046263E+03  0.34125105654E+03  0.12508942243E+03 0.  0.
         23    2    1    2    0    0  0.63260921848E+02 -0.53597591128E+02  0.45228976846E+02  0.12980929312E+03  0.89051368475E+02 0.  0.
          5    1    3    3  502    0 -0.45594186949E+02 -0.32275301901E+02  0.74421414442E+02  0.93147970047E+02  0.41800000000E+01 0. -1.
         -5    1    3    3    0  502 -0.17666734899E+02  0.85872893029E+02  0.23205904819E+03  0.24810308649E+03  0.41800000000E+01 0. -1.
        -11    1    4    4    0    0 -0.20180365439E+02  0.35882596016E+01  0.67146120592E+01  0.21568698879E+02  0.00000000000E+00 0.  1.
         11    1    4    4    0    0  0.83441287287E+02 -0.57185850729E+02  0.38514364786E+02  0.10824059425E+03  0.00000000000E+00 0. -1.
</event>
<event>
 8    1  0.6906553E-009  0.9696025E+02  0.7561462E-02  0.1286821E+00
          1   -1    0    0  501    0  0.00000000000E+00  0.00000000000E+00  0.57620043533E+03  0.57620043533E+03  0.00000000000E+00 0. -1.
         -1   -1    0    0    0  501 -0.00000000000E+00 -0.00000000000E+00 -0.37601450541E+02  0.37601450541E+02  0.00000000000E+00 0.  1.
         25    2    1    2    0    0  0.30343823914E+01  0.38506319241E+02  0.48320998158E+03  0.50063115047E+03  0.12509084069E+03 0.  0.
         23    2    1    2    0    0 -0.30343823914E+01 -0.38506319241E+02  0.55389003214E+02  0.11317073541E+03  0.90817011497E+02 0.  0.
          5    1    3    3  502    0  0.26652941140E+02  0.69180234027E+02  0.41906385774E+03  0.42559167439E+03  0.41800000000E+01 0.  1.
         -5    1    3    3    0  502 -0.23618558748E+02 -0.30673914787E+02  0.64146123840E+02  0.75039476074E+02  0.41800000000E+01 0.  1.
        -11    1    4    4    0    0  0.21571240858E+01 -0.59277796917E+02  0.63430572095E+01  0.59655215752E+02  0.00000000000E+00 0.  1.
         11    1    4    4    0    0 -0.51915064771E+01  0.20771477676E+02  0.49045946005E+02  0.53515519654E+02  0.00000000000E+00 0. -1.
</event>
<event>
 8    1  0.6906553E-009  0.1118525E+03  0.7561462E-02  0.1257177E+00
          4   -1    0    0  501    0  0.00000000000E+00  0.00000000000E+00  0.14231402177E+03  0.14231402177E+03  0.00000000000E+00 0. -1.
         -4   -1    0    0    0  501 -0.00000000000E+00 -0.00000000000E+00 -0.15084697738E+03  0.15084697738E+03  0.00000000000E+00 0.  1.
         25    2    1    2    0    0 -0.36492805513E+02 -0.86735038222E+02 -0.33293159225E+02  0.16003042185E+03  0.12508640916E+03 0.  0.
         23    2    1    2    0    0  0.36492805513E+02  0.86735038222E+02  0.24760203610E+02  0.13313057730E+03  0.90862485216E+02 0.  0.
          5    1    3    3  502    0 -0.28234841669E+02 -0.78030329374E+02 -0.77751327246E+02  0.11379226632E+03  0.41800000000E+01 0. -1.
         -5    1    3    3    0  502 -0.82579638444E+01 -0.87047088475E+01  0.44458168021E+02  0.46238155529E+02  0.41800000000E+01 0. -1.
        -11    1    4    4    0    0  0.38689732846E+02 -0.23870028471E+01 -0.51361528400E+01  0.39102087877E+02  0.00000000000E+00 0.  1.
         11    1    4    4    0    0 -0.21969273335E+01  0.89122041069E+02  0.29896356451E+02  0.94028489422E+02  0.00000000000E+00 0. -1.
</event>
<event>
 8    1  0.6906553E-009  0.7099011E+02  0.7561462E-02  0.1356758E+00
          2   -1    0    0  501    0  0.00000000000E+00  0.00000000000E+00  0.36015855062E+03  0.36015855062E+03  0.00000000000E+00 0. -1.
         -2   -1    0    0    0  501 -0.00000000000E+00 -0.00000000000E+00 -0.41919453307E+02  0.41919453307E+02  0.00000000000E+00 0.  1.
         25    2    1    2    0    0 -0.22618590730E+02 -0.45689290473E+02  0.21554667062E+03  0.25438365087E+03  0.12510620569E+03 0.  0.
         23    2    1    2    0    0  0.22618590730E+02  0.45689290473E+02  0.10269242669E+03  0.14769435306E+03  0.93106259273E+02 0.  0.
          5    1    3    3  502    0 -0.34998261981E+02 -0.58537996554E+02  0.22400898398E+03  0.23419878882E+03  0.41800000000E+01 0. -1.
         -5    1    3    3    0  502  0.12379671251E+02  0.12848706081E+02 -0.84623133609E+01  0.20184862042E+02  0.41800000000E+01 0. -1.
        -11    1    4    4    0    0  0.11551740141E+02  0.42151719818E+02  0.11951145732E+03  0.12725249944E+03  0.00000000000E+00 0. -1.
         11    1    4    4    0    0  0.11066850589E+02  0.35375706558E+01 -0.16819030628E+02  0.20441853618E+02  0.00000000000E+00 0.  1.
</event>
<event>
 8    1  0.6906553E-009  0.1288316E+03  0.7561462E-02  0.1229200E+00
         -1   -1    0    0    0  501 -0.00000000000E+00  0.00000000000E+00  0.37310771731E+02  0.37310771731E+02  0.00000000000E+00 0.  1.
          1   -1    0    0  501    0  0.00000000000E+00 -0.00000000000E+00 -0.51240819479E+03  0.51240819479E+03  0.00000000000E+00 0. -1.
         25    2    1    2    0    0 -0.40009006414E+02 -0.75743849396E+02 -0.25324219330E+03  0.29515527085E+03  0.12508866508E+03 0.  0.
         23    2    1    2    0    0  0.40009006414E+02  0.75743849396E+02 -0.22185522977E+03  0.25456369567E+03  0.90802427631E+02 0.  0.
          5    1    3    3  502    0 -0.75162284658E+02 -0.64521285993E+02 -0.11417263299E+03  0.15121252562E+03  0.41800000000E+01 0. -1.
         -5    1    3    3    0  502  0.35153278243E+02 -0.11222563403E+02 -0.13906956031E+03  0.14394274523E+03  0.41800000000E+01 0. -1.
        -11    1    4    4    0    0  0.43765103705E+02  0.93497641401E+02 -0.16269901700E+03  0.19268669747E+03  0.00000000000E+00 0.  1.
         11    1    4    4    0    0 -0.37560972902E+01 -0.17753792004E+02 -0.59156212766E+02  0.61876998200E+02  0.00000000000E+00 0. -1.
</event>
<event>
 8    1  0.6906553E-009  0.1692993E+03  0.7561462E-02  0.1178580E+00
         -1   -1    0    0    0  501 -0.00000000000E+00  0.00000000000E+00  0.16031976483E+04  0.16031976483E+04  0.00000000000E+00 0.  1.
          1   -1    0    0  501    0  0.00000000000E+00 -0.00000000000E+00 -0.18955301548E+02  0.18955301548E+02  0.00000000000E+00 0. -1.
         25    2    1    2    0    0 -0.12217540300E+03  0.52277418518E+02  0.96493306921E+03  0.98203909643E+03  0.12508077903E+03 0.  0.
         23    2    1    2    0    0  0.12217540300E+03 -0.52277418518E+02  0.61930927752E+03  0.64011385339E+03  0.92422976012E+02 0.  0.
          5    1    3    3  502    0 -0.14602160004E+03  0.45915997720E+02  0.88886104353E+03  0.90195455187E+03  0.41800000000E+01 0. -1.
         -5    1    3    3    0  502  0.23846197037E+02  0.63614207978E+01  0.76072025672E+02  0.80084544561E+02  0.41800000000E+01 0. -1.
        -11    1    4    4    0    0 -0.35108360882E+01  0.16703147699E+02  0.43622885056E+02  0.46843112767E+02  0.00000000000E+00 0.  1.
         11    1    4    4    0    0  0.12568623909E+03 -0.68980566216E+02  0.57568639247E+03  0.59327074063E+03  0.00000000000E+00 0. -1.
</event>
<event>
 8    1  0.6906553E-009  0.1020530E+03  0.7561462E-02  0.1276037E+00
         -2   -1    0    0    0  501 -0.00000000000E+00  0.00000000000E+00  0.18369603859E+03  0.18369603859E+03  0.00000000000E+00 0.  1.
          2   -1    0    0  501    0  0.00000000000E+00 -0.00000000000E+00 -0.67354343762E+02  0.67354343762E+02  0.00000000000E+00 0. -1.
         25    2    1    2    0    0 -0.41638439942E+01 -0.22298639951E+02  0.56077763584E+02  0.13895438312E+03  0.12509611537E+03 0.  0.
         23    2    1    2    0    0  0.41638439942E+01  0.22298639951E+02  0.60263931244E+02  0.11209599923E+03  0.91756224280E+02 0.  0.
          5    1    3    3  502    0  0.15323557720E+02  0.49746439092E+02  0.19599418567E+02  0.55777497539E+02  0.41800000000E+01 0. -1.
         -5    1    3    3    0  502 -0.19487401714E+02 -0.72045079044E+02  0.36478345016E+02  0.83176885582E+02  0.41800000000E+01 0. -1.
        -11    1    4    4    0    0 -0.17141833215E+02  0.43696394292E+02  0.66368087297E+02  0.81289238719E+02  0.00000000000E+00 0.  1.
         11    1    4    4    0    0  0.21305677209E+02 -0.21397754340E+02 -0.61041560525E+01  0.30806760512E+02  0.00000000000E+00 0. -1.
</event>
<event>
 8    1  0.6906553E-009  0.9876033E+02  0.7561462E-02  0.1282925E+00
         -2   -1    0    0    0  501 -0.00000000000E+00  0.00000000000E+00  0.34200029202E+02  0.34200029202E+02  0.00000000000E+00 0. -1.
          2   -1    0    0  501    0  0.00000000000E+00 -0.00000000000E+00 -0.64914490636E+03  0.64914490636E+03  0.00000000000E+00 0.  1.
         25    2    1    2    0    0  0.75859840127E+02  0.79504044562E+01 -0.49018396007E+03  0.51161036259E+03  0.12508766576E+03 0.  0.
         23    2    1    2    0    0 -0.75859840127E+02 -0.79504044562E+01 -0.12476091709E+03  0.17173457297E+03  0.90053055729E+02 0.  0.
          5    1    3    3  502    0  0.55025741595E+02 -0.29532678057E+02 -0.44422404979E+03  0.44861173650E+03  0.41800000000E+01 0.  1.
         -5    1    3    3    0  502  0.20834098532E+02  0.37483082514E+02 -0.45959910273E+02  0.62998626086E+02  0.41800000000E+01 0.  1.
        -11    1    4    4    0    0  0.49267995405E+01 -0.98730496177E+01  0.98102842764E+01  0.14764556886E+02  0.00000000000E+00 0. -1.
         11    1    4    4    0    0 -0.80786639668E+02  0.19226451615E+01 -0.13457120137E+03  0.15697001609E+03  0.00000000000E+00 0.  1.
</event>
<event>
 8    1  0.6906553E-009  0.1393509E+03  0.7561462E-02  0.1214205E+00
          1   -1    0    0  501    0  0.00000000000E+00  0.00000000000E+00  0.83301879040E+02  0.83301879040E+02  0.00000000000E+00 0.  1.
         -1   -1    0    0    0  501 -0.00000000000E+00 -0.00000000000E+00 -0.26926529029E+03  0.26926529029E+03  0.00000000000E+00 0. -1.
         25    2    1    2    0    0  0.94374698647E+02  0.87569640012E+01 -0.15253484647E+03  0.21885452022E+03  0.12508858249E+03 0.  0.
         23    2    1    2    0    0 -0.94374698647E+02 -0.87569640012E+01 -0.33428564775E+02  0.13371264910E+03  0.88194871872E+02 0.  0.
          5    1    3    3  502    0  0.28260809605E+02  0.62335802348E+02 -0.46591354049E+02  0.82901461302E+02  0.41800000000E+01 0. -1.
         -5    1    3    3    0  502  0.66113889042E+02 -0.53578838347E+02 -0.10594349242E+03  0.13595305892E+03  0.41800000000E+01 0. -1.
        -11    1    4    4    0    0 -0.78811744948E+02  0.29089629758E+02 -0.38624297169E+02  0.92462608837E+02  0.00000000000E+00 0. -1.
         11    1    4    4    0    0 -0.15562953699E+02 -0.37846593759E+02  0.51957323945E+01  0.41250040268E+02  0.00000000000E+00 0.  1.
</event>
<event>
 8    1  0.6906553E-009  0.1061422E+03  0.7561462E-02  0.1267885E+00
         -1   -1    0    0    0  501 -0.00000000000E+00  0.00000000000E+00  0.40237519415E+02  0.40237519415E+02  0.00000000000E+00 0.  1.
          1   -1    0    0  501    0  0.00000000000E+00 -0.00000000000E+00 -0.44566620975E+03  0.44566620975E+03  0.00000000000E+00 0. -1.
         25    2    1    2    0    0  0.67884787397E+02 -0.26732488447E+02 -0.17611642486E+03  0.22800675022E+03  0.12508841969E+03 0.  0.
         23    2    1    2    0    0 -0.67884787397E+02  0.26732488447E+02 -0.22931226548E+03  0.25789697895E+03  0.92756489554E+02 0.  0.
          5    1    3    3  502    0 -0.15080795731E+02 -0.92167652912E+01 -0.13025309835E+03  0.13151319779E+03  0.41800000000E+01 0.  1.
         -5    1    3    3    0  502  0.82965583129E+02 -0.17515723156E+02 -0.45863326504E+02  0.96493552425E+02  0.41800000000E+01 0.  1.
        -11    1    4    4    0    0  0.11249831847E+02  0.27899242721E+02 -0.11494385954E+03  0.11881505505E+03  0.00000000000E+00 0.  1.
         11    1    4    4    0    0 -0.79134619244E+02 -0.11667542737E+01 -0.11436840594E+03  0.13908192390E+03  0.00000000000E+00 0. -1.
</event>
<event>
 8    1  0.6906553E-009  0.9032987E+02  0.7561462E-02  0.1302055E+00
          3   -1    0    0  501    0  0.00000000000E+00  0.00000000000E+00  0.43357951844E+02  0.43357951844E+02  0.00000000000E+00 0. -1.
         -3   -1    0    0    0  501 -0.00000000000E+00 -0.00000000000E+00 -0.33581514883E+03  0.33581514883E+03  0.00000000000E+00 0.  1.
         25    2    1    2    0    0  0.30318709289E+02  0.15925033234E+02 -0.98094674161E+02  0.16261220816E+03  0.12508930541E+03 0.  0.
         23    2    1    2    0    0 -0.30318709289E+02 -0.15925033234E+02 -0.19436252283E+03  0.21656089252E+03  0.89157159400E+02 0.  0.
          5    1    3    3  502    0  0.28066203681E+02 -0.34601427774E+02  0.75774084361E+01  0.45385681791E+02  0.41800000000E+01 0.  1.
         -5    1    3    3    0  502  0.22525056082E+01  0.50526461008E+02 -0.10567208260E+03  0.11722652637E+03  0.41800000000E+01 0.  1.
        -11    1    4    4    0    0 -0.32626356854E+02  0.26893282878E+02 -0.14565366072E+03  0.15166646533E+03  0.00000000000E+00 0.  1.
         11    1    4    4    0    0  0.23076475648E+01 -0.42818316113E+02 -0.48708862109E+02  0.64894427187E+02  0.00000000000E+00 0. -1.
</event>
<event>
 8    1  0.6906553E-009  0.9199449E+02  0.7561462E-02  0.1298092E+00
          2   -1    0    0  501    0  0.00000000000E+00  0.00000000000E+00  0.22925031014E+03  0.22925031014E+03  0.00000000000E+00 0. -1.
         -2   -1    0    0    0  501 -0.00000000000E+00 -0.00000000000E+00 -0.54853887133E+02  0.54853887133E+02  0.00000000000E+00 0.  1.
         25    2    1    2    0    0  0.83370156183E+01 -0.50154593099E+01  0.62648516773E+02  0.14023803156E+03  0.12508880118E+03 0.  0.
         23    2    1    2    0    0 -0.83370156183E+01  0.50154593099E+01  0.11174790624E+03  0.14386616572E+03  0.90084507151E+02 0.  0.
          5    1    3    3  502    0  0.58797183728E+02 -0.32472005377E+02  0.27076445278E+02  0.72540652302E+02  0.41800000000E+01 0. -1.
         -5    1    3    3    0  502 -0.50460168110E+02  0.27456546067E+02  0.35572071495E+02  0.67697379255E+02  0.41800000000E+01 0. -1.
        -11    1    4    4    0    0 -0.19424583408E+02  0.27706716462E+02  0.11361034522E+03  0.11854234315E+03  0.00000000000E+00 0. -1.
         11    1    4    4    0    0  0.11087567789E+02 -0.22691257152E+02 -0.18624389834E+01  0.25323822571E+02  0.00000000000E+00 0.  1.
</event>
<event>
 8    1  0.6906553E-009  0.7970860E+02  0.7561462E-02  0.1329880E+00
          2   -1    0    0  501    0  0.00000000000E+00  0.00000000000E+00  0.91662739008E+02  0.91662739008E+02  0.00000000000E+00 0. -1.
         -2   -1    0    0    0  501 -0.00000000000E+00 -0.00000000000E+00 -0.18268899826E+03  0.18268899826E+03  0.00000000000E+00 0.  1.
         25    2    1    2    0    0  0.33109229668E+02 -0.37403956890E+02  0.35855909232E+01  0.13474135114E+03  0.12508836143E+03 0.  0.
         23    2    1    2    0    0 -0.33109229668E+02  0.37403956890E+02 -0.94611850175E+02  0.13961038612E+03  0.89690471285E+02 0.  0.
          5    1    3    3  502    0  0.30115178748E+02 -0.49287939524E+02  0.56115546274E+02  0.80639022236E+02  0.41800000000E+01 0.  1.
         -5    1    3    3    0  502  0.29940509200E+01  0.11883982634E+02 -0.52529955351E+02  0.54102328909E+02  0.41800000000E+01 0.  1.
        -11    1    4    4    0    0  0.16232550561E+02 -0.10864172144E+02 -0.58572350915E+02  0.61743390138E+02  0.00000000000E+00 0.  1.
         11    1    4    4    0    0 -0.49341780229E+02  0.48268129034E+02 -0.36039499260E+02  0.77866995984E+02  0.00000000000E+00 0. -1.
</event>
<event>
 8    1  0.6906553E-009  0.1164171E+03  0.7561462E-02  0.1249128E+00
         -2   -1    0    0    0  501 -0.00000000000E+00  0.00000000000E+00  0.12751362988E+02  0.12751362988E+02  0.00000000000E+00 0.  1.
          2   -1    0    0  501    0  0.00000000000E+00 -0.00000000000E+00 -0.22893788302E+04  0.22893788302E+04  0.00000000000E+00 0. -1.
         25    2    1    2    0    0 -0.60575961030E+02 -0.38603185839E+02 -0.19592611939E+04  0.19645639968E+04  0.12509044174E+03 0.  0.
         23    2    1    2    0    0  0.60575961030E+02  0.38603185839E+02 -0.31736627336E+03  0.33756619643E+03  0.89832802992E+02 0.  0.
          5    1    3    3  502    0 -0.10817772047E+02 -0.62881899571E+02 -0.15765520131E+04  0.15778481803E+04  0.41800000000E+01 0. -1.
         -5    1    3    3    0  502 -0.49758188984E+02  0.24278713732E+02 -0.38270918072E+03  0.38671581648E+03  0.41800000000E+01 0. -1.
        -11    1    4    4    0    0  0.81839389259E+02  0.41750324225E+02 -0.23184542484E+03  0.24938539698E+03  0.00000000000E+00 0. -1.
         11    1    4    4    0    0 -0.21263428228E+02 -0.31471383860E+01 -0.85520848523E+02  0.88180799453E+02  0.00000000000E+00 0.  1.
</event>
<event>
 8    1  0.6906553E-009  0.2616076E+03  0.7561462E-02  0.1106181E+00
         -1   -1    0    0    0  501 -0.00000000000E+00  0.00000000000E+00  0.86416856558E+03  0.86416856558E+03  0.00000000000E+00 0.  1.
          1   -1    0    0  501    0  0.00000000000E+00 -0.00000000000E+00 -0.96502310549E+02  0.96502310549E+02  0.00000000000E+00 0. -1.
         25    2    1    2    0    0  0.14806436007E+03  0.19717009741E+03  0.22078250812E+03  0.35382274954E+03  0.12508605105E+03 0.  0.
         23    2    1    2    0    0 -0.14806436007E+03 -0.19717009741E+03  0.54688374692E+03  0.60684812659E+03  0.91562623749E+02 0.  0.
          5    1    3    3  502    0  0.13394632783E+03  0.20480478331E+03  0.16387845352E+03  0.29455090890E+03  0.41800000000E+01 0.  1.
         -5    1    3    3    0  502  0.14118032241E+02 -0.76346859037E+01  0.56904054599E+02  0.59271840642E+02  0.41800000000E+01 0.  1.
        -11    1    4    4    0    0 -0.54103161163E+02 -0.14419413210E+03  0.29330246055E+03  0.33127848277E+03  0.00000000000E+00 0.  1.
         11    1    4    4    0    0 -0.93961198911E+02 -0.52975965307E+02  0.25358128637E+03  0.27556964382E+03  0.00000000000E+00 0. -1.
</event>
<event>
 8    1  0.6906553E-009  0.1385961E+03  0.7561462E-02  0.1215231E+00
         -1   -1    0    0    0  501 -0.00000000000E+00  0.00000000000E+00  0.23249087074E+02  0.23249087074E+02  0.00000000000E+00 0.  1.
          1   -1    0    0  501    0  0.00000000000E+00 -0.00000000000E+00 -0.87303074941E+03  0.87303074941E+03  0.00000000000E+00 0. -1.
         25    2    1    2    0    0 -0.71587074766E+02 -0.61270745685E+02 -0.49272444737E+03  0.51701413862E+03  0.12508966762E+03 0.  0.
         23    2    1    2    0    0  0.71587074766E+02  0.61270745685E+02 -0.35705721496E+03  0.37926569786E+03  0.86451149607E+02 0.  0.
          5    1    3    3  502    0 -0.80059103104E+02 -0.92785123485E+02 -0.41144701372E+03  0.42933047484E+03  0.41800000000E+01 0. -1.
         -5    1    3    3    0  502  0.84720283379E+01  0.31514377800E+02 -0.81277433655E+02  0.87683663779E+02  0.41800000000E+01 0. -1.
        -11    1    4    4    0    0  0.79409426049E+02  0.23091677331E+02 -0.29145457493E+03  0.30296014879E+03  0.00000000000E+00 0. -1.
         11    1    4    4    0    0 -0.78223512831E+01  0.38179068354E+02 -0.65602640029E+02  0.76305549069E+02  0.00000000000E+00 0.  1.
</event>
<event>
 8    1  0.6906553E-009  0.2160109E+03  0.7561462E-02  0.1136892E+00
         -2   -1    0    0    0  501 -0.00000000000E+00  0.00000000000E+00  0.27783566828E+03  0.27783566828E+03  0.00000000000E+00 0.  1.
          2   -1    0    0  501    0  0.00000000000E+00 -0.00000000000E+00 -0.16867607862E+03  0.16867607862E+03  0.00000000000E+00 0. -1.
         25    2    1    2    0    0  0.18488937221E+03  0.19149771060E+02  0.66699100597E+02  0.23376228308E+03  0.12508093893E+03 0.  0.
         23    2    1    2    0    0 -0.18488937221E+03 -0.19149771060E+02  0.42460489066E+02  0.21274946382E+03  0.94385632049E+02 0.  0.
          5    1    3    3  502    0 -0.79962703453E+01  0.29487419214E+02  0.91400288545E+01  0.32163034042E+02  0.41800000000E+01 0. -1.
         -5    1    3    3    0  502  0.19288564255E+03 -0.10337648153E+02  0.57559071742E+02  0.20159924904E+03  0.41800000000E+01 0. -1.
        -11    1    4    4    0    0 -0.69246483307E+02  0.37995248580E+02  0.90578729090E+01  0.79503203876E+02  0.00000000000E+00 0.  1.
         11    1    4    4    0    0 -0.11564288890E+03 -0.57145019640E+02  0.33402616157E+02  0.13324625994E+03  0.00000000000E+00 0. -1.
</event>
<event>
 8    1  0.6906553E-009  0.9806626E+02  0.7561462E-02  0.1284416E+00
          1   -1    0    0  501    0  0.00000000000E+00  0.00000000000E+00  0.26013926818E+03  0.26013926818E+03  0.00000000000E+00 0. -1.
         -1   -1    0    0    0  501 -0.00000000000E+00 -0.00000000000E+00 -0.76085315529E+02  0.76085315529E+02  0.00000000000E+00 0.  1.
         25    2    1    2    0    0 -0.43950058972E+02  0.48462966025E+02  0.17092687062E+03  0.22169536929E+03  0.12511025100E+03 0.  0.
         23    2    1    2    0    0  0.43950058972E+02 -0.48462966025E+02  0.13127082038E+02  0.11452921442E+03  0.93082511322E+02 0.  0.
          5    1    3    3  502    0 -0.43691661404E+02  0.55466130504E+01  0.17295895348E+03  0.17852730374E+03  0.41800000000E+01 0. -1.
         -5    1    3    3    0  502 -0.25839756796E+00  0.42916352975E+02 -0.20320828673E+01  0.43168065543E+02  0.41800000000E+01 0. -1.
        -11    1    4    4    0    0  0.43088547985E+02  0.14757561556E+02  0.22177811464E+02  0.50658305459E+02  0.00000000000E+00 0. -1.
         11    1    4    4    0    0  0.86151098660E+00 -0.63220527581E+02 -0.90507294257E+01  0.63870908965E+02  0.00000000000E+00 0.  1.
</event>
<event>
 8    1  0.6906553E-009  0.1087665E+03  0.7561462E-02  0.1262871E+00
         -3   -1    0    0    0  501 -0.00000000000E+00  0.00000000000E+00  0.20130233889E+03  0.20130233889E+03  0.00000000000E+00 0.  1.
          3   -1    0    0  501    0  0.00000000000E+00 -0.00000000000E+00 -0.78003693257E+02  0.78003693257E+02  0.00000000000E+00 0. -1.
         25    2    1    2    0    0  0.94944557443E+01 -0.53186806540E+02  0.10965169800E+03  0.17490745425E+03  0.12510052597E+03 0.  0.
         23    2    1    2    0    0 -0.94944557443E+01  0.53186806540E+02  0.13646947639E+02  0.10439857790E+03  0.88282743547E+02 0.  0.
          5    1    3    3  502    0 -0.52800719190E+02 -0.14183347699E+02  0.18781438156E+02  0.57959452362E+02  0.41800000000E+01 0. -1.
         -5    1    3    3    0  502  0.62295174934E+02 -0.39003458841E+02  0.90870259840E+02  0.11694800189E+03  0.41800000000E+01 0. -1.
        -11    1    4    4    0    0 -0.37609083651E+02  0.12506615614E+02 -0.20189622935E+02  0.44480102084E+02  0.00000000000E+00 0. -1.
         11    1    4    4    0    0  0.28114627907E+02  0.40680190926E+02  0.33836570574E+02  0.59918475818E+02  0.00000000000E+00 0.  1.
</event>
<event>
 8    1  0.6906553E-009  0.3000091E+03  0.7561462E-02  0.1085236E+00
          2   -1    0    0  501    0  0.00000000000E+00  0.00000000000E+00  0.79290501978E+03  0.79290501978E+03  0.00000000000E+00 0. -1.
         -2   -1    0    0    0  501 -0.00000000000E+00 -0.00000000000E+00 -0.16256269118E+03  0.16256269118E+03  0.00000000000E+00 0.  1.
         25    2    1    2    0    0 -0.18393058398E+03  0.22026028287E+03  0.56756880375E+03  0.64817213776E+03  0.12509085200E+03 0.  0.
         23    2    1    2    0    0  0.18393058398E+03 -0.22026028287E+03  0.62773524855E+02  0.30729557320E+03  0.90249664571E+02 0.  0.
          5    1    3    3  502    0 -0.95947409744E+02  0.19971031212E+03  0.37894810282E+03  0.43898661851E+03  0.41800000000E+01 0. -1.
         -5    1    3    3    0  502 -0.87983174234E+02  0.20549970753E+02  0.18862070093E+03  0.20918551925E+03  0.41800000000E+01 0. -1.
        -11    1    4    4    0    0  0.12716634823E+03 -0.13427129769E+03  0.82312707414E+02  0.20242391980E+03  0.00000000000E+00 0. -1.
         11    1    4    4    0    0  0.56764235744E+02 -0.85988985179E+02 -0.19539182559E+02  0.10487165340E+03  0.00000000000E+00 0.  1.
</event>
<event>
 8    1  0.6906553E-009  0.2785473E+03  0.7561462E-02  0.1096485E+00
          2   -1    0    0  501    0  0.00000000000E+00  0.00000000000E+00  0.69798550468E+02  0.69798550468E+02  0.00000000000E+00 0. -1.
         -2   -1    0    0    0  501 -0.00000000000E+00 -0.00000000000E+00 -0.13833072909E+04  0.13833072909E+04  0.00000000000E+00 0.  1.
         25    2    1    2    0    0  0.12066883716E+03 -0.24435112207E+03 -0.90676232639E+03  0.95505645616E+03  0.12508588562E+03 0.  0.
         23    2    1    2    0    0 -0.12066883716E+03  0.24435112207E+03 -0.40674641404E+03  0.49804938520E+03  0.91335128240E+02 0.  0.
          5    1    3    3  502    0  0.66847206346E+00  0.44905957445E+01 -0.13821778830E+03  0.13835549034E+03  0.41800000000E+01 0. -1.
         -5    1    3    3    0  502  0.12000036509E+03 -0.24884171781E+03 -0.76854453808E+03  0.81670096582E+03  0.41800000000E+01 0. -1.
        -11    1    4    4    0    0 -0.58256549461E+02  0.15542700671E+03 -0.17015070834E+03  0.23770284710E+03  0.00000000000E+00 0. -1.
         11    1    4    4    0    0 -0.62412287697E+02  0.88924115358E+02 -0.23659570570E+03  0.26034653811E+03  0.00000000000E+00 0.  1.
</event>
<event>
 8    1  0.6906553E-009  0.1746474E+03  0.7561462E-02  0.1173086E+00
         -1   -1    0    0    0  501 -0.00000000000E+00  0.00000000000E+00  0.14812556171E+03  0.14812556171E+03  0.00000000000E+00 0.  1.
          1   -1    0    0  501    0  0.00000000000E+00 -0.00000000000E+00 -0.30989595042E+03  0.30989595042E+03  0.00000000000E+00 0. -1.
         25    2    1    2    0    0  0.12832851298E+03 -0.79721661900E+02 -0.19702294831E+03  0.27800300733E+03  0.12507549442E+03 0.  0.
         23    2    1    2    0    0 -0.12832851298E+03  0.79721661900E+02  0.35252559593E+02  0.18001850480E+03  0.91324522964E+02 0.  0.
          5    1    3    3  502    0 -0.34467688690E+01 -0.32146014119E+02 -0.10594712438E+03  0.11084905053E+03  0.41800000000E+01 0. -1.
         -5    1    3    3    0  502  0.13177528185E+03 -0.47575647781E+02 -0.91075823924E+02  0.16715395679E+03  0.41800000000E+01 0. -1.
        -11    1    4    4    0    0 -0.10472081751E+03  0.12716474736E+02  0.21295349406E+02  0.10761807588E+03  0.00000000000E+00 0. -1.
         11    1    4    4    0    0 -0.23607695469E+02  0.67005187164E+02  0.13957210187E+02  0.72400428924E+02  0.00000000000E+00 0.  1.
</event>
<event>
 8    1  0.6906553E-009  0.1334459E+03  0.7561462E-02  0.1222430E+00
          2   -1    0    0  501    0  0.00000000000E+00  0.00000000000E+00  0.67554334476E+02  0.67554334476E+02  0.00000000000E+00 0. -1.
         -2   -1    0    0    0  501 -0.00000000000E+00 -0.00000000000E+00 -0.41943455847E+03  0.41943455847E+03  0.00000000000E+00 0.  1.
         25    2    1    2    0    0  0.99077396283E+02  0.71518529631E+02 -0.24107903792E+03  0.29782330949E+03  0.12509352747E+03 0.  0.
         23    2    1    2    0    0 -0.99077396283E+02 -0.71518529631E+02 -0.11080118607E+03  0.18916558345E+03  0.92603912412E+02 0.  0.
          5    1    3    3  502    0  0.13194472643E+02  0.45229113225E+02 -0.18702250609E+03  0.19291100791E+03  0.41800000000E+01 0. -1.
         -5    1    3    3    0  502  0.85882923641E+02  0.26289416405E+02 -0.54056531836E+02  0.10491230158E+03  0.41800000000E+01 0. -1.
        -11    1    4    4    0    0 -0.36776671365E+02 -0.53322469076E+02 -0.10581979848E+03  0.12407110467E+03  0.00000000000E+00 0.  1.
         11    1    4    4    0    0 -0.62300724919E+02 -0.18196060555E+02 -0.49813875896E+01  0.65094478778E+02  0.00000000000E+00 0. -1.
</event>
<event>
 8    1  0.6906553E-009  0.1103985E+03  0.7561462E-02  0.1259834E+00
         -3   -1    0    0    0  501 -0.00000000000E+00  0.00000000000E+00  0.19037105732E+03  0.19037105732E+03  0.00000000000E+00 0.  1.
          3   -1    0    0  501    0  0.00000000000E+00 -0.00000000000E+00 -0.75695453308E+02  0.75695453308E+02  0.00000000000E+00 0. -1.
         25    2    1    2    0    0  0.40970586951E+02  0.10587506125E+02  0.29922383715E+02  0.13540157864E+03  0.12509018415E+03 0.  0.
         23    2    1    2    0    0 -0.40970586951E+02 -0.10587506125E+02  0.84753220295E+02  0.13066493199E+03  0.89997398964E+02 0.  0.
          5    1    3    3  502    0 -0.37421931346E+02  0.33323908063E+02  0.97591412560E+01  0.51221060438E+02  0.41800000000E+01 0. -1.
         -5    1    3    3    0  502  0.78392518297E+02 -0.22736401939E+02  0.20163242459E+02  0.84180518201E+02  0.41800000000E+01 0. -1.
        -11    1    4    4    0    0 -0.64447665781E+02 -0.49362923374E+01  0.84664194455E+02  0.10651710862E+03  0.00000000000E+00 0.  1.
         11    1    4    4    0    0  0.23477078831E+02 -0.56512137872E+01  0.89025840015E-01  0.24147823366E+02  0.00000000000E+00 0. -1.
</event>
<event>
 8    1  0.6906553E-009  0.9245374E+02  0.7561462E-02  0.1297016E+00
         -3   -1    0    0    0  501 -0.00000000000E+00  0.00000000000E+00  0.32687958848E+03  0.32687958848E+03  0.00000000000E+00 0.  1.
          3   -1    0    0  501    0  0.00000000000E+00 -0.00000000000E+00 -0.42950849233E+02  0.42950849233E+02  0.00000000000E+00 0. -1.
         25    2    1    2    0    0  0.30636920888E+01 -0.21210400976E+01  0.23943851054E+03  0.27016976630E+03  0.12508803808E+03 0.  0.
         23    2    1    2    0    0 -0.30636920888E+01  0.21210400976E+01  0.44490228706E+02  0.99660671415E+02  0.89100976180E+02 0.  0.
          5    1    3    3  502    0  0.18585363744E+02  0.49317330325E+02  0.48406902434E+02  0.71682043910E+02  0.41800000000E+01 0.  1.
         -5    1    3    3    0  502 -0.15521671655E+02 -0.51438370423E+02  0.19103160811E+03  0.19848772239E+03  0.41800000000E+01 0.  1.
        -11    1    4    4    0    0  0.14250439940E+01  0.39988936554E+02  0.46657663351E+02  0.61466115434E+02  0.00000000000E+00 0.  1.
         11    1    4    4    0    0 -0.44887360828E+01 -0.37867896456E+02 -0.21674346451E+01  0.38194555981E+02  0.00000000000E+00 0. -1.
</event>
<event>
 8    1  0.6906553E-009  0.1892472E+03  0.7561462E-02  0.1159142E+00
          1   -1    0    0  501    0  0.00000000000E+00  0.00000000000E+00  0.41545059263E+02  0.41545059263E+02  0.00000000000E+00 0. -1.
         -1   -1    0    0    0  501 -0.00000000000E+00 -0.00000000000E+00 -0.93876638979E+03  0.93876638979E+03  0.00000000000E+00 0.  1.
         25    2    1    2    0    0  0.70477164085E+02 -0.14538098157E+03 -0.39444163045E+03  0.44422297342E+03  0.12508872779E+03 0.  0.
         23    2    1    2    0    0 -0.70477164085E+02  0.14538098157E+03 -0.50277970007E+03  0.53608847563E+03  0.92199601081E+02 0.  0.
          5    1    3    3  502    0 -0.24598220886E+02 -0.87013022463E+02 -0.20914443451E+03  0.22789296925E+03  0.41800000000E+01 0.  1.
         -5    1    3    3    0  502  0.95075384971E+02 -0.58367959109E+02 -0.18529719594E+03  0.21633000416E+03  0.41800000000E+01 0.  1.
        -11    1    4    4    0    0 -0.80460984061E+02  0.92846697936E+02 -0.41948008450E+03  0.43710184232E+03  0.00000000000E+00 0.  1.
         11    1    4    4    0    0  0.99838199759E+01  0.52534283637E+02 -0.83299615578E+02  0.98986633310E+02  0.00000000000E+00 0. -1.
</event>
<event>
 8    1  0.6906553E-009  0.1785844E+03  0.7561462E-02  0.1169180E+00
          2   -1    0    0  501    0  0.00000000000E+00  0.00000000000E+00  0.63943342358E+03  0.63943342358E+03  0.00000000000E+00 0. -1.
         -2   -1    0    0    0  501 -0.00000000000E+00 -0.00000000000E+00 -0.60115076443E+02  0.60115076443E+02  0.00000000000E+00 0.  1.
         25    2    1    2    0    0  0.17544565387E+02  0.15522196817E+03  0.20863491474E+03  0.28909849771E+03  0.12509093713E+03 0.  0.
         23    2    1    2    0    0 -0.17544565387E+02 -0.15522196817E+03  0.37068343240E+03  0.41045000231E+03  0.81616947769E+02 0.  0.
          5    1    3    3  502    0 -0.33801286573E+02 -0.79390644678E+00  0.51527831487E+02  0.61771733658E+02  0.41800000000E+01 0. -1.
         -5    1    3    3    0  502  0.51345851959E+02  0.15601587462E+03  0.15710708325E+03  0.22732676405E+03  0.41800000000E+01 0. -1.
        -11    1    4    4    0    0 -0.25459173580E+02 -0.12435055874E+03  0.35037925522E+03  0.37266184868E+03  0.00000000000E+00 0. -1.
         11    1    4    4    0    0  0.79146081930E+01 -0.30871409438E+02  0.20304177183E+02  0.37788153628E+02  0.00000000000E+00 0.  1.
</event>
<event>
 8    1  0.6906553E-009  0.1318826E+03  0.7561462E-02  0.1224689E+00
         -1   -1    0    0    0  501 -0.00000000000E+00  0.00000000000E+00  0.51164099860E+03  0.51164099860E+03  0.00000000000E+00 0.  1.
          1   -1    0    0  501    0  0.00000000000E+00 -0.00000000000E+00 -0.49843562717E+02  0.49843562717E+02  0.00000000000E+00 0. -1.
         25    2    1    2    0    0  0.92137740629E+02 -0.25642412146E+02  0.12855645962E+03  0.20327612675E+03  0.12509006295E+03 0.  0.
         23    2    1    2    0    0 -0.92137740629E+02  0.25642412146E+02  0.33324097626E+03  0.35820843456E+03  0.90093494677E+02 0.  0.
          5    1    3    3  502    0  0.93288337417E+02  0.12954305230E+02  0.13422473225E+03  0.16402523912E+03  0.41800000000E+01 0. -1.
         -5    1    3    3    0  502 -0.11505967876E+01 -0.38596717376E+02 -0.56682726276E+01  0.39250887630E+02  0.41800000000E+01 0. -1.
        -11    1    4    4    0    0 -0.30223161164E+02  0.54516078142E+02  0.14008837579E+03  0.15333034689E+03  0.00000000000E+00 0.  1.
         11    1    4    4    0    0 -0.61914579465E+02 -0.28873665996E+02  0.19315260048E+03  0.20487808767E+03  0.00000000000E+00 0. -1.
</event>
<event>
 8    1  0.6906553E-009  0.1132783E+03  0.7561462E-02  0.1254617E+00
         -2   -1    0    0    0  501 -0.00000000000E+00  0.00000000000E+00  0.64993756617E+02  0.64993756617E+02  0.00000000000E+00 0.  1.
          2   -1    0    0  501    0  0.00000000000E+00 -0.00000000000E+00 -0.27701086260E+03  0.27701086260E+03  0.00000000000E+00 0. -1.
         25    2    1    2    0    0  0.44142110430E+02  0.53399155079E+02 -0.67864820203E+02  0.15827900164E+03  0.12508642157E+03 0.  0.
         23    2    1    2    0    0 -0.44142110430E+02 -0.53399155079E+02 -0.14415228578E+03  0.18372561758E+03  0.90416952964E+02 0.  0.
          5    1    3    3  502    0  0.16468679159E+02  0.75261554071E+02  0.48989180846E+01  0.77310999947E+02  0.41800000000E+01 0.  1.
         -5    1    3    3    0  502  0.27673431271E+02 -0.21862398992E+02 -0.72763738288E+02  0.80968001689E+02  0.41800000000E+01 0.  1.
        -11    1    4    4    0    0 -0.63684482016E+02 -0.76547345830E+01 -0.79392554165E+02  0.10206608579E+03  0.00000000000E+00 0.  1.
         11    1    4    4    0    0  0.19542371586E+02 -0.45744420496E+02 -0.64759731615E+02  0.81659531792E+02  0.00000000000E+00 0. -1.
</event>
<event>
 8    1  0.6906553E-009  0.2106747E+03  0.7561462E-02  0.1141033E+00
         -1   -1    0    0    0  501 -0.00000000000E+00  0.00000000000E+00  0.42565817545E+03  0.42565817545E+03  0.00000000000E+00 0.  1.
          1   -1    0    0  501    0  0.00000000000E+00 -0.00000000000E+00 -0.15231390911E+03  0.15231390911E+03  0.00000000000E+00 0. -1.
         25    2    1    2    0    0  0.17797645188E+03  0.75851539841E+02 -0.93155239203E+00  0.23038702552E+03  0.12509292633E+03 0.  0.
         23    2    1    2    0    0 -0.17797645188E+03 -0.75851539841E+02  0.27427581874E+03  0.34758505903E+03  0.90327598218E+02 0.  0.
          5    1    3    3  502    0  0.12485944475E+03  0.10262629278E+03 -0.29368889974E+02  0.16432297773E+03  0.41800000000E+01 0. -1.
         -5    1    3    3    0  502  0.53117007133E+02 -0.26774752935E+02  0.28437337582E+02  0.66064047789E+02  0.41800000000E+01 0. -1.
        -11    1    4    4    0    0 -0.15152395313E+03 -0.82828247171E+02  0.18008054798E+03  0.24949755643E+03  0.00000000000E+00 0. -1.
         11    1    4    4    0    0 -0.26452498754E+02  0.69767073304E+01  0.94195270753E+02  0.98087502608E+02  0.00000000000E+00 0.  1.
</event>
<event>
 8    1  0.6906553E-009  0.1269414E+03  0.7561462E-02  0.1232066E+00
          1   -1    0    0  501    0  0.00000000000E+00  0.00000000000E+00  0.34948303176E+03  0.34948303176E+03  0.00000000000E+00 0. -1.
         -1   -1    0    0    0  501 -0.00000000000E+00 -0.00000000000E+00 -0.74706946708E+02  0.74706946708E+02  0.00000000000E+00 0.  1.
         25    2    1    2    0    0 -0.64201520201E+02 -0.53304773665E+02  0.33027609748E+02  0.15395265368E+03  0.12508941793E+03 0.  0.
         23    2    1    2    0    0  0.64201520201E+02  0.53304773665E+02  0.24174847530E+03  0.27023732479E+03  0.87307802097E+02 0.  0.
          5    1    3    3  502    0 -0.95831026382E+02 -0.14407061082E+02  0.68461529431E+01  0.97239350248E+02  0.41800000000E+01 0. -1.
         -5    1    3    3    0  502  0.31629506181E+02 -0.38897712582E+02  0.26181456805E+02  0.56713303429E+02  0.41800000000E+01 0. -1.
        -11    1    4    4    0    0  0.72453029811E+02  0.24298014330E+02  0.10302172471E+03  0.12827045954E+03  0.00000000000E+00 0.  1.
         11    1    4    4    0    0 -0.82515096098E+01  0.29006759335E+02  0.13872675060E+03  0.14196686525E+03  0.00000000000E+00 0. -1.
</event>
<event>
 8    1  0.6906553E-009  0.1810425E+03  0.7561462E-02  0.1166798E+00
          2   -1    0    0  501    0  0.00000000000E+00  0.00000000000E+00  0.73927667027E+03  0.73927667027E+03  0.00000000000E+00 0. -1.
         -2   -1    0    0    0  501 -0.00000000000E+00 -0.00000000000E+00 -0.47595222866E+02  0.47595222866E+02  0.00000000000E+00 0.  1.
         25    2    1    2    0    0 -0.92589638867E+02 -0.11792579125E+03  0.41919194430E+03  0.46243774459E+03  0.12508975973E+03 0.  0.
         23    2    1    2    0    0  0.92589638867E+02  0.11792579125E+03  0.27248950310E+03  0.32443414854E+03  0.92345297515E+02 0.  0.
          5    1    3    3  502    0 -0.12259890303E+03 -0.89920061783E+02  0.35392925543E+03  0.38522655514E+03  0.41800000000E+01 0. -1.
         -5    1    3    3    0  502  0.30009264161E+02 -0.28005729464E+02  0.65262688873E+02  0.77211189456E+02  0.41800000000E+01 0. -1.
        -11    1    4    4    0    0  0.68926396825E+02  0.25775644244E+02  0.16632592069E+03  0.18187782688E+03  0.00000000000E+00 0.  1.
         11    1    4    4    0    0  0.23663242041E+02  0.92150147004E+02  0.10616358241E+03  0.14255632167E+03  0.00000000000E+00 0. -1.
</event>
<event>
 8    1  0.6906553E-009  0.1058333E+03  0.7561462E-02  0.1268486E+00
          2   -1    0    0  501    0  0.00000000000E+00  0.00000000000E+00  0.12489528154E+04  0.12489528154E+04  0.00000000000E+00 0. -1.
         -2   -1    0    0    0  501 -0.00000000000E+00 -0.00000000000E+00 -0.94724511938E+01  0.94724511938E+01  0.00000000000E+00 0.  1.
         25    2    1    2    0    0 -0.12988772081E+02  0.15858109387E+02  0.80398512116E+03  0.81391606833E+03  0.12508838239E+03 0.  0.
         23    2    1    2    0    0  0.12988772081E+02 -0.15858109387E+02  0.43549524306E+03  0.44450919827E+03  0.86672560768E+02 0.  0.
          5    1    3    3  502    0 -0.66054263063E+02 -0.29695897831E+01  0.53370426026E+03  0.53780079393E+03  0.41800000000E+01 0.  1.
         -5    1    3    3    0  502  0.53065490982E+02  0.18827699170E+02  0.27028086090E+03  0.27611527440E+03  0.41800000000E+01 0.  1.
        -11    1    4    4    0    0  0.32933727449E+02  0.26409721746E+02  0.19560905892E+03  0.20011248771E+03  0.00000000000E+00 0.  1.
         11    1    4    4    0    0 -0.19944955368E+02 -0.42267831133E+02  0.23988618414E+03  0.24439671056E+03  0.00000000000E+00 0. -1.
</event>
<event>
 8    1  0.6906553E-009  0.1479751E+03  0.7561462E-02  0.1202983E+00
         -3   -1    0    0    0  501 -0.00000000000E+00  0.00000000000E+00  0.44726552867E+03  0.44726552867E+03  0.00000000000E+00 0.  1.
          3   -1    0    0  501    0  0.00000000000E+00 -0.00000000000E+00 -0.68938404990E+02  0.68938404990E+02  0.00000000000E+00 0. -1.
         25    2    1    2    0    0 -0.11840924268E+03  0.65976129721E+02  0.16453340885E+03  0.24716626508E+03  0.12508525700E+03 0.  0.
         23    2    1    2    0    0  0.11840924268E+03 -0.65976129721E+02  0.21379371483E+03  0.26903766858E+03  0.91103875718E+02 0.  0.
          5    1    3    3  502    0 -0.48680421035E+01 -0.18004542244E+02  0.80586871595E+02  0.82822567268E+02  0.41800000000E+01 0. -1.
         -5    1    3    3    0  502 -0.11354120058E+03  0.83980671965E+02  0.83946537254E+02  0.16434369781E+03  0.41800000000E+01 0. -1.
        -11    1    4    4    0    0  0.58522259306E+02 -0.32905451339E+02  0.18123981200E+03  0.19327569174E+03  0.00000000000E+00 0.  1.
         11    1    4    4    0    0  0.59886983376E+02 -0.33070678382E+02  0.32553902831E+02  0.75761976849E+02  0.00000000000E+00 0. -1.
</event>
<event>
 8    1  0.6906553E-009  0.9952821E+02  0.7561462E-02  0.1281291E+00
         -2   -1    0    0    0  501 -0.00000000000E+00  0.00000000000E+00  0.53641433458E+02  0.53641433458E+02  0.00000000000E+00 0.  1.
          2   -1    0    0  501    0  0.00000000000E+00 -0.00000000000E+00 -0.26185656414E+03  0.26185656414E+03  0.00000000000E+00 0. -1.
         25    2    1    2    0    0 -0.29342864393E+02 -0.16393047169E+02 -0.67707380230E+02  0.14615412647E+03  0.12508798368E+03 0.  0.
         23    2    1    2    0    0  0.29342864393E+02  0.16393047169E+02 -0.14050775045E+03  0.16934387112E+03  0.88346947110E+02 0.  0.
          5    1    3    3  502    0  0.18628398412E+02  0.31581142559E+02  0.14354771116E+02  0.39596939863E+02  0.41800000000E+01 0.  1.
         -5    1    3    3    0  502 -0.47971262805E+02 -0.47974189729E+02 -0.82062151345E+02  0.10655718661E+03  0.41800000000E+01 0.  1.
        -11    1    4    4    0    0  0.48020397107E+02  0.41100746616E+02 -0.10090894571E+03  0.11907075727E+03  0.00000000000E+00 0.  1.
         11    1    4    4    0    0 -0.18677532714E+02 -0.24707699447E+02 -0.39598804737E+02  0.50273113856E+02  0.00000000000E+00 0. -1.
</event>
<event>
 8    1  0.6906553E-009  0.1616151E+03  0.7561462E-02  0.1186885E+00
          1   -1    0    0  501    0  0.00000000000E+00  0.00000000000E+00  0.41769726615E+02  0.41769726615E+02  0.00000000000E+00 0. -1.
         -1   -1    0    0    0  501 -0.00000000000E+00 -0.00000000000E+00 -0.71804626254E+03  0.71804626254E+03  0.00000000000E+00 0.  1.
         25    2    1    2    0    0  0.83098447242E+02 -0.99295925180E+02 -0.27816844280E+03  0.33134468181E+03  0.12508630182E+03 0.  0.
         23    2    1    2    0    0 -0.83098447242E+02  0.99295925180E+02 -0.39810809313E+03  0.42847130735E+03  0.91282937703E+02 0.  0.
          5    1    3    3  502    0 -0.21028902881E+02  0.14177188692E+02 -0.33783608154E+02  0.42450112079E+02  0.41800000000E+01 0. -1.
         -5    1    3    3    0  502  0.10412735012E+03 -0.11347311387E+03 -0.24438483464E+03  0.28889456973E+03  0.41800000000E+01 0. -1.
        -11    1    4    4    0    0 -0.55637402782E+02  0.10166992797E+03 -0.37500490210E+03  0.39250601452E+03  0.00000000000E+00 0.  1.
         11    1    4    4    0    0 -0.27461044460E+02 -0.23740027896E+01 -0.23103191031E+02  0.35965292824E+02  0.00000000000E+00 0. -1.
</event>
<event>
 8    1  0.6906553E-009  0.1577969E+03  0.7561462E-02  0.1191207E+00
         -2   -1    0    0    0  501 -0.00000000000E+00  0.00000000000E+00  0.41206523091E+02  0.41206523091E+02  0.00000000000E+00 0.  1.
          2   -1    0    0  501    0  0.00000000000E+00 -0.00000000000E+00 -0.79632636109E+03  0.79632636109E+03  0.00000000000E+00 0. -1.
         25    2    1    2    0    0 -0.16522421909E+02 -0.11683609952E+03 -0.58851681351E+03  0.61312565583E+03  0.12508942992E+03 0.  0.
         23    2    1    2    0    0  0.16522421909E+02  0.11683609952E+03 -0.16660302450E+03  0.22440722836E+03  0.93157779021E+02 0.  0.
          5    1    3    3  502    0 -0.38227128940E+02  0.11755967066E+02 -0.10925422242E+03  0.11641938698E+03  0.41800000000E+01 0.  1.
         -5    1    3    3    0  502  0.21704707031E+02 -0.12859206658E+03 -0.47926259109E+03  0.49670626885E+03  0.41800000000E+01 0.  1.
        -11    1    4    4    0    0  0.40241576075E+02  0.19495643658E+02 -0.25886862029E+02  0.51668115820E+02  0.00000000000E+00 0.  1.
         11    1    4    4    0    0 -0.23719154166E+02  0.97340455857E+02 -0.14071616247E+03  0.17273911254E+03  0.00000000000E+00 0. -1.
</event>
<event>
 8    1  0.6906553E-009  0.1415077E+03  0.7561462E-02  0.1211315E+00
         -1   -1    0    0    0  501 -0.00000000000E+00  0.00000000000E+00  0.24228562274E+02  0.24228562274E+02  0.00000000000E+00 0.  1.
          1   -1    0    0  501    0  0.00000000000E+00 -0.00000000000E+00 -0.10409811452E+04  0.10409811452E+04  0.00000000000E+00 0. -1.
         25    2    1    2    0    0 -0.15591108567E+02 -0.10876146893E+03 -0.66722612716E+03  0.68768447092E+03  0.12508831680E+03 0.  0.
         23    2    1    2    0    0  0.15591108567E+02  0.10876146893E+03 -0.34952645581E+03  0.37752523659E+03  0.91018795648E+02 0.  0.
          5    1    3    3  502    0 -0.36527324008E+02 -0.46792570140E+01 -0.55095402817E+02  0.66401179635E+02  0.41800000000E+01 0. -1.
         -5    1    3    3    0  502  0.20936215441E+02 -0.10408221191E+03 -0.61213072434E+03  0.62128329129E+03  0.41800000000E+01 0. -1.
        -11    1    4    4    0    0 -0.29808282762E+02  0.81424894108E+02 -0.25244567352E+03  0.26692202079E+03  0.00000000000E+00 0.  1.
         11    1    4    4    0    0  0.45399391329E+02  0.27336574821E+02 -0.97080782283E+02  0.11060321580E+03  0.00000000000E+00 0. -1.
</event>
<event>
 8    1  0.6906553E-009  0.2508729E+03  0.7561462E-02  0.1112754E+00
          1   -1    0    0  501    0  0.00000000000E+00  0.00000000000E+00  0.18254138273E+04  0.18254138273E+04  0.00000000000E+00 0. -1.
         -1   -1    0    0    0  501 -0.00000000000E+00 -0.00000000000E+00 -0.42568105214E+02  0.42568105214E+02  0.00000000000E+00 0.  1.
         25    2    1    2    0    0 -0.76628846816E+02 -0.22033852363E+03  0.12648536518E+04  0.12922564773E+04  0.12510394726E+03 0.  0.
         23    2    1    2    0    0  0.76628846816E+02  0.22033852363E+03  0.51799207033E+03  0.57572545521E+03  0.93396839838E+02 0.  0.
          5    1    3    3  502    0 -0.28018773758E+02 -0.21358584960E+03  0.10286868758E+04  0.10510081483E+04  0.41800000000E+01 0. -1.
         -5    1    3    3    0  502 -0.48610073058E+02 -0.67526740230E+01  0.23616677595E+03  0.24124832905E+03  0.41800000000E+01 0. -1.
        -11    1    4    4    0    0  0.62880969812E+02  0.11737265491E+03  0.19255014686E+03  0.23410663285E+03  0.00000000000E+00 0.  1.
         11    1    4    4    0    0  0.13747877003E+02  0.10296586871E+03  0.32544192346E+03  0.34161882236E+03  0.00000000000E+00 0. -1.
</event>
<event>
 8    1  0.6906553E-009  0.8793135E+02  0.7561462E-02  0.1307940E+00
          2   -1    0    0  501    0  0.00000000000E+00  0.00000000000E+00  0.31513409191E+03  0.31513409191E+03  0.00000000000E+00 0. -1.
         -2   -1    0    0    0  501 -0.00000000000E+00 -0.00000000000E+00 -0.60133045453E+02  0.60133045453E+02  0.00000000000E+00 0.  1.
         25    2    1    2    0    0  0.65013217210E+02 -0.15794003031E+02  0.21086479660E+03  0.25414255903E+03  0.12509320094E+03 0.  0.
         23    2    1    2    0    0 -0.65013217210E+02  0.15794003031E+02  0.44136249858E+02  0.12112457833E+03  0.90812917479E+02 0.  0.
          5    1    3    3  502    0 -0.16336667057E+01 -0.37877046882E+02  0.73857239515E+01  0.38850493763E+02  0.41800000000E+01 0. -1.
         -5    1    3    3    0  502  0.66646883916E+02  0.22083043851E+02  0.20347907265E+03  0.21529206527E+03  0.41800000000E+01 0. -1.
        -11    1    4    4    0    0 -0.36743091503E+02  0.48072971536E+01 -0.25626283425E+02  0.45054092836E+02  0.00000000000E+00 0.  1.
         11    1    4    4    0    0 -0.28270125708E+02  0.10986705877E+02  0.69762533284E+02  0.76070485497E+02  0.00000000000E+00 0. -1.
</event>
<event>
 8    1  0.6906553E-009  0.9751327E+02  0.7561462E-02  0.1285614E+00
         -1   -1    0    0    0  501 -0.00000000000E+00  0.00000000000E+00  0.54931315603E+02  0.54931315603E+02  0.00000000000E+00 0.  1.
          1   -1    0    0  501    0  0.00000000000E+00 -0.00000000000E+00 -0.38555705636E+03  0.38555705636E+03  0.00000000000E+00 0. -1.
         25    2    1    2    0    0  0.13909550039E+02  0.63876301562E+01 -0.32022450946E+03  0.34413074043E+03  0.12509177690E+03 0.  0.
         23    2    1    2    0    0 -0.13909550039E+02 -0.63876301562E+01 -0.10401231290E+02  0.96357631528E+02  0.94563894484E+02 0.  0.
          5    1    3    3  502    0  0.52454294485E+02  0.22579433302E+02 -0.28058163079E+03  0.28636481585E+03  0.41800000000E+01 0.  1.
         -5    1    3    3    0  502 -0.38544744446E+02 -0.16191803146E+02 -0.39642878670E+02  0.57765924581E+02  0.41800000000E+01 0.  1.
        -11    1    4    4    0    0 -0.28749977201E+02  0.38741340776E+02 -0.37725385150E+01  0.48390957017E+02  0.00000000000E+00 0.  1.
         11    1    4    4    0    0  0.14840427163E+02 -0.45128970932E+02 -0.66286927753E+01  0.47966674511E+02  0.00000000000E+00 0. -1.
</event>
<event>
 8    1  0.6906553E-009  0.8834173E+02  0.7561462E-02  0.1306918E+00
          2   -1    0    0  501    0  0.00000000000E+00  0.00000000000E+00  0.40123362196E+03  0.40123362196E+03  0.00000000000E+00 0. -1.
         -2   -1    0    0    0  501 -0.00000000000E+00 -0.00000000000E+00 -0.38730710766E+02  0.38730710766E+02  0.00000000000E+00 0.  1.
         25    2    1    2    0    0 -0.55433918931E+02 -0.16840248545E+02  0.23481426903E+03  0.27229145693E+03  0.12509349798E+03 0.  0.
         23    2    1    2    0    0  0.55433918931E+02  0.16840248545E+02  0.12768864216E+03  0.16767287580E+03  0.91941778325E+02 0.  0.
          5    1    3    3  502    0 -0.61298797922E+02 -0.40292798504E+02  0.57530446845E+02  0.93318149104E+02  0.41800000000E+01 0. -1.
         -5    1    3    3    0  502  0.58648789911E+01  0.23452549959E+02  0.17728382218E+03  0.17897330782E+03  0.41800000000E+01 0. -1.
        -11    1    4    4    0    0  0.17792520512E+02  0.33172903122E+02  0.45976112877E+01  0.37922991935E+02  0.00000000000E+00 0.  1.
         11    1    4    4    0    0  0.37641398419E+02 -0.16332654577E+02  0.12309103087E+03  0.12974988386E+03  0.00000000000E+00 0. -1.
</event>
<event>
 8    1  0.6906553E-009  0.1148798E+03  0.7561462E-02  0.1251791E+00
          1   -1    0    0  501    0  0.00000000000E+00  0.00000000000E+00  0.93219006803E+03  0.93219006803E+03  0.00000000000E+00 0. -1.
         -1   -1    0    0    0  501 -0.00000000000E+00 -0.00000000000E+00 -0.49459996543E+02  0.49459996543E+02  0.00000000000E+00 0.  1.
         25    2    1    2    0    0  0.10921125234E+02  0.83001050485E+02  0.83430985892E+03  0.84777903275E+03  0.12509157577E+03 0.  0.
         23    2    1    2    0    0 -0.10921125234E+02 -0.83001050485E+02  0.48420212567E+02  0.13387103182E+03  0.92566142930E+02 0.  0.
          5    1    3    3  502    0  0.64285437789E+02  0.40746808857E+02  0.31924006961E+03  0.32821428121E+03  0.41800000000E+01 0.  1.
         -5    1    3    3    0  502 -0.53364312554E+02  0.42254241628E+02  0.51506978931E+03  0.51956475155E+03  0.41800000000E+01 0.  1.
        -11    1    4    4    0    0 -0.12662119847E+02 -0.33604454573E+02  0.70973562017E+02  0.79541405265E+02  0.00000000000E+00 0. -1.
         11    1    4    4    0    0  0.17409946127E+01 -0.49396595912E+02 -0.22553349450E+02  0.54329626553E+02  0.00000000000E+00 0.  1.
</event>
<event>
 8    1  0.6906553E-009  0.1297488E+03  0.7561462E-02  0.1227829E+00
         -1   -1    0    0    0  501 -0.00000000000E+00  0.00000000000E+00  0.94012367489E+02  0.94012367489E+02  0.00000000000E+00 0.  1.
          1   -1    0    0  501    0  0.00000000000E+00 -0.00000000000E+00 -0.20052348686E+03  0.20052348686E+03  0.00000000000E+00 0. -1.
         25    2    1    2    0    0  0.70347818542E+02  0.42619017891E+02 -0.67784367432E+02  0.16433839508E+03  0.12508873398E+03 0.  0.
         23    2    1    2    0    0 -0.70347818542E+02 -0.42619017891E+02 -0.38726751938E+02  0.13019745927E+03  0.93200970087E+02 0.  0.
          5    1    3    3  502    0 -0.24795880201E+02 -0.20024584159E+02 -0.30743873953E+02  0.44480083535E+02  0.41800000000E+01 0. -1.
         -5    1    3    3    0  502  0.95143698743E+02  0.62643602050E+02 -0.37040493479E+02  0.11985831154E+03  0.41800000000E+01 0. -1.
        -11    1    4    4    0    0  0.27991213055E+01  0.18088761313E+02 -0.29468184078E+02  0.34690232613E+02  0.00000000000E+00 0. -1.
         11    1    4    4    0    0 -0.73146939848E+02 -0.60707779204E+02 -0.92585678607E+01  0.95507226657E+02  0.00000000000E+00 0.  1.
</event>
<event>
 8    1  0.6906553E-009  0.1214142E+03  0.7561462E-02  0.1240782E+00
          2   -1    0    0  501    0  0.00000000000E+00  0.00000000000E+00  0.30725680546E+03  0.30725680546E+03  0.00000000000E+00 0. -1.
         -2   -1    0    0    0  501 -0.00000000000E+00 -0.00000000000E+00 -0.52214736383E+02  0.52214736383E+02  0.00000000000E+00 0.  1.
         25    2    1    2    0    0  0.42594693637E+01 -0.65913367353E+02  0.14253656284E+03  0.20081564584E+03  0.12509011469E+03 0.  0.
         23    2    1    2    0    0 -0.42594693637E+01  0.65913367353E+02  0.11250550623E+03  0.15865589600E+03  0.90285598668E+02 0.  0.
          5    1    3    3  502    0  0.18560984035E+02 -0.99081479321E+02  0.12443685573E+03  0.16019879256E+03  0.41800000000E+01 0. -1.
         -5    1    3    3    0  502 -0.14301514671E+02  0.33168111967E+02  0.18099707110E+02  0.40616853286E+02  0.41800000000E+01 0. -1.
        -11    1    4    4    0    0  0.37928259502E+02  0.43814032342E+02  0.35036495137E+02  0.67718374836E+02  0.00000000000E+00 0.  1.
         11    1    4    4    0    0 -0.42187728866E+02  0.22099335011E+02  0.77469011096E+02  0.90937521161E+02  0.00000000000E+00 0. -1.
</event>
<event>
 8    1  0.6906553E-009  0.1154856E+03  0.7561462E-02  0.1250736E+00
          1   -1    0    0  501    0  0.00000000000E+00  0.00000000000E+00  0.27952541249E+02  0.27952541249E+02  0.00000000000E+00 0. -1.
         -1   -1    0    0    0  501 -0.00000000000E+00 -0.00000000000E+00 -0.71804857729E+03  0.71804857729E+03  0.00000000000E+00 0.  1.
         25    2    1    2    0    0  0.68645821676E+02  0.58885261087E+02 -0.40689440518E+03  0.43519328067E+03  0.12510160578E+03 0.  0.
         23    2    1    2    0    0 -0.68645821676E+02 -0.58885261087E+02 -0.28320163086E+03  0.31080783787E+03  0.90656635444E+02 0.  0.
          5    1    3    3  502    0  0.23818060580E+02  0.65463832564E+02 -0.84448315229E+02  0.10955274405E+03  0.41800000000E+01 0. -1.
         -5    1    3    3    0  502  0.44827761096E+02 -0.65785714776E+01 -0.32244608995E+03  0.32564053662E+03  0.41800000000E+01 0. -1.
        -11    1    4    4    0    0 -0.99585171825E+01 -0.56049971106E+02 -0.73138681702E+02  0.92682458354E+02  0.00000000000E+00 0.  1.
         11    1    4    4    0    0 -0.58687304494E+02 -0.28352899809E+01 -0.21006294916E+03  0.21812537951E+03  0.00000000000E+00 0. -1.
</event>
<event>
 8    1  0.6906553E-009  0.1353855E+03  0.7561462E-02  0.1219676E+00
         -2   -1    0    0    0  501 -0.00000000000E+00  0.00000000000E+00  0.20251303598E+02  0.20251303598E+02  0.00000000000E+00 0.  1.
          2   -1    0    0  501    0  0.00000000000E+00 -0.00000000000E+00 -0.96671285912E+03  0.96671285912E+03  0.00000000000E+00 0. -1.
         25    2    1    2    0    0 -0.25483265265E+02  0.83691357951E+02 -0.49926631939E+03  0.52207881806E+03  0.12508314989E+03 0.  0.
         23    2    1    2    0    0  0.25483265265E+02 -0.83691357951E+02 -0.44719523614E+03  0.46488534466E+03  0.92093236735E+02 0.  0.
          5    1    3    3  502    0 -0.64837410819E+02  0.75456163418E+01 -0.18140360635E+03  0.19283559569E+03  0.41800000000E+01 0. -1.
         -5    1    3    3    0  502  0.39354145554E+02  0.76145741609E+02 -0.31786271303E+03  0.32924322237E+03  0.41800000000E+01 0. -1.
        -11    1    4    4    0    0  0.52731569887E+02 -0.33609586473E+02 -0.15424253288E+03  0.16643611902E+03  0.00000000000E+00 0. -1.
         11    1    4    4    0    0 -0.27248304622E+02 -0.50081771478E+02 -0.29295270326E+03  0.29844922564E+03  0.00000000000E+00 0.  1.
</event>
<event>
 8    1  0.6906553E-009  0.1274344E+03  0.7561462E-02  0.1231313E+00
          2   -1    0    0  501    0  0.00000000000E+00  0.00000000000E+00  0.20726597668E+03  0.20726597668E+03  0.00000000000E+00 0. -1.
         -2   -1    0    0    0  501 -0.00000000000E+00 -0.00000000000E+00 -0.10295778643E+03  0.10295778643E+03  0.00000000000E+00 0.  1.
         25    2    1    2    0    0  0.69115479185E+02  0.64933095735E+02  0.78945147039E+02  0.17570783585E+03  0.12509057101E+03 0.  0.
         23    2    1    2    0    0 -0.69115479185E+02 -0.64933095735E+02  0.25363043206E+02  0.13451592726E+03  0.91967354757E+02 0.  0.
          5    1    3    3  502    0  0.95527067257E+02  0.69776009518E+02  0.33949911364E+02  0.12314292901E+03  0.41800000000E+01 0.  1.
         -5    1    3    3    0  502 -0.26411588072E+02 -0.48429137826E+01  0.44995235675E+02  0.52564906847E+02  0.41800000000E+01 0.  1.
        -11    1    4    4    0    0  0.30397313821E+01 -0.28185869816E+02  0.43133057796E+02  0.51615345577E+02  0.00000000000E+00 0. -1.
         11    1    4    4    0    0 -0.72155210567E+02 -0.36747225919E+02 -0.17770014591E+02  0.82900581682E+02  0.00000000000E+00 0.  1.
</event>
<event>
 8    1  0.6906553E-009  0.1386500E+03  0.7561462E-02  0.1215157E+00
          1   -1    0    0  501    0  0.00000000000E+00  0.00000000000E+00  0.32283496090E+04  0.32283496090E+04  0.00000000000E+00 0. -1.
         -1   -1    0    0    0  501 -0.00000000000E+00 -0.00000000000E+00 -0.98438198045E+01  0.98438198045E+01  0.00000000000E+00 0.  1.
         25    2    1    2    0    0 -0.76447193373E+02 -0.62310679684E+02  0.26159597162E+04  0.26208052401E+04  0.12509226781E+03 0.  0.
         23    2    1    2    0    0  0.76447193373E+02  0.62310679684E+02  0.60254607303E+03  0.61738818876E+03  0.91540216950E+02 0.  0.
          5    1    3    3  502    0 -0.53444385274E+01 -0.71826285565E+02  0.18703232831E+04  0.18717142501E+04  0.41800000000E+01 0.  1.
         -5    1    3    3    0  502 -0.71102754846E+02  0.95156058812E+01  0.74563643316E+03  0.74909099004E+03  0.41800000000E+01 0.  1.
        -11    1    4    4    0    0 -0.16821960154E+02 -0.58116514338E+01  0.55551209917E+02  0.58332585740E+02  0.00000000000E+00 0.  1.
         11    1    4    4    0    0  0.93269153527E+02  0.68122331117E+02  0.54699486311E+03  0.55905560302E+03  0.00000000000E+00 0. -1.
</event>
<event>
 8    1  0.6906553E-009  0.7740535E+02  0.7561462E-02  0.1336580E+00
         -1   -1    0    0    0  501 -0.00000000000E+00  0.00000000000E+00  0.85328904056E+02  0.85328904056E+02  0.00000000000E+00 0.  1.
          1   -1    0    0  501    0  0.00000000000E+00 -0.00000000000E+00 -0.20416808799E+03  0.20416808799E+03  0.00000000000E+00 0. -1.
         25    2    1    2    0    0  0.87780553457E+01  0.35906498775E+02  0.59406695270E+01  0.13056800414E+03  0.12508549573E+03 0.  0.
         23    2    1    2    0    0 -0.87780553457E+01 -0.35906498775E+02 -0.12477985346E+03  0.15892898791E+03  0.91225437552E+02 0.  0.
          5    1    3    3  502    0 -0.20389534275E+02  0.17905621416E+02 -0.54462804695E+02  0.60991916526E+02  0.41800000000E+01 0. -1.
         -5    1    3    3    0  502  0.29167589621E+02  0.18000877359E+02  0.60403474222E+02  0.69576087617E+02  0.41800000000E+01 0. -1.
        -11    1    4    4    0    0 -0.42766545539E+02 -0.40042803421E+02 -0.51335566683E+02  0.77895724721E+02  0.00000000000E+00 0.  1.
         11    1    4    4    0    0  0.33988490193E+02  0.41363046464E+01 -0.73444286779E+02  0.81033263184E+02  0.00000000000E+00 0. -1.
</event>
<event>
 8    1  0.6906553E-009  0.9574215E+02  0.7561462E-02  0.1289513E+00
         -1   -1    0    0    0  501 -0.00000000000E+00  0.00000000000E+00  0.35312107873E+03  0.35312107873E+03  0.00000000000E+00 0.  1.
          1   -1    0    0  501    0  0.00000000000E+00 -0.00000000000E+00 -0.40314898603E+02  0.40314898603E+02  0.00000000000E+00 0. -1.
         25    2    1    2    0    0  0.27653988309E+02  0.90950952102E+00  0.10638348094E+03  0.16652947169E+03  0.12509616159E+03 0.  0.
         23    2    1    2    0    0 -0.27653988309E+02 -0.90950952102E+00  0.20642269918E+03  0.22690650564E+03  0.90059209908E+02 0.  0.
          5    1    3    3  502    0 -0.35501137386E+02 -0.15951099831E+02  0.91267137177E+02  0.99307255878E+02  0.41800000000E+01 0. -1.
         -5    1    3    3    0  502  0.63155125695E+02  0.16860609352E+02  0.15116343765E+02  0.67222215808E+02  0.41800000000E+01 0. -1.
        -11    1    4    4    0    0 -0.24289957048E+02  0.39456607940E+02  0.15301185198E+03  0.15987323970E+03  0.00000000000E+00 0.  1.
         11    1    4    4    0    0 -0.33640312615E+01 -0.40366117461E+02  0.53410847196E+02  0.67033265946E+02  0.00000000000E+00 0. -1.
</event>
<event>
 8    1  0.6906553E-009  0.2428896E+03  0.7561462E-02  0.1117883E+00
          1   -1    0    0  501    0  0.00000000000E+00  0.00000000000E+00  0.77677667836E+03  0.77677667836E+03  0.00000000000E+00 0. -1.
         -1   -1    0    0    0  501 -0.00000000000E+00 -0.00000000000E+00 -0.90627843819E+02  0.90627843819E+02  0.00000000000E+00 0.  1.
         25    2    1    2    0    0 -0.14781702497E+03 -0.19052065665E+03  0.38816798781E+03  0.47378281518E+03  0.12509106971E+03 0.  0.
         23    2    1    2    0    0  0.14781702497E+03  0.19052065665E+03  0.29798084673E+03  0.39362170700E+03  0.89428573285E+02 0.  0.
          5    1    3    3  502    0 -0.28177947607E+02 -0.40800999056E+02  0.11397236827E+02  0.51049854678E+02  0.41800000000E+01 0. -1.
         -5    1    3    3    0  502 -0.11963907737E+03 -0.14971965759E+03  0.37677075098E+03  0.42273296050E+03  0.41800000000E+01 0. -1.
        -11    1    4    4    0    0  0.58562768971E+02  0.10754929440E+03  0.87852615015E+02  0.15071340551E+03  0.00000000000E+00 0.  1.
         11    1    4    4    0    0  0.89254256002E+02  0.82971362248E+02  0.21012823172E+03  0.24290830149E+03  0.00000000000E+00 0. -1.
</event>
<event>
 8    1  0.6906553E-009  0.2614433E+03  0.7561462E-02  0.1106279E+00
         -2   -1    0    0    0  501 -0.00000000000E+00  0.00000000000E+00  0.39970839588E+03  0.39970839588E+03  0.00000000000E+00 0.  1.
          2   -1    0    0  501    0  0.00000000000E+00 -0.00000000000E+00 -0.24434494451E+03  0.24434494451E+03  0.00000000000E+00 0. -1.
         25    2    1    2    0    0 -0.41558861087E+02 -0.24843874869E+03  0.23230649694E+03  0.36477750715E+03  0.12508944967E+03 0.  0.
         23    2    1    2    0    0  0.41558861087E+02  0.24843874869E+03 -0.76943045567E+02  0.27927583324E+03  0.92875228064E+02 0.  0.
          5    1    3    3  502    0 -0.52374253210E+02 -0.52820088757E+02  0.11301418168E+03  0.13536137498E+03  0.41800000000E+01 0. -1.
         -5    1    3    3    0  502  0.10815392123E+02 -0.19561865993E+03  0.11929231526E+03  0.22941613217E+03  0.41800000000E+01 0. -1.
        -11    1    4    4    0    0  0.38866823642E+01  0.67100459915E+02  0.20137597151E+02  0.70164811976E+02  0.00000000000E+00 0.  1.
         11    1    4    4    0    0  0.37672178722E+02  0.18133828877E+03 -0.97080642718E+02  0.20911102127E+03  0.00000000000E+00 0. -1.
</event>
<event>
 8    1  0.6906553E-009  0.1263009E+03  0.7561462E-02  0.1233050E+00
          1   -1    0    0  501    0  0.00000000000E+00  0.00000000000E+00  0.19340883734E+03  0.19340883734E+03  0.00000000000E+00 0. -1.
         -1   -1    0    0    0  501 -0.00000000000E+00 -0.00000000000E+00 -0.87231716669E+02  0.87231716669E+02  0.00000000000E+00 0.  1.
         25    2    1    2    0    0  0.40588747776E+02  0.57257522130E+02  0.47396880698E+02  0.15105718597E+03  0.12508372734E+03 0.  0.
         23    2    1    2    0    0 -0.40588747776E+02 -0.57257522130E+02  0.58780239972E+02  0.12958336804E+03  0.91710753868E+02 0.  0.
          5    1    3    3  502    0 -0.43025090251E+02  0.23077748371E+02  0.34002420714E+02  0.59643758059E+02  0.41800000000E+01 0. -1.
         -5    1    3    3    0  502  0.83613838027E+02  0.34179773758E+02  0.13394459984E+02  0.91413427909E+02  0.41800000000E+01 0. -1.
        -11    1    4    4    0    0 -0.61903830050E+02 -0.11873095112E+02  0.19786111279E+02  0.66064701331E+02  0.00000000000E+00 0.  1.
         11    1    4    4    0    0  0.21315082274E+02 -0.45384427017E+02  0.38994128693E+02  0.63518666709E+02  0.00000000000E+00 0. -1.
</event>
<event>
 8    1  0.6906553E-009  0.1052844E+03  0.7561462E-02  0.1269560E+00
          1   -1    0    0  501    0  0.00000000000E+00  0.00000000000E+00  0.56698999953E+03  0.56698999953E+03  0.00000000000E+00 0. -1.
         -1   -1    0    0    0  501 -0.00000000000E+00 -0.00000000000E+00 -0.31312504895E+02  0.31312504895E+02  0.00000000000E+00 0.  1.
         25    2    1    2    0    0 -0.42922060777E+02 -0.34426089627E+02  0.17514149772E+03  0.22214656115E+03  0.12508833462E+03 0.  0.
         23    2    1    2    0    0  0.42922060777E+02  0.34426089627E+02  0.36053599691E+03  0.37615594327E+03  0.92084904535E+02 0.  0.
          5    1    3    3  502    0 -0.72766597558E+02 -0.45977000883E+02  0.16841065981E+03  0.18917844769E+03  0.41800000000E+01 0.  1.
         -5    1    3    3    0  502  0.29844536781E+02  0.11550911256E+02  0.67308379119E+01  0.32968113466E+02  0.41800000000E+01 0.  1.
        -11    1    4    4    0    0 -0.14877410953E+02 -0.11084487706E+02  0.18144728577E+02  0.25950614627E+02  0.00000000000E+00 0.  1.
         11    1    4    4    0    0  0.57799471730E+02  0.45510577332E+02  0.34239126833E+03  0.35020532864E+03  0.00000000000E+00 0. -1.
</event>
<event>
 8    1  0.6906553E-009  0.3543496E+03  0.7561462E-02  0.1060844E+00
          1   -1    0    0  501    0  0.00000000000E+00  0.00000000000E+00  0.13343042151E+04  0.13343042151E+04  0.00000000000E+00 0. -1.
         -1   -1    0    0    0  501 -0.00000000000E+00 -0.00000000000E+00 -0.14854866738E+03  0.14854866738E+03  0.00000000000E+00 0.  1.
         25    2    1    2    0    0  0.47698835947E+02  0.35000143924E+03  0.10157825575E+04  0.10826991642E+04  0.12508832717E+03 0.  0.
         23    2    1    2    0    0 -0.47698835947E+02 -0.35000143924E+03  0.16997299023E+03  0.40015371830E+03  0.80349203124E+02 0.  0.
          5    1    3    3  502    0  0.22628130579E+02  0.21320740831E+03  0.77984093780E+03  0.80878847168E+03  0.41800000000E+01 0.  1.
         -5    1    3    3    0  502  0.25070705368E+02  0.13679403093E+03  0.23594161971E+03  0.27391069252E+03  0.41800000000E+01 0.  1.
        -11    1    4    4    0    0 -0.19845493110E+02 -0.26342918648E+03  0.15954473274E+03  0.30861513513E+03  0.00000000000E+00 0. -1.
         11    1    4    4    0    0 -0.27853342837E+02 -0.86572252758E+02  0.10428257493E+02  0.91538583172E+02  0.00000000000E+00 0.  1.
</event>
<event>
 8    1  0.6906553E-009  0.1436906E+03  0.7561462E-02  0.1208447E+00
          2   -1    0    0  501    0  0.00000000000E+00  0.00000000000E+00  0.70897230024E+03  0.70897230024E+03  0.00000000000E+00 0. -1.
         -2   -1    0    0    0  501 -0.00000000000E+00 -0.00000000000E+00 -0.46575946900E+02  0.46575946900E+02  0.00000000000E+00 0.  1.
         25    2    1    2    0    0 -0.11370684364E+03  0.41024670894E+02  0.50192837225E+03  0.53121632877E+03  0.12508567930E+03 0.  0.
         23    2    1    2    0    0  0.11370684364E+03 -0.41024670894E+02  0.16046798109E+03  0.22433191837E+03  0.99812658185E+02 0.  0.
          5    1    3    3  502    0 -0.10730138607E+03 -0.14745502380E+02  0.40373608746E+03  0.41803267577E+03  0.41800000000E+01 0. -1.
         -5    1    3    3    0  502 -0.64054575693E+01  0.55770173274E+02  0.98192284793E+02  0.11318365300E+03  0.41800000000E+01 0. -1.
        -11    1    4    4    0    0  0.91720523948E+02 -0.41579918287E+02  0.51391595690E+02  0.11306033887E+03  0.00000000000E+00 0.  1.
         11    1    4    4    0    0  0.21986319689E+02  0.55524739307E+00  0.10907638540E+03  0.11127157950E+03  0.00000000000E+00 0. -1.
</event>
<event>
 8    1  0.6906553E-009  0.1086694E+03  0.7561462E-02  0.1263054E+00
         -1   -1    0    0    0  501 -0.00000000000E+00  0.00000000000E+00  0.16498956593E+03  0.16498956593E+03  0.00000000000E+00 0.  1.
          1   -1    0    0  501    0  0.00000000000E+00 -0.00000000000E+00 -0.13536410320E+03  0.13536410320E+03  0.00000000000E+00 0. -1.
         25    2    1    2    0    0  0.86939558105E+02 -0.38590946352E+02 -0.11660296947E+02  0.15757944713E+03  0.12509025433E+03 0.  0.
         23    2    1    2    0    0 -0.86939558105E+02  0.38590946352E+02  0.41285759674E+02  0.14277422201E+03  0.98143856731E+02 0.  0.
          5    1    3    3  502    0  0.42769028156E+02 -0.54664430779E+02  0.45772459998E+02  0.83246502965E+02  0.41800000000E+01 0.  1.
         -5    1    3    3    0  502  0.44170529949E+02  0.16073484427E+02 -0.57432756945E+02  0.74332944163E+02  0.41800000000E+01 0.  1.
        -11    1    4    4    0    0 -0.13557848402E+02  0.21260508575E+02  0.60002495412E+02  0.65085512472E+02  0.00000000000E+00 0.  1.
         11    1    4    4    0    0 -0.73381709703E+02  0.17330437777E+02 -0.18716735737E+02  0.77688709535E+02  0.00000000000E+00 0. -1.
</event>
<event>
 8    1  0.6906553E-009  0.9543113E+02  0.7561462E-02  0.1290208E+00
         -2   -1    0    0    0  501 -0.00000000000E+00  0.00000000000E+00  0.11117656355E+03  0.11117656355E+03  0.00000000000E+00 0. -1.
          2   -1    0    0  501    0  0.00000000000E+00 -0.00000000000E+00 -0.16205242534E+03  0.16205242534E+03  0.00000000000E+00 0.  1.
         25    2    1    2    0    0 -0.32396860922E+02  0.70839948719E+02 -0.58594110413E+01  0.14746165958E+03  0.12507099350E+03 0.  0.
         23    2    1    2    0    0  0.32396860922E+02 -0.70839948719E+02 -0.45016450750E+02  0.12576732932E+03  0.87881086439E+02 0.  0.
          5    1    3    3  502    0  0.10412527465E+02  0.87155198276E+01 -0.55343934921E+02  0.57138468186E+02  0.41800000000E+01 0.  1.
         -5    1    3    3    0  502 -0.42809388387E+02  0.62124428891E+02  0.49484523880E+02  0.90323191389E+02  0.41800000000E+01 0.  1.
        -11    1    4    4    0    0  0.26454502244E+02  0.33498222204E+01 -0.43861244770E+02  0.51330992496E+02  0.00000000000E+00 0.  1.
         11    1    4    4    0    0  0.59423586783E+01 -0.74189770939E+02 -0.11552059796E+01  0.74436336822E+02  0.00000000000E+00 0. -1.
</event>
<event>
 8    1  0.6906553E-009  0.2054916E+03  0.7561462E-02  0.1145187E+00
         -2   -1    0    0    0  501 -0.00000000000E+00  0.00000000000E+00  0.39089755677E+02  0.39089755677E+02  0.00000000000E+00 0.  1.
          2   -1    0    0  501    0  0.00000000000E+00 -0.00000000000E+00 -0.11691731191E+04  0.11691731191E+04  0.00000000000E+00 0. -1.
         25    2    1    2    0    0 -0.17263705082E+03  0.60592370675E+02 -0.63458576338E+03  0.67217687424E+03  0.12509065700E+03 0.  0.
         23    2    1    2    0    0  0.17263705082E+03 -0.60592370675E+02 -0.49549760007E+03  0.53608600057E+03  0.91626096896E+02 0.  0.
          5    1    3    3  502    0 -0.13957073488E+03 -0.13606656131E+02 -0.40249001667E+03  0.42624032781E+03  0.41800000000E+01 0. -1.
         -5    1    3    3    0  502 -0.33066315942E+02  0.74199026807E+02 -0.23209574671E+03  0.24593654643E+03  0.41800000000E+01 0. -1.
        -11    1    4    4    0    0  0.10926749370E+03 -0.12879239412E+02 -0.18167682448E+03  0.21239521779E+03  0.00000000000E+00 0. -1.
         11    1    4    4    0    0  0.63369557122E+02 -0.47713131263E+02 -0.31382077559E+03  0.32369078278E+03  0.00000000000E+00 0.  1.
</event>
<event>
 8    1  0.6906553E-009  0.1071897E+03  0.7561462E-02  0.1265864E+00
          4   -1    0    0  501    0  0.00000000000E+00  0.00000000000E+00  0.16881467357E+03  0.16881467357E+03  0.00000000000E+00 0.  1.
         -4   -1    0    0    0  501 -0.00000000000E+00 -0.00000000000E+00 -0.11411973215E+03  0.11411973215E+03  0.00000000000E+00 0. -1.
         25    2    1    2    0    0  0.27602184963E+01 -0.74723118161E+02  0.77301719377E+02  0.16496977252E+03  0.12509319259E+03 0.  0.
         23    2    1    2    0    0 -0.27602184963E+01  0.74723118161E+02 -0.22606777958E+02  0.11796463321E+03  0.88393580564E+02 0.  0.
          5    1    3    3  502    0 -0.40694101685E+02  0.64324921518E+01 -0.46212055257E+01  0.41667911007E+02  0.41800000000E+01 0. -1.
         -5    1    3    3    0  502  0.43454320181E+02 -0.81155610313E+02  0.81922924902E+02  0.12330186151E+03  0.41800000000E+01 0. -1.
        -11    1    4    4    0    0 -0.14322999516E+02  0.18393362750E+02 -0.49324877286E+02  0.54556462749E+02  0.00000000000E+00 0. -1.
         11    1    4    4    0    0  0.11562781019E+02  0.56329755410E+02  0.26718099328E+02  0.63408170461E+02  0.00000000000E+00 0.  1.
</event>
<event>
 8    1  0.6906553E-009  0.1967440E+03  0.7561462E-02  0.1152516E+00
         -4   -1    0    0    0  501 -0.00000000000E+00  0.00000000000E+00  0.42296154753E+02  0.42296154753E+02  0.00000000000E+00 0.  1.
          4   -1    0    0  501    0  0.00000000000E+00 -0.00000000000E+00 -0.10438412834E+04  0.10438412834E+04  0.00000000000E+00 0. -1.
         25    2    1    2    0    0 -0.22319115208E+02 -0.17824855630E+03 -0.54635608525E+03  0.58857753369E+03  0.12509136880E+03 0.  0.
         23    2    1    2    0    0  0.22319115208E+02  0.17824855630E+03 -0.45518904338E+03  0.49755990445E+03  0.89989458110E+02 0.  0.
          5    1    3    3  502    0 -0.45082864889E+02 -0.13495332152E+02 -0.18204331564E+03  0.18807400103E+03  0.41800000000E+01 0. -1.
         -5    1    3    3    0  502  0.22763749682E+02 -0.16475322415E+03 -0.36431276961E+03  0.40050353265E+03  0.41800000000E+01 0. -1.
        -11    1    4    4    0    0  0.19172508485E+02  0.11850183236E+03 -0.39441216804E+03  0.41227566949E+03  0.00000000000E+00 0. -1.
         11    1    4    4    0    0  0.31466067228E+01  0.59746723947E+02 -0.60776875339E+02  0.85284234957E+02  0.00000000000E+00 0.  1.
</event>
<event>
 8    1  0.6906553E-009  0.1198176E+03  0.7561462E-02  0.1243398E+00
         -2   -1    0    0    0  501 -0.00000000000E+00  0.00000000000E+00  0.71043101753E+02  0.71043101753E+02  0.00000000000E+00 0.  1.
          2   -1    0    0  501    0  0.00000000000E+00 -0.00000000000E+00 -0.22772281042E+03  0.22772281042E+03  0.00000000000E+00 0. -1.
         25    2    1    2    0    0 -0.53150806330E+02 -0.15617299295E+02 -0.10335706239E+03  0.17146236435E+03  0.12509097406E+03 0.  0.
         23    2    1    2    0    0  0.53150806330E+02  0.15617299295E+02 -0.53322646281E+02  0.12730354783E+03  0.10145925504E+03 0.  0.
          5    1    3    3  502    0  0.19701209631E+02 -0.42280445875E+02 -0.75662090339E+02  0.88983133676E+02  0.41800000000E+01 0.  1.
         -5    1    3    3    0  502 -0.72852015961E+02  0.26663146580E+02 -0.27694972050E+02  0.82479230670E+02  0.41800000000E+01 0.  1.
        -11    1    4    4    0    0 -0.30436541860E+02  0.52254057377E+01 -0.19577306771E+02  0.36564448388E+02  0.00000000000E+00 0. -1.
         11    1    4    4    0    0  0.83587348189E+02  0.10391893557E+02 -0.33745339510E+02  0.90739099443E+02  0.00000000000E+00 0.  1.
</event>
<event>
 8    1  0.6906553E-009  0.1659903E+03  0.7561462E-02  0.1182095E+00
          1   -1    0    0  501    0  0.00000000000E+00  0.00000000000E+00  0.78544581294E+02  0.78544581294E+02  0.00000000000E+00 0. -1.
         -1   -1    0    0    0  501 -0.00000000000E+00 -0.00000000000E+00 -0.44970162194E+03  0.44970162194E+03  0.00000000000E+00 0.  1.
         25    2    1    2    0    0  0.32170893092E+01  0.13054754345E+03 -0.81803804989E+02  0.19847426841E+03  0.12508861637E+03 0.  0.
         23    2    1    2    0    0 -0.32170893092E+01 -0.13054754345E+03 -0.28935323566E+03  0.32977193482E+03  0.89281707237E+02 0.  0.
          5    1    3    3  502    0  0.46399273491E+02  0.12875681046E+03 -0.55777254894E+02  0.14785054408E+03  0.41800000000E+01 0.  1.
         -5    1    3    3    0  502 -0.43182184181E+02  0.17907329882E+01 -0.26026550096E+02  0.50623724332E+02  0.41800000000E+01 0.  1.
        -11    1    4    4    0    0 -0.37662580595E+02 -0.40914669837E+02 -0.63827210691E+02  0.84654551027E+02  0.00000000000E+00 0.  1.
         11    1    4    4    0    0  0.34445491286E+02 -0.89632873615E+02 -0.22552602497E+03  0.24511738380E+03  0.00000000000E+00 0. -1.
</event>
<event>
 8    1  0.6906553E-009  0.8095518E+02  0.7561462E-02  0.1326362E+00
          2   -1    0    0  501    0  0.00000000000E+00  0.00000000000E+00  0.21506539072E+03  0.21506539072E+03  0.00000000000E+00 0. -1.
         -2   -1    0    0    0  501 -0.00000000000E+00 -0.00000000000E+00 -0.60191478056E+02  0.60191478056E+02  0.00000000000E+00 0.  1.
         25    2    1    2    0    0 -0.41584812811E+02  0.52860878033E+01  0.78614431440E+02  0.15358111183E+03  0.12509871982E+03 0.  0.
         23    2    1    2    0    0  0.41584812811E+02 -0.52860878033E+01  0.76259481223E+02  0.12167575694E+03  0.85042589153E+02 0.  0.
          5    1    3    3  502    0  0.20497216335E+02  0.15216190351E+02 -0.22604215572E+02  0.34352456795E+02  0.41800000000E+01 0.  1.
         -5    1    3    3    0  502 -0.62082029147E+02 -0.99301025473E+01  0.10121864701E+03  0.11922865504E+03  0.41800000000E+01 0.  1.
        -11    1    4    4    0    0  0.52046968327E+02 -0.19329584658E+02  0.85446500133E+02  0.10190006938E+03  0.00000000000E+00 0. -1.
         11    1    4    4    0    0 -0.10462155516E+02  0.14043496855E+02 -0.91870189104E+01  0.19775687558E+02  0.00000000000E+00 0.  1.
</event>
<event>
 8    1  0.6906553E-009  0.2763896E+03  0.7561462E-02  0.1097677E+00
         -1   -1    0    0    0  501 -0.00000000000E+00  0.00000000000E+00  0.14818063935E+03  0.14818063935E+03  0.00000000000E+00 0.  1.
          1   -1    0    0  501    0  0.00000000000E+00 -0.00000000000E+00 -0.62790875236E+03  0.62790875236E+03  0.00000000000E+00 0. -1.
         25    2    1    2    0    0 -0.17068908615E+02 -0.27238621434E+03 -0.14072109258E+03  0.33155928022E+03  0.12507411004E+03 0.  0.
         23    2    1    2    0    0  0.17068908615E+02  0.27238621434E+03 -0.33900702043E+03  0.44453011149E+03  0.90529899523E+02 0.  0.
          5    1    3    3  502    0  0.26081447083E+01 -0.26945466004E+02 -0.70264216891E+02  0.75414807115E+02  0.41800000000E+01 0. -1.
         -5    1    3    3    0  502 -0.19677053324E+02 -0.24544074834E+03 -0.70456875684E+02  0.25614447311E+03  0.41800000000E+01 0. -1.
        -11    1    4    4    0    0  0.27458748446E+02  0.26489522002E+03 -0.28936701808E+03  0.39326420077E+03  0.00000000000E+00 0.  1.
         11    1    4    4    0    0 -0.10389839831E+02  0.74909943256E+01 -0.49640002356E+02  0.51265910717E+02  0.00000000000E+00 0. -1.
</event>
<event>
 8    1  0.6906553E-009  0.1202460E+03  0.7561462E-02  0.1242692E+00
         -1   -1    0    0    0  501 -0.00000000000E+00  0.00000000000E+00  0.37465425934E+02  0.37465425934E+02  0.00000000000E+00 0.  1.
          1   -1    0    0  501    0  0.00000000000E+00 -0.00000000000E+00 -0.59169305371E+03  0.59169305371E+03  0.00000000000E+00 0. -1.
         25    2    1    2    0    0  0.16422622991E+02  0.81859305886E+02 -0.17672271735E+03  0.23205526957E+03  0.12509228912E+03 0.  0.
         23    2    1    2    0    0 -0.16422622991E+02 -0.81859305886E+02 -0.37750491042E+03  0.39710321008E+03  0.90611001289E+02 0.  0.
          5    1    3    3  502    0  0.14293897295E+02  0.10135557369E+03 -0.18410419493E+03  0.21068719659E+03  0.41800000000E+01 0. -1.
         -5    1    3    3    0  502  0.21287256956E+01 -0.19496267802E+02  0.73814775778E+01  0.21368072971E+02  0.41800000000E+01 0. -1.
        -11    1    4    4    0    0 -0.46158818926E+02 -0.21949433436E+02 -0.10892617127E+03  0.12032175606E+03  0.00000000000E+00 0.  1.
         11    1    4    4    0    0  0.29736195936E+02 -0.59909872450E+02 -0.26857873915E+03  0.27678145402E+03  0.00000000000E+00 0. -1.
</event>
<event>
 8    1  0.6906553E-009  0.8839571E+02  0.7561462E-02  0.1306784E+00
          1   -1    0    0  501    0  0.00000000000E+00  0.00000000000E+00  0.22735302612E+03  0.22735302612E+03  0.00000000000E+00 0. -1.
         -1   -1    0    0    0  501 -0.00000000000E+00 -0.00000000000E+00 -0.77766335336E+02  0.77766335336E+02  0.00000000000E+00 0.  1.
         25    2    1    2    0    0 -0.41343746378E+02  0.50817623304E+02  0.36773311156E+02  0.14591590866E+03  0.12508972693E+03 0.  0.
         23    2    1    2    0    0  0.41343746378E+02 -0.50817623304E+02  0.11281337963E+03  0.15920345280E+03  0.91253189300E+02 0.  0.
          5    1    3    3  502    0 -0.20947963033E+02  0.72771939962E+02 -0.22718799426E+02  0.79171893046E+02  0.41800000000E+01 0.  1.
         -5    1    3    3    0  502 -0.20395783344E+02 -0.21954316658E+02  0.59492110583E+02  0.66744015610E+02  0.41800000000E+01 0.  1.
        -11    1    4    4    0    0  0.18373233487E+02 -0.42432681349E+02  0.12397944832E+03  0.13232162243E+03  0.00000000000E+00 0. -1.
         11    1    4    4    0    0  0.22970512891E+02 -0.83849419557E+01 -0.11166068696E+02  0.26881830373E+02  0.00000000000E+00 0.  1.
</event>
<event>
 8    1  0.6906553E-009  0.1502128E+03  0.7561462E-02  0.1200212E+00
         -1   -1    0    0    0  501 -0.00000000000E+00  0.00000000000E+00  0.17548678527E+02  0.17548678527E+02  0.00000000000E+00 0.  1.
          1   -1    0    0  501    0  0.00000000000E+00 -0.00000000000E+00 -0.14056241977E+04  0.14056241977E+04  0.00000000000E+00 0. -1.
         25    2    1    2    0    0 -0.10884918398E+03 -0.83252326913E+01 -0.87521468670E+03  0.89082282085E+03  0.12508835268E+03 0.  0.
         23    2    1    2    0    0  0.10884918398E+03  0.83252326913E+01 -0.51286083248E+03  0.53235005538E+03  0.91939619461E+02 0.  0.
          5    1    3    3  502    0 -0.12599405577E+03  0.17020908280E+02 -0.56855135502E+03  0.58260821235E+03  0.41800000000E+01 0.  1.
         -5    1    3    3    0  502  0.17144871794E+02 -0.25346140971E+02 -0.30666333169E+03  0.30821460850E+03  0.41800000000E+01 0.  1.
        -11    1    4    4    0    0  0.53383757561E+02 -0.41623386883E+02 -0.22432029079E+03  0.23431159760E+03  0.00000000000E+00 0.  1.
         11    1    4    4    0    0  0.55465426416E+02  0.49948619574E+02 -0.28854054168E+03  0.29803845779E+03  0.00000000000E+00 0. -1.
</event>
<event>
 8    1  0.6906553E-009  0.2060293E+03  0.7561462E-02  0.1144749E+00
          2   -1    0    0  501    0  0.00000000000E+00  0.00000000000E+00  0.58956285193E+03  0.58956285193E+03  0.00000000000E+00 0. -1.
         -2   -1    0    0    0  501 -0.00000000000E+00 -0.00000000000E+00 -0.78770116974E+02  0.78770116974E+02  0.00000000000E+00 0.  1.
         25    2    1    2    0    0  0.23157982547E+02 -0.17575256631E+03  0.35278239244E+03  0.41416097388E+03  0.12509452085E+03 0.  0.
         23    2    1    2    0    0 -0.23157982547E+02  0.17575256631E+03  0.15801034251E+03  0.25417199503E+03  0.90613895150E+02 0.  0.
          5    1    3    3  502    0  0.23149417386E+02 -0.19365599235E+03  0.29622439138E+03  0.35468986643E+03  0.41800000000E+01 0.  1.
         -5    1    3    3    0  502  0.85651610691E-02  0.17903426040E+02  0.56558001062E+02  0.59471107451E+02  0.41800000000E+01 0.  1.
        -11    1    4    4    0    0 -0.15983214305E+02  0.18566831530E+03  0.14359039389E+03  0.23525812986E+03  0.00000000000E+00 0.  1.
         11    1    4    4    0    0 -0.71747682423E+01 -0.99157489911E+01  0.14419948619E+02  0.18913865167E+02  0.00000000000E+00 0. -1.
</event>
<event>
 8    1  0.6906553E-009  0.7904854E+02  0.7561462E-02  0.1331773E+00
          2   -1    0    0  501    0  0.00000000000E+00  0.00000000000E+00  0.17295485664E+03  0.17295485664E+03  0.00000000000E+00 0.  1.
         -2   -1    0    0    0  501 -0.00000000000E+00 -0.00000000000E+00 -0.86846076698E+02  0.86846076698E+02  0.00000000000E+00 0. -1.
         25    2    1    2    0    0 -0.33121790716E+02  0.36852720878E+02  0.82165734588E+02  0.15764943679E+03  0.12508781285E+03 0.  0.
         23    2    1    2    0    0  0.33121790716E+02 -0.36852720878E+02  0.39430453535E+01  0.10215149655E+03  0.89242392304E+02 0.  0.
          5    1    3    3  502    0 -0.36409310274E+01  0.24069758510E+02  0.11134036674E+03  0.11404718024E+03  0.41800000000E+01 0.  1.
         -5    1    3    3    0  502 -0.29480859689E+02  0.12782962368E+02 -0.29174632157E+02  0.43602256551E+02  0.41800000000E+01 0.  1.
        -11    1    4    4    0    0 -0.21568605307E+02  0.14486415016E+02 -0.54701722939E+01  0.26551529896E+02  0.00000000000E+00 0.  1.
         11    1    4    4    0    0  0.54690396023E+02 -0.51339135893E+02  0.94132176474E+01  0.75599966653E+02  0.00000000000E+00 0. -1.
</event>
<event>
 8    1  0.6906553E-009  0.1243881E+03  0.7561462E-02  0.1236029E+00
         -2   -1    0    0    0  501 -0.00000000000E+00  0.00000000000E+00  0.63744883102E+02  0.63744883102E+02  0.00000000000E+00 0.  1.
          2   -1    0    0  501    0  0.00000000000E+00 -0.00000000000E+00 -0.36187596826E+03  0.36187596826E+03  0.00000000000E+00 0. -1.
         25    2    1    2    0    0 -0.47510339995E+02 -0.62831678671E+02 -0.61808670505E+02  0.16022746073E+03  0.12508986838E+03 0.  0.
         23    2    1    2    0    0  0.47510339995E+02  0.62831678671E+02 -0.23632241466E+03  0.26539339064E+03  0.91544065199E+02 0.  0.
          5    1    3    3  502    0 -0.52124437857E+02 -0.93748040145E+02 -0.22234901777E+02  0.10962442844E+03  0.41800000000E+01 0.  1.
         -5    1    3    3    0  502  0.46140978621E+01  0.30916361474E+02 -0.39573768728E+02  0.50603032293E+02  0.41800000000E+01 0.  1.
        -11    1    4    4    0    0 -0.18517227343E+02  0.32113980205E+02 -0.33763077481E+02  0.50141208941E+02  0.00000000000E+00 0.  1.
         11    1    4    4    0    0  0.66027567338E+02  0.30717698466E+02 -0.20255933718E+03  0.21525218169E+03  0.00000000000E+00 0. -1.
</event>
<event>
 8    1  0.6906553E-009  0.8564590E+02  0.7561462E-02  0.1313752E+00
         -2   -1    0    0    0  501 -0.00000000000E+00  0.00000000000E+00  0.79808537964E+02  0.79808537964E+02  0.00000000000E+00 0.  1.
          2   -1    0    0  501    0  0.00000000000E+00 -0.00000000000E+00 -0.17685715853E+03  0.17685715853E+03  0.00000000000E+00 0. -1.
         25    2    1    2    0    0 -0.38185341094E+02  0.31389510420E+02 -0.62437537447E+02  0.14827818762E+03  0.12507818835E+03 0.  0.
         23    2    1    2    0    0  0.38185341094E+02 -0.31389510420E+02 -0.34611083114E+02  0.10838750887E+03  0.90036122566E+02 0.  0.
          5    1    3    3  502    0 -0.35370894864E+02 -0.94218976179E+01  0.29737698975E+02  0.47346335640E+02  0.41800000000E+01 0. -1.
         -5    1    3    3    0  502 -0.28144462299E+01  0.40811408038E+02 -0.92175236423E+02  0.10093185198E+03  0.41800000000E+01 0. -1.
        -11    1    4    4    0    0 -0.58218065037E+01  0.22793656269E+02  0.99829811100E+01  0.25555901645E+02  0.00000000000E+00 0.  1.
         11    1    4    4    0    0  0.44007147597E+02 -0.54183166688E+02 -0.44594064224E+02  0.82831607228E+02  0.00000000000E+00 0. -1.
</event>
<event>
 8    1  0.6906553E-009  0.1114144E+03  0.7561462E-02  0.1257973E+00
          1   -1    0    0  501    0  0.00000000000E+00  0.00000000000E+00  0.24062864384E+03  0.24062864384E+03  0.00000000000E+00 0. -1.
         -1   -1    0    0    0  501 -0.00000000000E+00 -0.00000000000E+00 -0.97183647513E+02  0.97183647513E+02  0.00000000000E+00 0.  1.
         25    2    1    2    0    0  0.20859307716E+02  0.57185388606E+02 -0.22093560812E+02  0.14085780749E+03  0.12509003602E+03 0.  0.
         23    2    1    2    0    0 -0.20859307716E+02 -0.57185388606E+02  0.16553855714E+03  0.19695448387E+03  0.87651442818E+02 0.  0.
          5    1    3    3  502    0  0.16721067734E+02  0.88075703710E+02 -0.46476524503E+02  0.10106662862E+03  0.41800000000E+01 0. -1.
         -5    1    3    3    0  502  0.41382399826E+01 -0.30890315104E+02  0.24382963690E+02  0.39791178868E+02  0.41800000000E+01 0. -1.
        -11    1    4    4    0    0  0.31081171411E+02 -0.13999441065E+02  0.86553261226E+02  0.93024139852E+02  0.00000000000E+00 0. -1.
         11    1    4    4    0    0 -0.51940479128E+02 -0.43185947540E+02  0.78985295918E+02  0.10393034402E+03  0.00000000000E+00 0.  1.
</event>
<event>
 8    1  0.6906553E-009  0.7431156E+02  0.7561462E-02  0.1346016E+00
         -1   -1    0    0    0  501 -0.00000000000E+00  0.00000000000E+00  0.13788998978E+04  0.13788998978E+04  0.00000000000E+00 0.  1.
          1   -1    0    0  501    0  0.00000000000E+00 -0.00000000000E+00 -0.11644789999E+02  0.11644789999E+02  0.00000000000E+00 0. -1.
         25    2    1    2    0    0 -0.51721310797E+02 -0.47939480240E+01  0.98356796272E+03  0.99285033289E+03  0.12509104806E+03 0.  0.
         23    2    1    2    0    0  0.51721310797E+02  0.47939480240E+01  0.38368714507E+03  0.39769435490E+03  0.90812436907E+02 0.  0.
          5    1    3    3  502    0 -0.52122452941E+02 -0.15277227623E+02  0.97924356514E+03  0.98075765409E+03  0.41800000000E+01 0. -1.
         -5    1    3    3    0  502  0.40114214375E+00  0.10483279599E+02  0.43243975774E+01  0.12092678801E+02  0.41800000000E+01 0. -1.
        -11    1    4    4    0    0 -0.10249578566E+02  0.16849106852E+02  0.18336044816E+02  0.26928735618E+02  0.00000000000E+00 0. -1.
         11    1    4    4    0    0  0.61970889363E+02 -0.12055158828E+02  0.36535110026E+03  0.37076561928E+03  0.00000000000E+00 0.  1.
</event>
<event>
 8    1  0.6906553E-009  0.1955424E+03  0.7561462E-02  0.1153555E+00
         -1   -1    0    0    0  501 -0.00000000000E+00  0.00000000000E+00  0.67743757507E+02  0.67743757507E+02  0.00000000000E+00 0.  1.
          1   -1    0    0  501    0  0.00000000000E+00 -0.00000000000E+00 -0.68328587564E+03  0.68328587564E+03  0.00000000000E+00 0. -1.
         25    2    1    2    0    0  0.17680389556E+03  0.52575552784E+02 -0.32107900936E+03  0.39084865569E+03  0.12508850933E+03 0.  0.
         23    2    1    2    0    0 -0.17680389556E+03 -0.52575552784E+02 -0.29446310878E+03  0.36018097746E+03  0.94857829730E+02 0.  0.
          5    1    3    3  502    0  0.12920114472E+03  0.50525732225E+02 -0.31293212698E+03  0.34232991968E+03  0.41800000000E+01 0. -1.
         -5    1    3    3    0  502  0.47602750831E+02  0.20498205590E+01 -0.81468823819E+01  0.48518736006E+02  0.41800000000E+01 0. -1.
        -11    1    4    4    0    0 -0.52468653134E+00 -0.26218805636E+02 -0.61468808520E+02  0.66829001831E+02  0.00000000000E+00 0. -1.
         11    1    4    4    0    0 -0.17627920902E+03 -0.26356747148E+02 -0.23299430026E+03  0.29335197563E+03  0.00000000000E+00 0.  1.
</event>
<event>
 8    1  0.6906553E-009  0.6701320E+02  0.7561462E-02  0.1370555E+00
         -4   -1    0    0    0  501 -0.00000000000E+00  0.00000000000E+00  0.48133941254E+02  0.48133941254E+02  0.00000000000E+00 0. -1.
          4   -1    0    0  501    0  0.00000000000E+00 -0.00000000000E+00 -0.29820146278E+03  0.29820146278E+03  0.00000000000E+00 0.  1.
         25    2    1    2    0    0 -0.56136629948E+01  0.47916636137E+02 -0.12093752977E+03  0.18055931102E+03  0.12509301122E+03 0.  0.
         23    2    1    2    0    0  0.56136629948E+01 -0.47916636137E+02 -0.12912999175E+03  0.16577609302E+03  0.92084966279E+02 0.  0.
          5    1    3    3  502    0  0.12530200817E+02  0.61369599575E+02 -0.56760037899E+01  0.63031128052E+02  0.41800000000E+01 0. -1.
         -5    1    3    3    0  502 -0.18143863811E+02 -0.13452963438E+02 -0.11526152598E+03  0.11752818297E+03  0.41800000000E+01 0. -1.
        -11    1    4    4    0    0  0.18671566369E+01 -0.23977525734E+02 -0.13791947107E+03  0.14000067326E+03  0.00000000000E+00 0.  1.
         11    1    4    4    0    0  0.37465063580E+01 -0.23939110403E+02  0.87894793162E+01  0.25775419753E+02  0.00000000000E+00 0. -1.
</event>
<event>
 8    1  0.6906553E-009  0.1102800E+03  0.7561462E-02  0.1260052E+00
         -2   -1    0    0    0  501 -0.00000000000E+00  0.00000000000E+00  0.11327498129E+03  0.11327498129E+03  0.00000000000E+00 0. -1.
          2   -1    0    0  501    0  0.00000000000E+00 -0.00000000000E+00 -0.16043355891E+03  0.16043355891E+03  0.00000000000E+00 0.  1.
         25    2    1    2    0    0 -0.18083528989E+02 -0.28504534042E+02  0.49086808049E+02  0.13854426890E+03  0.12508188214E+03 0.  0.
         23    2    1    2    0    0  0.18083528989E+02  0.28504534042E+02 -0.96245385677E+02  0.13516427130E+03  0.88694326140E+02 0.  0.
          5    1    3    3  502    0 -0.68113080118E+02 -0.31923722748E+02  0.45686658702E+02  0.88109357849E+02  0.41800000000E+01 0.  1.
         -5    1    3    3    0  502  0.50029551129E+02  0.34191887060E+01  0.34001493469E+01  0.50434911055E+02  0.41800000000E+01 0.  1.
        -11    1    4    4    0    0 -0.18786480447E+02 -0.24165024241E+02 -0.30861800819E+02  0.43466435257E+02  0.00000000000E+00 0.  1.
         11    1    4    4    0    0  0.36870009436E+02  0.52669558283E+02 -0.65383584858E+02  0.91697836040E+02  0.00000000000E+00 0. -1.
</event>
<event>
 8    1  0.6906553E-009  0.1183409E+03  0.7561462E-02  0.1245859E+00
         -1   -1    0    0    0  501 -0.00000000000E+00  0.00000000000E+00  0.60162140031E+02  0.60162140031E+02  0.00000000000E+00 0.  1.
          1   -1    0    0  501    0  0.00000000000E+00 -0.00000000000E+00 -0.36113848335E+03  0.36113848335E+03  0.00000000000E+00 0. -1.
         25    2    1    2    0    0  0.57642510134E+02 -0.55707900118E+02 -0.24389438925E+03  0.28558502307E+03  0.12509317800E+03 0.  0.
         23    2    1    2    0    0 -0.57642510134E+02  0.55707900118E+02 -0.57081954070E+02  0.13571560032E+03  0.93457720809E+02 0.  0.
          5    1    3    3  502    0 -0.32649958318E+02 -0.14836063318E+02 -0.21382953078E+02  0.41962264421E+02  0.41800000000E+01 0.  1.
         -5    1    3    3    0  502  0.90292468452E+02 -0.40871836799E+02 -0.22251143617E+03  0.24362275865E+03  0.41800000000E+01 0.  1.
        -11    1    4    4    0    0 -0.19269482633E+02  0.59759692754E+02  0.46008737942E+01  0.62957937376E+02  0.00000000000E+00 0.  1.
         11    1    4    4    0    0 -0.38373027502E+02 -0.40517926367E+01 -0.61682827864E+02  0.72757662940E+02  0.00000000000E+00 0. -1.
</event>
<event>
 8    1  0.6906553E-009  0.9129859E+02  0.7561462E-02  0.1299737E+00
         -2   -1    0    0    0  501 -0.00000000000E+00  0.00000000000E+00  0.22041900240E+02  0.22041900240E+02  0.00000000000E+00 0.  1.
          2   -1    0    0  501    0  0.00000000000E+00 -0.00000000000E+00 -0.57119599033E+03  0.57119599033E+03  0.00000000000E+00 0. -1.
         25    2    1    2    0    0 -0.18690319892E+02 -0.22856926969E+02 -0.33611185311E+03  0.35984743456E+03  0.12508889314E+03 0.  0.
         23    2    1    2    0    0  0.18690319892E+02  0.22856926969E+02 -0.21304223698E+03  0.23339045601E+03  0.90621978864E+02 0.  0.
          5    1    3    3  502    0  0.93555382567E+01  0.44666897396E+02 -0.68653785322E+02  0.82543760867E+02  0.41800000000E+01 0.  1.
         -5    1    3    3    0  502 -0.28045858148E+02 -0.67523824364E+02 -0.26745806779E+03  0.27730367369E+03  0.41800000000E+01 0.  1.
        -11    1    4    4    0    0  0.29672568306E+02  0.35839885085E+02 -0.21122460593E+03  0.21628867937E+03  0.00000000000E+00 0. -1.
         11    1    4    4    0    0 -0.10982248414E+02 -0.12982958116E+02 -0.18176310456E+01  0.17101776642E+02  0.00000000000E+00 0.  1.
</event>
<event>
 8    1  0.6906553E-009  0.1464950E+03  0.7561462E-02  0.1204847E+00
         -1   -1    0    0    0  501 -0.00000000000E+00  0.00000000000E+00  0.75798839818E+02  0.75798839818E+02  0.00000000000E+00 0.  1.
          1   -1    0    0  501    0  0.00000000000E+00 -0.00000000000E+00 -0.39699859901E+03  0.39699859901E+03  0.00000000000E+00 0. -1.
         25    2    1    2    0    0  0.10155763904E+03 -0.56642197926E+02 -0.76617913326E+02  0.18719030196E+03  0.12509041479E+03 0.  0.
         23    2    1    2    0    0 -0.10155763904E+03  0.56642197926E+02 -0.24458184586E+03  0.28560713687E+03  0.90713089861E+02 0.  0.
          5    1    3    3  502    0  0.88010694389E+02 -0.93382326188E+02 -0.42957804854E+02  0.13538458763E+03  0.41800000000E+01 0. -1.
         -5    1    3    3    0  502  0.13546944648E+02  0.36740128262E+02 -0.33660108472E+02  0.51805714321E+02  0.41800000000E+01 0. -1.
        -11    1    4    4    0    0 -0.21456593286E+02  0.36960573537E+02 -0.21655838277E+02  0.47910799650E+02  0.00000000000E+00 0.  1.
         11    1    4    4    0    0 -0.80101045752E+02  0.19681624389E+02 -0.22292600758E+03  0.23769633722E+03  0.00000000000E+00 0. -1.
</event>
<event>
 8    1  0.6906553E-009  0.1059605E+03  0.7561462E-02  0.1268239E+00
         -4   -1    0    0    0  501 -0.00000000000E+00  0.00000000000E+00  0.18911534295E+03  0.18911534295E+03  0.00000000000E+00 0.  1.
          4   -1    0    0  501    0  0.00000000000E+00 -0.00000000000E+00 -0.79775548144E+02  0.79775548144E+02  0.00000000000E+00 0. -1.
         25    2    1    2    0    0 -0.11721811982E+02 -0.57215231278E+02  0.61648726025E+02  0.15119289163E+03  0.12509093290E+03 0.  0.
         23    2    1    2    0    0  0.11721811982E+02  0.57215231278E+02  0.47691068777E+02  0.11769799946E+03  0.90373654728E+02 0.  0.
          5    1    3    3  502    0 -0.49305303258E+02 -0.35982446743E+02  0.82791738447E+02  0.10294510070E+03  0.41800000000E+01 0. -1.
         -5    1    3    3    0  502  0.37583491276E+02 -0.21232784535E+02 -0.21143012422E+02  0.48247790933E+02  0.41800000000E+01 0. -1.
        -11    1    4    4    0    0  0.46219370904E+02  0.56325642005E+02  0.35937311129E+02  0.81242221321E+02  0.00000000000E+00 0.  1.
         11    1    4    4    0    0 -0.34497558922E+02  0.88958927345E+00  0.11753757647E+02  0.36455778136E+02  0.00000000000E+00 0. -1.
</event>
<event>
 8    1  0.6906553E-009  0.6626997E+02  0.7561462E-02  0.1373257E+00
          2   -1    0    0  501    0  0.00000000000E+00  0.00000000000E+00  0.16559216274E+03  0.16559216274E+03  0.00000000000E+00 0. -1.
         -2   -1    0    0    0  501 -0.00000000000E+00 -0.00000000000E+00 -0.11793463256E+03  0.11793463256E+03  0.00000000000E+00 0.  1.
         25    2    1    2    0    0 -0.19895828703E+02 -0.10908929885E+00 -0.60453437425E+02  0.14034811280E+03  0.12508844379E+03 0.  0.
         23    2    1    2    0    0  0.19895828703E+02  0.10908929885E+00  0.10811096760E+03  0.14317868249E+03  0.91740383162E+02 0.  0.
          5    1    3    3  502    0 -0.37388141024E+02 -0.23010122000E+02  0.24565763685E+02  0.50480570016E+02  0.41800000000E+01 0. -1.
         -5    1    3    3    0  502  0.17492312320E+02  0.22901032702E+02 -0.85019201110E+02  0.89867542787E+02  0.41800000000E+01 0. -1.
        -11    1    4    4    0    0  0.34419520273E+02  0.15858504948E+02  0.11467259181E+03  0.12077250874E+03  0.00000000000E+00 0. -1.
         11    1    4    4    0    0 -0.14523691570E+02 -0.15749415650E+02 -0.65616242007E+01  0.22406173754E+02  0.00000000000E+00 0.  1.
</event>
<event>
 8    1  0.6906553E-009  0.1140089E+03  0.7561462E-02  0.1253321E+00
          3   -1    0    0  501    0  0.00000000000E+00  0.00000000000E+00  0.63652128375E+03  0.63652128375E+03  0.00000000000E+00 0. -1.
         -3   -1    0    0    0  501 -0.00000000000E+00 -0.00000000000E+00 -0.50658007959E+02  0.50658007959E+02  0.00000000000E+00 0.  1.
         25    2    1    2    0    0  0.67914346505E+02  0.65487624329E+02  0.10513686593E+03  0.18868706359E+03  0.12509220594E+03 0.  0.
         23    2    1    2    0    0 -0.67914346505E+02 -0.65487624329E+02  0.48072640985E+03  0.49849222811E+03  0.92171757919E+02 0.  0.
          5    1    3    3  502    0  0.37879007263E+01  0.75986077484E+00 -0.27296138801E+02  0.27883277672E+02  0.41800000000E+01 0.  1.
         -5    1    3    3    0  502  0.64126445778E+02  0.64727763554E+02  0.13243300473E+03  0.16080378592E+03  0.41800000000E+01 0.  1.
        -11    1    4    4    0    0 -0.67226683466E+02 -0.16223051550E+01  0.21940693018E+03  0.22948084855E+03  0.00000000000E+00 0.  1.
         11    1    4    4    0    0 -0.68766303850E+00 -0.63865319174E+02  0.26131947968E+03  0.26901137956E+03  0.00000000000E+00 0. -1.
</event>
<event>
 8    1  0.6906553E-009  0.1082933E+03  0.7561462E-02  0.1263763E+00
         -4   -1    0    0    0  501 -0.00000000000E+00  0.00000000000E+00  0.14793148100E+03  0.14793148100E+03  0.00000000000E+00 0.  1.
          4   -1    0    0  501    0  0.00000000000E+00 -0.00000000000E+00 -0.12601396843E+03  0.12601396843E+03  0.00000000000E+00 0. -1.
         25    2    1    2    0    0 -0.44212812396E+02  0.14398397456E+02 -0.56780527912E+02  0.14502912604E+03  0.12508929778E+03 0.  0.
         23    2    1    2    0    0  0.44212812396E+02 -0.14398397456E+02  0.78698040479E+02  0.12891632339E+03  0.90906271687E+02 0.  0.
          5    1    3    3  502    0  0.15342248730E+00  0.56480358996E+02  0.64096726936E+01  0.56996585818E+02  0.41800000000E+01 0.  1.
         -5    1    3    3    0  502 -0.44366234883E+02 -0.42081961540E+02 -0.63190200605E+02  0.88032540219E+02  0.41800000000E+01 0.  1.
        -11    1    4    4    0    0  0.19328831560E+02  0.36893435771E+02  0.17208464631E+02  0.45065070591E+02  0.00000000000E+00 0.  1.
         11    1    4    4    0    0  0.24883980836E+02 -0.51291833227E+02  0.61489575848E+02  0.83851252799E+02  0.00000000000E+00 0. -1.
</event>
<event>
 8    1  0.6906553E-009  0.1277182E+03  0.7561462E-02  0.1230881E+00
         -2   -1    0    0    0  501 -0.00000000000E+00  0.00000000000E+00  0.12507402734E+03  0.12507402734E+03  0.00000000000E+00 0.  1.
          2   -1    0    0  501    0  0.00000000000E+00 -0.00000000000E+00 -0.15859860383E+03  0.15859860383E+03  0.00000000000E+00 0. -1.
         25    2    1    2    0    0 -0.82202009375E+02  0.17139313023E+02  0.12941860484E+02  0.15121531698E+03  0.12509058294E+03 0.  0.
         23    2    1    2    0    0  0.82202009375E+02 -0.17139313023E+02 -0.46466436972E+02  0.13245731419E+03  0.91295585440E+02 0.  0.
          5    1    3    3  502    0 -0.96231115882E+02 -0.30326706395E+02  0.80822984496E+01  0.10130613374E+03  0.41800000000E+01 0. -1.
         -5    1    3    3    0  502  0.14029106507E+02  0.47466019418E+02  0.48595620344E+01  0.49909183242E+02  0.41800000000E+01 0. -1.
        -11    1    4    4    0    0  0.92767755906E+02 -0.14539705713E+02 -0.62703626492E+02  0.11291148902E+03  0.00000000000E+00 0. -1.
         11    1    4    4    0    0 -0.10565746531E+02 -0.25996073095E+01  0.16237189519E+02  0.19545825166E+02  0.00000000000E+00 0.  1.
</event>
<event>
 8    1  0.6906553E-009  0.1575501E+03  0.7561462E-02  0.1191491E+00
         -2   -1    0    0    0  501 -0.00000000000E+00  0.00000000000E+00  0.17904531503E+02  0.17904531503E+02  0.00000000000E+00 0.  1.
          2   -1    0    0  501    0  0.00000000000E+00 -0.00000000000E+00 -0.15805727686E+04  0.15805727686E+04  0.00000000000E+00 0. -1.
         25    2    1    2    0    0  0.12161618556E+02 -0.12544590676E+03 -0.93923471252E+03  0.95587325249E+03  0.12508896485E+03 0.  0.
         23    2    1    2    0    0 -0.12161618556E+02  0.12544590676E+03 -0.62343352456E+03  0.64260404760E+03  0.91575225682E+02 0.  0.
          5    1    3    3  502    0 -0.43938078547E+02 -0.26459123188E+02 -0.47935271341E+03  0.48210697589E+03  0.41800000000E+01 0.  1.
         -5    1    3    3    0  502  0.56099697103E+02 -0.98986783567E+02 -0.45988199911E+03  0.47376627660E+03  0.41800000000E+01 0.  1.
        -11    1    4    4    0    0  0.34405871259E+02  0.64293795741E+02 -0.21581176931E+03  0.22779854240E+03  0.00000000000E+00 0.  1.
         11    1    4    4    0    0 -0.46567489814E+02  0.61152111015E+02 -0.40762175525E+03  0.41480550520E+03  0.00000000000E+00 0. -1.
</event>
<event>
 8    1  0.6906553E-009  0.1395477E+03  0.7561462E-02  0.1213939E+00
          2   -1    0    0  501    0  0.00000000000E+00  0.00000000000E+00  0.45827736382E+03  0.45827736382E+03  0.00000000000E+00 0. -1.
         -2   -1    0    0    0  501 -0.00000000000E+00 -0.00000000000E+00 -0.61087712167E+02  0.61087712167E+02  0.00000000000E+00 0.  1.
         25    2    1    2    0    0 -0.14607341606E+02 -0.11478090854E+03  0.13166344569E+03  0.21533838654E+03  0.12508927369E+03 0.  0.
         23    2    1    2    0    0  0.14607341606E+02  0.11478090854E+03  0.26552620597E+03  0.30402668945E+03  0.92412285159E+02 0.  0.
          5    1    3    3  502    0 -0.44794727366E+02 -0.71589292814E+02  0.13826315745E+03  0.16206716988E+03  0.41800000000E+01 0. -1.
         -5    1    3    3    0  502  0.30187385760E+02 -0.43191615728E+02 -0.65997117663E+01  0.53271216652E+02  0.41800000000E+01 0. -1.
        -11    1    4    4    0    0 -0.31338679043E+02  0.73552495302E+02  0.10452356641E+03  0.13159505426E+03  0.00000000000E+00 0.  1.
         11    1    4    4    0    0  0.45946020649E+02  0.41228413241E+02  0.16100263956E+03  0.17243163520E+03  0.00000000000E+00 0. -1.
</event>
<event>
 8    1  0.6906553E-009  0.9986741E+02  0.7561462E-02  0.1280575E+00
         -1   -1    0    0    0  501 -0.00000000000E+00  0.00000000000E+00  0.12347602802E+02  0.12347602802E+02  0.00000000000E+00 0.  1.
          1   -1    0    0  501    0  0.00000000000E+00 -0.00000000000E+00 -0.10206654208E+04  0.10206654208E+04  0.00000000000E+00 0. -1.
         25    2    1    2    0    0 -0.16020977797E+02 -0.12605158009E+02 -0.73433632828E+03  0.74519315533E+03  0.12508970376E+03 0.  0.
         23    2    1    2    0    0  0.16020977797E+02  0.12605158009E+02 -0.27398148967E+03  0.28781986822E+03  0.85783787065E+02 0.  0.
          5    1    3    3  502    0 -0.24470401238E+02  0.48822826786E+02 -0.49102563525E+03  0.49407096234E+03  0.41800000000E+01 0.  1.
         -5    1    3    3    0  502  0.84494234409E+01 -0.61427984795E+02 -0.24331069303E+03  0.25112219299E+03  0.41800000000E+01 0.  1.
        -11    1    4    4    0    0  0.44209442330E+02  0.26337966777E+02 -0.21442329355E+03  0.22051193188E+03  0.00000000000E+00 0. -1.
         11    1    4    4    0    0 -0.28188464533E+02 -0.13732808768E+02 -0.59558196127E+02  0.67307936347E+02  0.00000000000E+00 0.  1.
</event>
<event>
 8    1  0.6906553E-009  0.1002257E+03  0.7561462E-02  0.1279822E+00
          1   -1    0    0  501    0  0.00000000000E+00  0.00000000000E+00  0.40093897037E+02  0.40093897037E+02  0.00000000000E+00 0. -1.
         -1   -1    0    0    0  501 -0.00000000000E+00 -0.00000000000E+00 -0.61931733455E+03  0.61931733455E+03  0.00000000000E+00 0.  1.
         25    2    1    2    0    0  0.88208826405E+01  0.41072164200E+02 -0.52259043903E+03  0.53899253668E+03  0.12508979570E+03 0.  0.
         23    2    1    2    0    0 -0.88208826405E+01 -0.41072164200E+02 -0.56632998484E+02  0.12041869491E+03  0.97614726982E+02 0.  0.
          5    1    3    3  502    0  0.16105749095E+02 -0.34310853764E+02 -0.32690137787E+03  0.32911793189E+03  0.41800000000E+01 0. -1.
         -5    1    3    3    0  502 -0.72848664541E+01  0.75383017964E+02 -0.19568906116E+03  0.20987460478E+03  0.41800000000E+01 0. -1.
        -11    1    4    4    0    0 -0.33093313548E+02  0.58823905396E+01 -0.58566322610E+02  0.67526173178E+02  0.00000000000E+00 0.  1.
         11    1    4    4    0    0  0.24272430907E+02 -0.46954554739E+02  0.19333241260E+01  0.52892521731E+02  0.00000000000E+00 0. -1.
</event>
<event>
 8    1  0.6906553E-009  0.1010969E+03  0.7561462E-02  0.1278006E+00
          2   -1    0    0  501    0  0.00000000000E+00  0.00000000000E+00  0.89041396692E+02  0.89041396692E+02  0.00000000000E+00 0. -1.
         -2   -1    0    0    0  501 -0.00000000000E+00 -0.00000000000E+00 -0.15141820892E+03  0.15141820892E+03  0.00000000000E+00 0.  1.
         25    2    1    2    0    0 -0.19717239784E+02 -0.32969111196E+02 -0.25600884004E+02  0.13333193724E+03  0.12508504462E+03 0.  0.
         23    2    1    2    0    0  0.19717239784E+02  0.32969111196E+02 -0.36775928221E+02  0.10712766837E+03  0.92995357930E+02 0.  0.
          5    1    3    3  502    0  0.40721639199E+02 -0.52103509726E+02 -0.21520182332E+02  0.69667914225E+02  0.41800000000E+01 0.  1.
         -5    1    3    3    0  502 -0.60438878984E+02  0.19134398530E+02 -0.40807016725E+01  0.63664023012E+02  0.41800000000E+01 0.  1.
        -11    1    4    4    0    0  0.17195398810E+02 -0.15927314781E+02 -0.51011672247E+02  0.56138683648E+02  0.00000000000E+00 0.  1.
         11    1    4    4    0    0  0.25218409745E+01  0.48896425976E+02  0.14235744026E+02  0.50988984723E+02  0.00000000000E+00 0. -1.
</event>
<event>
 8    1  0.6906553E-009  0.9997250E+02  0.7561462E-02  0.1280354E+00
         -4   -1    0    0    0  501 -0.00000000000E+00  0.00000000000E+00  0.42118865347E+02  0.42118865347E+02  0.00000000000E+00 0.  1.
          4   -1    0    0  501    0  0.00000000000E+00 -0.00000000000E+00 -0.31910419685E+03  0.31910419685E+03  0.00000000000E+00 0. -1.
         25    2    1    2    0    0 -0.24060216662E+01  0.28462873863E+02 -0.19928126427E+03  0.23701370994E+03  0.12508617942E+03 0.  0.
         23    2    1    2    0    0  0.24060216662E+01 -0.28462873863E+02 -0.77704067234E+02  0.12420935226E+03  0.92596527986E+02 0.  0.
          5    1    3    3  502    0  0.31609973601E+02  0.52332703877E+02 -0.42027054969E+02  0.74307792831E+02  0.41800000000E+01 0. -1.
         -5    1    3    3    0  502 -0.34015995267E+02 -0.23869830014E+02 -0.15725420930E+03  0.16270591711E+03  0.41800000000E+01 0. -1.
        -11    1    4    4    0    0 -0.20771563520E+02 -0.56689731090E+02 -0.47902701801E+02  0.77070437276E+02  0.00000000000E+00 0.  1.
         11    1    4    4    0    0  0.23177585186E+02  0.28226857227E+02 -0.29801365433E+02  0.47138914982E+02  0.00000000000E+00 0. -1.
</event>
<event>
 8    1  0.6906553E-009  0.1441821E+03  0.7561462E-02  0.1207810E+00
         -2   -1    0    0    0  501 -0.00000000000E+00  0.00000000000E+00  0.18302774886E+02  0.18302774886E+02  0.00000000000E+00 0.  1.
          2   -1    0    0  501    0  0.00000000000E+00 -0.00000000000E+00 -0.19547575750E+04  0.19547575750E+04  0.00000000000E+00 0. -1.
         25    2    1    2    0    0  0.17534484513E+02  0.13995193694E+03 -0.13435204908E+04  0.13566832889E+04  0.12509290259E+03 0.  0.
         23    2    1    2    0    0 -0.17534484513E+02 -0.13995193694E+03 -0.59293430928E+03  0.61637706099E+03  0.91954246202E+02 0.  0.
          5    1    3    3  502    0  0.80343261838E+01  0.71660741568E+02 -0.11291668426E+04  0.11314747205E+04  0.41800000000E+01 0.  1.
         -5    1    3    3    0  502  0.95001583288E+01  0.68291195371E+02 -0.21435364829E+03  0.22520856846E+03  0.41800000000E+01 0.  1.
        -11    1    4    4    0    0 -0.30768177375E+02 -0.81196153393E+02 -0.48557994555E+03  0.49328225144E+03  0.00000000000E+00 0. -1.
         11    1    4    4    0    0  0.13233692863E+02 -0.58755783545E+02 -0.10735436374E+03  0.12309480956E+03  0.00000000000E+00 0.  1.
</event>
<event>
 8    1  0.6906553E-009  0.1584603E+03  0.7561462E-02  0.1190446E+00
          2   -1    0    0  501    0  0.00000000000E+00  0.00000000000E+00  0.20266035234E+03  0.20266035234E+03  0.00000000000E+00 0. -1.
         -2   -1    0    0    0  501 -0.00000000000E+00 -0.00000000000E+00 -0.14379614794E+03  0.14379614794E+03  0.00000000000E+00 0.  1.
         25    2    1    2    0    0  0.88175874335E+02  0.96548875283E+02  0.46707168971E+02  0.18688522562E+03  0.12509139774E+03 0.  0.
         23    2    1    2    0    0 -0.88175874335E+02 -0.96548875283E+02  0.12157035432E+02  0.15957127465E+03  0.90656097704E+02 0.  0.
          5    1    3    3  502    0  0.85086700786E+02  0.44113225189E+01  0.45409551704E+01  0.85424230116E+02  0.41800000000E+01 0. -1.
         -5    1    3    3    0  502  0.30891735492E+01  0.92137552764E+02  0.42166213801E+02  0.10146099550E+03  0.41800000000E+01 0. -1.
        -11    1    4    4    0    0 -0.29429121948E+02 -0.39807071304E+01 -0.29903375226E+02  0.42144170389E+02  0.00000000000E+00 0.  1.
         11    1    4    4    0    0 -0.58746752387E+02 -0.92568168152E+02  0.42060410659E+02  0.11742710426E+03  0.00000000000E+00 0. -1.
</event>
<event>
 8    1  0.6906553E-009  0.8840257E+02  0.7561462E-02  0.1306767E+00
          2   -1    0    0  501    0  0.00000000000E+00  0.00000000000E+00  0.77382266540E+03  0.77382266540E+03  0.00000000000E+00 0. -1.
         -2   -1    0    0    0  501 -0.00000000000E+00 -0.00000000000E+00 -0.19502839094E+02  0.19502839094E+02  0.00000000000E+00 0.  1.
         25    2    1    2    0    0 -0.53513257886E+02 -0.16158591487E+02  0.45621735277E+03  0.47634738787E+03  0.12509113525E+03 0.  0.
         23    2    1    2    0    0  0.53513257886E+02  0.16158591487E+02  0.29810247354E+03  0.31697811662E+03  0.92115540702E+02 0.  0.
          5    1    3    3  502    0 -0.65514197475E+02 -0.31818908813E+02  0.44906007178E+03  0.45494722056E+03  0.41800000000E+01 0.  1.
         -5    1    3    3    0  502  0.12000939589E+02  0.15660317326E+02  0.71572809854E+01  0.21400167310E+02  0.41800000000E+01 0.  1.
        -11    1    4    4    0    0 -0.12825272229E+02  0.11428072162E+02  0.72956390419E+01  0.18663193460E+02  0.00000000000E+00 0.  1.
         11    1    4    4    0    0  0.66338530115E+02  0.47305193247E+01  0.29080683450E+03  0.29831492316E+03  0.00000000000E+00 0. -1.
</event>
<event>
 8    1  0.6906553E-009  0.9685877E+02  0.7561462E-02  0.1287044E+00
          2   -1    0    0  501    0  0.00000000000E+00  0.00000000000E+00  0.30560365818E+03  0.30560365818E+03  0.00000000000E+00 0. -1.
         -2   -1    0    0    0  501 -0.00000000000E+00 -0.00000000000E+00 -0.52128046778E+02  0.52128046778E+02  0.00000000000E+00 0.  1.
         25    2    1    2    0    0  0.62607732261E+02 -0.10107182633E+02  0.16834734865E+03  0.21911283626E+03  0.12509085474E+03 0.  0.
         23    2    1    2    0    0 -0.62607732261E+02  0.10107182633E+02  0.85128262756E+02  0.13861886870E+03  0.89143066805E+02 0.  0.
          5    1    3    3  502    0  0.84415074941E+01  0.39623459365E+02  0.12968533896E+03  0.13593026566E+03  0.41800000000E+01 0.  1.
         -5    1    3    3    0  502  0.54166224766E+02 -0.49730641998E+02  0.38662009684E+02  0.83182570601E+02  0.41800000000E+01 0.  1.
        -11    1    4    4    0    0 -0.59259147000E+02  0.24821387981E+02  0.13801468491E+02  0.65713228021E+02  0.00000000000E+00 0.  1.
         11    1    4    4    0    0 -0.33485852605E+01 -0.14714205348E+02  0.71326794264E+02  0.72905640676E+02  0.00000000000E+00 0. -1.
</event>
<event>
 8    1  0.6906553E-009  0.1223541E+03  0.7561462E-02  0.1239263E+00
         -2   -1    0    0    0  501 -0.00000000000E+00  0.00000000000E+00  0.33583410906E+02  0.33583410906E+02  0.00000000000E+00 0.  1.
          2   -1    0    0  501    0  0.00000000000E+00 -0.00000000000E+00 -0.49386714639E+03  0.49386714639E+03  0.00000000000E+00 0. -1.
         25    2    1    2    0    0  0.43312580989E+02  0.51287740393E+02 -0.22786503339E+03  0.26847131714E+03  0.12509181708E+03 0.  0.
         23    2    1    2    0    0 -0.43312580989E+02 -0.51287740393E+02 -0.23241870210E+03  0.25897924016E+03  0.92441234092E+02 0.  0.
          5    1    3    3  502    0  0.12121884233E+02 -0.38597591437E+02 -0.10783164184E+03  0.11524690678E+03  0.41800000000E+01 0.  1.
         -5    1    3    3    0  502  0.31190696756E+02  0.89885331830E+02 -0.12003339155E+03  0.15322441036E+03  0.41800000000E+01 0.  1.
        -11    1    4    4    0    0  0.12939277436E+02 -0.50930554259E+02 -0.73149022783E+02  0.90067340317E+02  0.00000000000E+00 0.  1.
         11    1    4    4    0    0 -0.56251858424E+02 -0.35718613372E+00 -0.15926967932E+03  0.16891189984E+03  0.00000000000E+00 0. -1.
</event>
<event>
 8    1  0.6906553E-009  0.1819244E+03  0.7561462E-02  0.1165954E+00
         -1   -1    0    0    0  501 -0.00000000000E+00  0.00000000000E+00  0.58980776937E+02  0.58980776937E+02  0.00000000000E+00 0.  1.
          1   -1    0    0  501    0  0.00000000000E+00 -0.00000000000E+00 -0.73401544986E+03  0.73401544986E+03  0.00000000000E+00 0. -1.
         25    2    1    2    0    0 -0.15203565699E+03  0.91531422783E+02 -0.35605037531E+03  0.41703027497E+03  0.12509811399E+03 0.  0.
         23    2    1    2    0    0  0.15203565699E+03 -0.91531422783E+02 -0.31898429761E+03  0.37596595183E+03  0.90036506283E+02 0.  0.
          5    1    3    3  502    0 -0.14451009890E+02  0.19665713429E+02  0.38534122482E+01  0.25057796341E+02  0.41800000000E+01 0. -1.
         -5    1    3    3    0  502 -0.13758464710E+03  0.71865709354E+02 -0.35990378756E+03  0.39197247863E+03  0.41800000000E+01 0. -1.
        -11    1    4    4    0    0  0.56665456280E+02 -0.83826071204E+01 -0.40703572796E+02  0.70271067132E+02  0.00000000000E+00 0.  1.
         11    1    4    4    0    0  0.95370200706E+02 -0.83148815663E+02 -0.27828072481E+03  0.30569488470E+03  0.00000000000E+00 0. -1.
</event>
<event>
 8    1  0.6906553E-009  0.3015901E+03  0.7561462E-02  0.1084448E+00
         -2   -1    0    0    0  501 -0.00000000000E+00  0.00000000000E+00  0.98361945925E+02  0.98361945925E+02  0.00000000000E+00 0.  1.
          2   -1    0    0  501    0  0.00000000000E+00 -0.00000000000E+00 -0.98452892716E+03  0.98452892716E+03  0.00000000000E+00 0. -1.
         25    2    1    2    0    0  0.89064005703E+02 -0.27346098512E+03 -0.37622067006E+03  0.48979722190E+03  0.12508404574E+03 0.  0.
         23    2    1    2    0    0 -0.89064005703E+02  0.27346098512E+03 -0.50994631117E+03  0.59309365119E+03  0.94876400168E+02 0.  0.
          5    1    3    3  502    0 -0.11745422749E+02 -0.16389491674E+03 -0.18649498150E+03  0.24859072632E+03  0.41800000000E+01 0. -1.
         -5    1    3    3    0  502  0.10080942845E+03 -0.10956606838E+03 -0.18972568857E+03  0.24120649557E+03  0.41800000000E+01 0. -1.
        -11    1    4    4    0    0 -0.54237844893E+02  0.10888154221E+03 -0.13257611251E+03  0.17992598384E+03  0.00000000000E+00 0.  1.
         11    1    4    4    0    0 -0.34826160810E+02  0.16457944291E+03 -0.37737019866E+03  0.41316766735E+03  0.00000000000E+00 0. -1.
</event>
<event>
 8    1  0.6906553E-009  0.6590678E+02  0.7561462E-02  0.1374593E+00
         -2   -1    0    0    0  501 -0.00000000000E+00  0.00000000000E+00  0.47719547426E+02  0.47719547426E+02  0.00000000000E+00 0.  1.
          2   -1    0    0  501    0  0.00000000000E+00 -0.00000000000E+00 -0.26443476441E+03  0.26443476441E+03  0.00000000000E+00 0. -1.
         25    2    1    2    0    0  0.55868106125E+01 -0.31306737200E+02 -0.11219987515E+03  0.17101851300E+03  0.12508875072E+03 0.  0.
         23    2    1    2    0    0 -0.55868106125E+01  0.31306737200E+02 -0.10451534184E+03  0.14113579884E+03  0.89356212924E+02 0.  0.
          5    1    3    3  502    0 -0.48436200495E+01  0.20523814813E+02  0.19510626318E+02  0.29031441042E+02  0.41800000000E+01 0. -1.
         -5    1    3    3    0  502  0.10430430662E+02 -0.51830552013E+02 -0.13171050147E+03  0.14198707196E+03  0.41800000000E+01 0. -1.
        -11    1    4    4    0    0  0.92910663350E+01  0.39305897311E+02 -0.55846368044E+01  0.40773344789E+02  0.00000000000E+00 0.  1.
         11    1    4    4    0    0 -0.14877876948E+02 -0.79991601108E+01 -0.98930705034E+02  0.10036245405E+03  0.00000000000E+00 0. -1.
</event>
<event>
 8    1  0.6906553E-009  0.1649756E+03  0.7561462E-02  0.1183191E+00
         -1   -1    0    0    0  501 -0.00000000000E+00  0.00000000000E+00  0.13620204908E+03  0.13620204908E+03  0.00000000000E+00 0.  1.
          1   -1    0    0  501    0  0.00000000000E+00 -0.00000000000E+00 -0.20401207798E+03  0.20401207798E+03  0.00000000000E+00 0. -1.
         25    2    1    2    0    0 -0.12123002094E+02 -0.12353217149E+03 -0.12399023216E+02  0.17665898946E+03  0.12508996046E+03 0.  0.
         23    2    1    2    0    0  0.12123002094E+02  0.12353217149E+03 -0.55411005681E+02  0.16355513760E+03  0.90954598075E+02 0.  0.
          5    1    3    3  502    0  0.26940500820E+01 -0.14751478182E+03 -0.12847147833E+02  0.14815664133E+03  0.41800000000E+01 0.  1.
         -5    1    3    3    0  502 -0.14817052176E+02  0.23982610332E+02  0.44812461761E+00  0.28502348134E+02  0.41800000000E+01 0.  1.
        -11    1    4    4    0    0  0.34034451265E+02  0.12716717941E+03 -0.46287932627E+02  0.13954357061E+03  0.00000000000E+00 0. -1.
         11    1    4    4    0    0 -0.21911449172E+02 -0.36350079158E+01 -0.91230730535E+01  0.24011566989E+02  0.00000000000E+00 0.  1.
</event>
<event>
 8    1  0.6906553E-009  0.1179869E+03  0.7561462E-02  0.1246455E+00
         -1   -1    0    0    0  501 -0.00000000000E+00  0.00000000000E+00  0.20869279587E+02  0.20869279587E+02  0.00000000000E+00 0.  1.
          1   -1    0    0  501    0  0.00000000000E+00 -0.00000000000E+00 -0.10272564867E+04  0.10272564867E+04  0.00000000000E+00 0. -1.
         25    2    1    2    0    0 -0.36627703024E+02  0.89245752385E+02 -0.60632379445E+03  0.62656375499E+03  0.12508877811E+03 0.  0.
         23    2    1    2    0    0  0.36627703024E+02 -0.89245752385E+02 -0.40006341269E+03  0.42156201132E+03  0.91418828841E+02 0.  0.
          5    1    3    3  502    0 -0.39468168674E+02  0.36254328232E+02 -0.73351309885E+02  0.90939538793E+02  0.41800000000E+01 0.  1.
         -5    1    3    3    0  502  0.28404656497E+01  0.52991424153E+02 -0.53297248456E+03  0.53562421620E+03  0.41800000000E+01 0.  1.
        -11    1    4    4    0    0 -0.27393739043E+02 -0.38716309072E+02 -0.10107603269E+03  0.11165005110E+03  0.00000000000E+00 0.  1.
         11    1    4    4    0    0  0.64021442067E+02 -0.50529443313E+02 -0.29898738000E+03  0.30991196022E+03  0.00000000000E+00 0. -1.
</event>
<event>
 8    1  0.6906553E-009  0.2802682E+03  0.7561462E-02  0.1095543E+00
         -2   -1    0    0    0  501 -0.00000000000E+00  0.00000000000E+00  0.85714112535E+02  0.85714112535E+02  0.00000000000E+00 0.  1.
          2   -1    0    0  501    0  0.00000000000E+00 -0.00000000000E+00 -0.10161882675E+04  0.10161882675E+04  0.00000000000E+00 0. -1.
         25    2    1    2    0    0  0.27364930818E+03 -0.32653646016E+01 -0.45896389551E+03  0.54880748477E+03  0.12508873444E+03 0.  0.
         23    2    1    2    0    0 -0.27364930818E+03  0.32653646016E+01 -0.47151025951E+03  0.55309489532E+03  0.93260023234E+02 0.  0.
          5    1    3    3  502    0  0.12982897470E+03  0.97589400402E+01 -0.33139283552E+03  0.35607510923E+03  0.41800000000E+01 0. -1.
         -5    1    3    3    0  502  0.14382033347E+03 -0.13024304642E+02 -0.12757105999E+03  0.19273237553E+03  0.41800000000E+01 0. -1.
        -11    1    4    4    0    0 -0.20246356502E+03 -0.34247609925E+02 -0.29873184034E+03  0.36249842259E+03  0.00000000000E+00 0.  1.
         11    1    4    4    0    0 -0.71185743158E+02  0.37512974526E+02 -0.17277841917E+03  0.19059647273E+03  0.00000000000E+00 0. -1.
</event>
<event>
 8    1  0.6906553E-009  0.6829772E+02  0.7561462E-02  0.1365979E+00
          1   -1    0    0  501    0  0.00000000000E+00  0.00000000000E+00  0.20418984775E+03  0.20418984775E+03  0.00000000000E+00 0. -1.
         -1   -1    0    0    0  501 -0.00000000000E+00 -0.00000000000E+00 -0.57399102201E+02  0.57399102201E+02  0.00000000000E+00 0.  1.
         25    2    1    2    0    0  0.10936946450E+02  0.27538648141E+01  0.90879838519E+02  0.15502810114E+03  0.12508943411E+03 0.  0.
         23    2    1    2    0    0 -0.10936946450E+02 -0.27538648141E+01  0.55910907034E+02  0.10656084881E+03  0.90011023795E+02 0.  0.
          5    1    3    3  502    0  0.27653259835E+02 -0.42503510215E+02 -0.13063909235E+01  0.50896269188E+02  0.41800000000E+01 0. -1.
         -5    1    3    3    0  502 -0.16716313385E+02  0.45257375029E+02  0.92186229442E+02  0.10413183196E+03  0.41800000000E+01 0. -1.
        -11    1    4    4    0    0  0.12045999605E+02 -0.69783607339E+01 -0.21547994116E+02  0.25653843288E+02  0.00000000000E+00 0.  1.
         11    1    4    4    0    0 -0.22982946054E+02  0.42244959197E+01  0.77458901150E+02  0.80907005522E+02  0.00000000000E+00 0. -1.
</event>
<event>
 8    1  0.6906553E-009  0.9200318E+02  0.7561462E-02  0.1298072E+00
         -1   -1    0    0    0  501 -0.00000000000E+00  0.00000000000E+00  0.98404685615E+03  0.98404685615E+03  0.00000000000E+00 0.  1.
          1   -1    0    0  501    0  0.00000000000E+00 -0.00000000000E+00 -0.17403351063E+02  0.17403351063E+02  0.00000000000E+00 0. -1.
         25    2    1    2    0    0 -0.54019099014E+02  0.49810549011E+02  0.62335003393E+03  0.64001064323E+03  0.12509678172E+03 0.  0.
         23    2    1    2    0    0  0.54019099014E+02 -0.49810549011E+02  0.34329347116E+03  0.36143956398E+03  0.85959276529E+02 0.  0.
          5    1    3    3  502    0 -0.29645194977E+02  0.26739967079E+01  0.54175408557E+03  0.54258727360E+03  0.41800000000E+01 0.  1.
         -5    1    3    3    0  502 -0.24373904037E+02  0.47136552303E+02  0.81595948364E+02  0.97423369632E+02  0.41800000000E+01 0.  1.
        -11    1    4    4    0    0  0.38332539871E+01 -0.50384191429E+02  0.89936353602E+02  0.10315914056E+03  0.00000000000E+00 0. -1.
         11    1    4    4    0    0  0.50185845027E+02  0.57364241823E+00  0.25335711756E+03  0.25828042342E+03  0.00000000000E+00 0.  1.
</event>
<event>
 8    1  0.6906553E-009  0.1599805E+03  0.7561462E-02  0.1188719E+00
          1   -1    0    0  501    0  0.00000000000E+00  0.00000000000E+00  0.10798774380E+03  0.10798774380E+03  0.00000000000E+00 0. -1.
         -1   -1    0    0    0  501 -0.00000000000E+00 -0.00000000000E+00 -0.41305570058E+03  0.41305570058E+03  0.00000000000E+00 0.  1.
         25    2    1    2    0    0 -0.14743671632E+03  0.20991212093E+02 -0.28605052427E+03  0.34590479290E+03  0.12508799706E+03 0.  0.
         23    2    1    2    0    0  0.14743671632E+03 -0.20991212093E+02 -0.19017432510E+02  0.17513865148E+03  0.90186851600E+02 0.  0.
          5    1    3    3  502    0 -0.94259525261E+02 -0.17031606628E+02 -0.66221379739E+02  0.11652329064E+03  0.41800000000E+01 0.  1.
         -5    1    3    3    0  502 -0.53177191054E+02  0.38022818721E+02 -0.21982914453E+03  0.22938150226E+03  0.41800000000E+01 0.  1.
        -11    1    4    4    0    0  0.50033772993E+02 -0.33735951707E+02  0.27657103794E+02  0.66380782368E+02  0.00000000000E+00 0. -1.
         11    1    4    4    0    0  0.97402943322E+02  0.12744739613E+02 -0.46674536304E+02  0.10875786912E+03  0.00000000000E+00 0.  1.
</event>
<event>
 8    1  0.6906553E-009  0.1136340E+03  0.7561462E-02  0.1253984E+00
         -2   -1    0    0    0  501 -0.00000000000E+00  0.00000000000E+00  0.16503390003E+02  0.16503390003E+02  0.00000000000E+00 0.  1.
          2   -1    0    0  501    0  0.00000000000E+00 -0.00000000000E+00 -0.84656772078E+03  0.84656772078E+03  0.00000000000E+00 0. -1.
         25    2    1    2    0    0  0.41003840757E+01  0.46239886333E+02 -0.48090335439E+03  0.49906571937E+03  0.12507444086E+03 0.  0.
         23    2    1    2    0    0 -0.41003840757E+01 -0.46239886333E+02 -0.34916097639E+03  0.36400539141E+03  0.91823729520E+02 0.  0.
          5    1    3    3  502    0  0.34518062606E+02 -0.33188527093E+02 -0.18641615019E+03  0.19251345000E+03  0.41800000000E+01 0.  1.
         -5    1    3    3    0  502 -0.30417678530E+02  0.79428413426E+02 -0.29448720419E+03  0.30655226938E+03  0.41800000000E+01 0.  1.
        -11    1    4    4    0    0 -0.13276385516E+01  0.23856576085E+02 -0.36891580317E+02  0.43953242712E+02  0.00000000000E+00 0.  1.
         11    1    4    4    0    0 -0.27727455241E+01 -0.70096462418E+02 -0.31226939607E+03  0.32005214869E+03  0.00000000000E+00 0. -1.
</event>
<event>
 8    1  0.6906553E-009  0.1410376E+03  0.7561462E-02  0.1211940E+00
         -1   -1    0    0    0  501 -0.00000000000E+00  0.00000000000E+00  0.52167285221E+02  0.52167285221E+02  0.00000000000E+00 0.  1.
          1   -1    0    0  501    0  0.00000000000E+00 -0.00000000000E+00 -0.49419792154E+03  0.49419792154E+03  0.00000000000E+00 0. -1.
         25    2    1    2    0    0 -0.72583413433E+02 -0.79093704912E+02 -0.15891982323E+03  0.22897177369E+03  0.12509355246E+03 0.  0.
         23    2    1    2    0    0  0.72583413433E+02  0.79093704912E+02 -0.28311081309E+03  0.31739343307E+03  0.95198176499E+02 0.  0.
          5    1    3    3  502    0  0.26960355537E+02 -0.13010487443E+02 -0.80512609974E+02  0.85999339061E+02  0.41800000000E+01 0.  1.
         -5    1    3    3    0  502 -0.99543768970E+02 -0.66083217469E+02 -0.78407213255E+02  0.14297243462E+03  0.41800000000E+01 0.  1.
        -11    1    4    4    0    0  0.56694283041E+02  0.54496633454E+01 -0.18576063100E+03  0.19429604368E+03  0.00000000000E+00 0.  1.
         11    1    4    4    0    0  0.15889130391E+02  0.73644041566E+02 -0.97350182084E+02  0.12309738939E+03  0.00000000000E+00 0. -1.
</event>
<event>
 8    1  0.6906553E-009  0.1623173E+03  0.7561462E-02  0.1186105E+00
         -2   -1    0    0    0  501 -0.00000000000E+00  0.00000000000E+00  0.12070197170E+03  0.12070197170E+03  0.00000000000E+00 0.  1.
          2   -1    0    0  501    0  0.00000000000E+00 -0.00000000000E+00 -0.25154438477E+03  0.25154438477E+03  0.00000000000E+00 0. -1.
         25    2    1    2    0    0  0.64676617513E+02 -0.10939312279E+03 -0.18350182869E+02  0.17925917013E+03  0.12508877127E+03 0.  0.
         23    2    1    2    0    0 -0.64676617513E+02  0.10939312279E+03 -0.11249223020E+03  0.19298718633E+03  0.91867470121E+02 0.  0.
          5    1    3    3  502    0  0.21554720632E+02  0.23728286383E+02  0.14549615783E+02  0.35451393141E+02  0.41800000000E+01 0. -1.
         -5    1    3    3    0  502  0.43121896881E+02 -0.13312140918E+03 -0.32899798652E+02  0.14380777699E+03  0.41800000000E+01 0. -1.
        -11    1    4    4    0    0 -0.15121093327E+02  0.10090945263E+03 -0.95938704832E+02  0.14005570384E+03  0.00000000000E+00 0.  1.
         11    1    4    4    0    0 -0.49555524186E+02  0.84836701633E+01 -0.16553525366E+02  0.52931482493E+02  0.00000000000E+00 0. -1.
</event>
<event>
 8    1  0.6906553E-009  0.1424507E+03  0.7561462E-02  0.1210069E+00
         -2   -1    0    0    0  501 -0.00000000000E+00  0.00000000000E+00  0.15192958434E+03  0.15192958434E+03  0.00000000000E+00 0. -1.
          2   -1    0    0  501    0  0.00000000000E+00 -0.00000000000E+00 -0.28972216039E+03  0.28972216039E+03  0.00000000000E+00 0.  1.
         25    2    1    2    0    0  0.10006899988E+03  0.74750315298E+02 -0.20637818298E+03  0.27173056742E+03  0.12507650652E+03 0.  0.
         23    2    1    2    0    0 -0.10006899988E+03 -0.74750315298E+02  0.68585606927E+02  0.16992117731E+03  0.92562447288E+02 0.  0.
          5    1    3    3  502    0  0.74794835108E+01 -0.51107082301E+01 -0.12362660028E+03  0.12402850764E+03  0.41800000000E+01 0.  1.
         -5    1    3    3    0  502  0.92589516371E+02  0.79861023528E+02 -0.82751582708E+02  0.14770205977E+03  0.41800000000E+01 0.  1.
        -11    1    4    4    0    0 -0.93523468598E+02 -0.17734208826E+02  0.26676214825E+02  0.98857279846E+02  0.00000000000E+00 0.  1.
         11    1    4    4    0    0 -0.65455312843E+01 -0.57016106472E+02  0.41909392102E+02  0.71063897468E+02  0.00000000000E+00 0. -1.
</event>
<event>
 8    1  0.6906553E-009  0.1994749E+03  0.7561462E-02  0.1150183E+00
         -2   -1    0    0    0  501 -0.00000000000E+00  0.00000000000E+00  0.14639628691E+03  0.14639628691E+03  0.00000000000E+00 0.  1.
          2   -1    0    0  501    0  0.00000000000E+00 -0.00000000000E+00 -0.41600796546E+03  0.41600796546E+03  0.00000000000E+00 0. -1.
         25    2    1    2    0    0  0.11232103866E+03  0.14680393288E+03 -0.14162413038E+00  0.22319185670E+03  0.12508866616E+03 0.  0.
         23    2    1    2    0    0 -0.11232103866E+03 -0.14680393288E+03 -0.26947005442E+03  0.33921239568E+03  0.91013892986E+02 0.  0.
          5    1    3    3  502    0 -0.20682793812E+02  0.25764018480E+02 -0.24941500949E+02  0.41606651844E+02  0.41800000000E+01 0.  1.
         -5    1    3    3    0  502  0.13300383247E+03  0.12103991441E+03  0.24799876819E+02  0.18158520485E+03  0.41800000000E+01 0.  1.
        -11    1    4    4    0    0 -0.18656853393E+02 -0.37004791012E+02 -0.13764075130E+03  0.14374424912E+03  0.00000000000E+00 0. -1.
         11    1    4    4    0    0 -0.93664185268E+02 -0.10979914187E+03 -0.13182930312E+03  0.19546814656E+03  0.00000000000E+00 0.  1.
</event>
<event>
 8    1  0.6906553E-009  0.1489199E+03  0.7561462E-02  0.1201807E+00
         -3   -1    0    0    0  501 -0.00000000000E+00  0.00000000000E+00  0.10779960135E+03  0.10779960135E+03  0.00000000000E+00 0.  1.
          3   -1    0    0  501    0  0.00000000000E+00 -0.00000000000E+00 -0.28371996237E+03  0.28371996237E+03  0.00000000000E+00 0. -1.
         25    2    1    2    0    0 -0.13118371755E+03 -0.30230561164E+02 -0.10413180605E+03  0.21121905235E+03  0.12508797092E+03 0.  0.
         23    2    1    2    0    0  0.13118371755E+03  0.30230561164E+02 -0.71788554975E+02  0.18030051136E+03  0.96081336352E+02 0.  0.
          5    1    3    3  502    0 -0.58686154731E+02  0.10471970958E+01  0.21607689597E+02  0.62685931664E+02  0.41800000000E+01 0.  1.
         -5    1    3    3    0  502 -0.72497562815E+02 -0.31277758260E+02 -0.12573949565E+03  0.14853312069E+03  0.41800000000E+01 0.  1.
        -11    1    4    4    0    0  0.97906945850E+02 -0.19753975757E+02 -0.21948186440E+02  0.10226295757E+03  0.00000000000E+00 0.  1.
         11    1    4    4    0    0  0.33276771696E+02  0.49984536921E+02 -0.49840368535E+02  0.78037553789E+02  0.00000000000E+00 0. -1.
</event>
<event>
 8    1  0.6906553E-009  0.1070845E+03  0.7561462E-02  0.1266066E+00
          1   -1    0    0  501    0  0.00000000000E+00  0.00000000000E+00  0.29328427743E+03  0.29328427743E+03  0.00000000000E+00 0. -1.
         -1   -1    0    0    0  501 -0.00000000000E+00 -0.00000000000E+00 -0.53181993062E+02  0.53181993062E+02  0.00000000000E+00 0.  1.
         25    2    1    2    0    0  0.32598008428E+02 -0.41061522831E+02  0.15865604481E+03  0.20873692829E+03  0.12510270127E+03 0.  0.
         23    2    1    2    0    0 -0.32598008428E+02  0.41061522831E+02  0.81446239558E+02  0.13772934220E+03  0.97914263288E+02 0.  0.
          5    1    3    3  502    0  0.59070027931E+02  0.66146167027E+00  0.21686838560E+02  0.63067401231E+02  0.41800000000E+01 0.  1.
         -5    1    3    3    0  502 -0.26472019503E+02 -0.41722984501E+02  0.13696920625E+03  0.14566952706E+03  0.41800000000E+01 0.  1.
        -11    1    4    4    0    0 -0.63551898853E+02  0.38488665953E+02  0.75835319515E+02  0.10616598768E+03  0.00000000000E+00 0. -1.
         11    1    4    4    0    0  0.30953890425E+02  0.25728568778E+01  0.56109200430E+01  0.31563354522E+02  0.00000000000E+00 0.  1.
</event>
<event>
 8    1  0.6906553E-009  0.1201560E+03  0.7561462E-02  0.1242840E+00
          2   -1    0    0  501    0  0.00000000000E+00  0.00000000000E+00  0.16245870101E+04  0.16245870101E+04  0.00000000000E+00 0. -1.
         -2   -1    0    0    0  501 -0.00000000000E+00 -0.00000000000E+00 -0.12538192201E+02  0.12538192201E+02  0.00000000000E+00 0.  1.
         25    2    1    2    0    0 -0.22211993156E+02 -0.58720643287E+02  0.12583998330E+04  0.12661591706E+04  0.12508964398E+03 0.  0.
         23    2    1    2    0    0  0.22211993156E+02  0.58720643287E+02  0.35364898485E+03  0.37096603165E+03  0.92772331875E+02 0.  0.
          5    1    3    3  502    0 -0.62662422575E+02 -0.61214533150E+02  0.10598514175E+04  0.10634736940E+04  0.41800000000E+01 0. -1.
         -5    1    3    3    0  502  0.40450429419E+02  0.24938898629E+01  0.19854841555E+03  0.20268547664E+03  0.41800000000E+01 0. -1.
        -11    1    4    4    0    0  0.53887232762E+02  0.11647002106E+02  0.16473662336E+03  0.17371713096E+03  0.00000000000E+00 0.  1.
         11    1    4    4    0    0 -0.31675239606E+02  0.47073641181E+02  0.18891236149E+03  0.19724890069E+03  0.00000000000E+00 0. -1.
</event>
<event>
 8    1  0.6906553E-009  0.1042568E+03  0.7561462E-02  0.1271591E+00
         -4   -1    0    0    0  501 -0.00000000000E+00  0.00000000000E+00  0.28931509379E+03  0.28931509379E+03  0.00000000000E+00 0. -1.
          4   -1    0    0  501    0  0.00000000000E+00 -0.00000000000E+00 -0.43678623922E+02  0.43678623922E+02  0.00000000000E+00 0.  1.
         25    2    1    2    0    0  0.20717005169E+02  0.24148239145E+02  0.14522329391E+03  0.19428831332E+03  0.12508321966E+03 0.  0.
         23    2    1    2    0    0 -0.20717005169E+02 -0.24148239145E+02  0.10041317596E+03  0.13870540439E+03  0.90244398966E+02 0.  0.
          5    1    3    3  502    0 -0.38159948101E+02 -0.20473969118E+02  0.17940613619E+02  0.47060631823E+02  0.41800000000E+01 0.  1.
         -5    1    3    3    0  502  0.58876953270E+02  0.44622208262E+02  0.12728268029E+03  0.14722768150E+03  0.41800000000E+01 0.  1.
        -11    1    4    4    0    0 -0.40237100075E+02 -0.46397388972E+02  0.45887532550E+02  0.76664252226E+02  0.00000000000E+00 0. -1.
         11    1    4    4    0    0  0.19520094906E+02  0.22249149827E+02  0.54525643405E+02  0.62041152165E+02  0.00000000000E+00 0.  1.
</event>
<event>
 8    1  0.6906553E-009  0.1519214E+03  0.7561462E-02  0.1198132E+00
         -1   -1    0    0    0  501 -0.00000000000E+00  0.00000000000E+00  0.36327173299E+02  0.36327173299E+02  0.00000000000E+00 0.  1.
          1   -1    0    0  501    0  0.00000000000E+00 -0.00000000000E+00 -0.86595040757E+03  0.86595040757E+03  0.00000000000E+00 0. -1.
         25    2    1    2    0    0 -0.73493720809E+02  0.81412962754E+02 -0.22146507185E+03  0.27699054539E+03  0.12509031411E+03 0.  0.
         23    2    1    2    0    0  0.73493720809E+02 -0.81412962754E+02 -0.60815816242E+03  0.62528703548E+03  0.95384111443E+02 0.  0.
          5    1    3    3  502    0 -0.19427350142E+02  0.10151855526E+03 -0.10748889640E+03  0.14918034135E+03  0.41800000000E+01 0.  1.
         -5    1    3    3    0  502 -0.54066370667E+02 -0.20105592505E+02 -0.11397617545E+03  0.12781020404E+03  0.41800000000E+01 0.  1.
        -11    1    4    4    0    0  0.55858072840E+02  0.33750204983E+01 -0.30080275469E+03  0.30596374343E+03  0.00000000000E+00 0. -1.
         11    1    4    4    0    0  0.17635647969E+02 -0.84787983252E+02 -0.30735540774E+03  0.31932329206E+03  0.00000000000E+00 0.  1.
</event>
<event>
 8    1  0.6906553E-009  0.1121953E+03  0.7561462E-02  0.1256558E+00
          2   -1    0    0  501    0  0.00000000000E+00  0.00000000000E+00  0.42776758367E+03  0.42776758367E+03  0.00000000000E+00 0. -1.
         -2   -1    0    0    0  501 -0.00000000000E+00 -0.00000000000E+00 -0.39729502158E+02  0.39729502158E+02  0.00000000000E+00 0.  1.
         25    2    1    2    0    0  0.61452885924E+02 -0.36836730414E+02  0.21148295147E+03  0.25594033903E+03  0.12508803494E+03 0.  0.
         23    2    1    2    0    0 -0.61452885924E+02  0.36836730414E+02  0.17655513005E+03  0.21155674680E+03  0.91930089065E+02 0.  0.
          5    1    3    3  502    0  0.38761926506E+02  0.30614453325E+02  0.23429861962E+02  0.54828482839E+02  0.41800000000E+01 0.  1.
         -5    1    3    3    0  502  0.22690959417E+02 -0.67451183739E+02  0.18805308950E+03  0.20111185619E+03  0.41800000000E+01 0.  1.
        -11    1    4    4    0    0  0.87670458177E+01  0.31962630142E+02  0.17183211543E+02  0.37332741352E+02  0.00000000000E+00 0.  1.
         11    1    4    4    0    0 -0.70219931742E+02  0.48741002728E+01  0.15937191850E+03  0.17422400545E+03  0.00000000000E+00 0. -1.
</event>
<event>
 8    1  0.6906553E-009  0.1468700E+03  0.7561462E-02  0.1204373E+00
         -2   -1    0    0    0  501 -0.00000000000E+00  0.00000000000E+00  0.81624606026E+02  0.81624606026E+02  0.00000000000E+00 0.  1.
          2   -1    0    0  501    0  0.00000000000E+00 -0.00000000000E+00 -0.41937515319E+03  0.41937515319E+03  0.00000000000E+00 0. -1.
         25    2    1    2    0    0 -0.96411116214E+02 -0.53353033558E+02 -0.31598322608E+03  0.35725975291E+03  0.12508989711E+03 0.  0.
         23    2    1    2    0    0  0.96411116214E+02  0.53353033558E+02 -0.21767321079E+02  0.14374000631E+03  0.89697957767E+02 0.  0.
          5    1    3    3  502    0 -0.95428307285E+02  0.10981372148E+02 -0.23382507246E+03  0.25282165508E+03  0.41800000000E+01 0. -1.
         -5    1    3    3    0  502 -0.98280892890E+00 -0.64334405706E+02 -0.82158153627E+02  0.10443809783E+03  0.41800000000E+01 0. -1.
        -11    1    4    4    0    0  0.26639192064E+02 -0.18906549711E+02  0.16067054887E+02  0.36404044123E+02  0.00000000000E+00 0.  1.
         11    1    4    4    0    0  0.69771924150E+02  0.72259583269E+02 -0.37834375966E+02  0.10733596219E+03  0.00000000000E+00 0. -1.
</event>
<event>
 8    1  0.6906553E-009  0.1337416E+03  0.7561462E-02  0.1222007E+00
         -2   -1    0    0    0  501 -0.00000000000E+00  0.00000000000E+00  0.10987671252E+03  0.10987671252E+03  0.00000000000E+00 0.  1.
          2   -1    0    0  501    0  0.00000000000E+00 -0.00000000000E+00 -0.18289652565E+03  0.18289652565E+03  0.00000000000E+00 0. -1.
         25    2    1    2    0    0  0.80769925834E+02  0.41605484094E+02 -0.28778500126E+02  0.15725716655E+03  0.12508723811E+03 0.  0.
         23    2    1    2    0    0 -0.80769925834E+02 -0.41605484094E+02 -0.44241313010E+02  0.13551607162E+03  0.90291276787E+02 0.  0.
          5    1    3    3  502    0  0.11161790126E+03  0.41550063618E+02 -0.72227913019E+01  0.11939264962E+03  0.41800000000E+01 0. -1.
         -5    1    3    3    0  502 -0.30847975431E+02  0.55420476490E-01 -0.21555708824E+02  0.37864516932E+02  0.41800000000E+01 0. -1.
        -11    1    4    4    0    0 -0.42955541703E+02  0.18013195217E+02  0.85547499799E+01  0.47358605471E+02  0.00000000000E+00 0.  1.
         11    1    4    4    0    0 -0.37814384130E+02 -0.59618679312E+02 -0.52796062990E+02  0.88157466146E+02  0.00000000000E+00 0. -1.
</event>
<event>
 8    1  0.6906553E-009  0.1543436E+03  0.7561462E-02  0.1195235E+00
         -1   -1    0    0    0  501 -0.00000000000E+00  0.00000000000E+00  0.59028988919E+02  0.59028988919E+02  0.00000000000E+00 0.  1.
          1   -1    0    0  501    0  0.00000000000E+00 -0.00000000000E+00 -0.52076567320E+03  0.52076567320E+03  0.00000000000E+00 0. -1.
         25    2    1    2    0    0  0.11527523638E+03  0.58281400723E+02 -0.31475339762E+03  0.36249413174E+03  0.12508873827E+03 0.  0.
         23    2    1    2    0    0 -0.11527523638E+03 -0.58281400723E+02 -0.14698328666E+03  0.21730053038E+03  0.94500434664E+02 0.  0.
          5    1    3    3  502    0 -0.97990057969E+01  0.15477964618E+02 -0.15022330062E+03  0.15139385837E+03  0.41800000000E+01 0. -1.
         -5    1    3    3    0  502  0.12507424218E+03  0.42803436106E+02 -0.16453009700E+03  0.21110027337E+03  0.41800000000E+01 0. -1.
        -11    1    4    4    0    0 -0.13083966005E+03 -0.53477366611E+02 -0.14177942030E+03  0.20020052298E+03  0.00000000000E+00 0. -1.
         11    1    4    4    0    0  0.15564423667E+02 -0.48040341120E+01 -0.52038663595E+01  0.17100007396E+02  0.00000000000E+00 0.  1.
</event>
<event>
 8    1  0.6906553E-009  0.9413983E+02  0.7561462E-02  0.1293125E+00
         -1   -1    0    0    0  501 -0.00000000000E+00  0.00000000000E+00  0.19986588732E+03  0.19986588732E+03  0.00000000000E+00 0.  1.
          1   -1    0    0  501    0  0.00000000000E+00 -0.00000000000E+00 -0.65609359736E+02  0.65609359736E+02  0.00000000000E+00 0. -1.
         25    2    1    2    0    0  0.13201725023E+02 -0.28364231353E+02  0.10318339355E+03  0.16514555810E+03  0.12508967780E+03 0.  0.
         23    2    1    2    0    0 -0.13201725023E+02  0.28364231353E+02  0.31073134032E+02  0.10032968896E+03  0.90120428669E+02 0.  0.
          5    1    3    3  502    0  0.51432986620E+02  0.24986615149E+02  0.72888667580E+02  0.92735717557E+02  0.41800000000E+01 0. -1.
         -5    1    3    3    0  502 -0.38231261597E+02 -0.53350846502E+02  0.30294725973E+02  0.72409840544E+02  0.41800000000E+01 0. -1.
        -11    1    4    4    0    0  0.22725771024E+02  0.11997379974E+02  0.50249177369E+02  0.56439149720E+02  0.00000000000E+00 0.  1.
         11    1    4    4    0    0 -0.35927496047E+02  0.16366851380E+02 -0.19176043337E+02  0.43890539235E+02  0.00000000000E+00 0. -1.
</event>
<event>
 8    1  0.6906553E-009  0.1219343E+03  0.7561462E-02  0.1239940E+00
         -2   -1    0    0    0  501 -0.00000000000E+00  0.00000000000E+00  0.87230086053E+02  0.87230086053E+02  0.00000000000E+00 0.  1.
          2   -1    0    0  501    0  0.00000000000E+00 -0.00000000000E+00 -0.26798388699E+03  0.26798388699E+03  0.00000000000E+00 0. -1.
         25    2    1    2    0    0  0.45948606500E+02  0.65813698249E+02 -0.17799802597E+03  0.23189052921E+03  0.12508878037E+03 0.  0.
         23    2    1    2    0    0 -0.45948606500E+02 -0.65813698249E+02 -0.27557749661E+01  0.12332344383E+03  0.93586111069E+02 0.  0.
          5    1    3    3  502    0 -0.36075982798E+02  0.39568787029E+02 -0.32538161738E+02  0.62796256346E+02  0.41800000000E+01 0.  1.
         -5    1    3    3    0  502  0.82024589298E+02  0.26244911219E+02 -0.14545986423E+03  0.16909427287E+03  0.41800000000E+01 0.  1.
        -11    1    4    4    0    0 -0.41430611046E+02 -0.36295192337E+01  0.31511548180E+02  0.52178986289E+02  0.00000000000E+00 0.  1.
         11    1    4    4    0    0 -0.45179954545E+01 -0.62184179015E+02 -0.34267323146E+02  0.71144457537E+02  0.00000000000E+00 0. -1.
</event>
<event>
 8    1  0.6906553E-009  0.1470330E+03  0.7561462E-02  0.1204167E+00
          1   -1    0    0  501    0  0.00000000000E+00  0.00000000000E+00  0.35628444267E+03  0.35628444267E+03  0.00000000000E+00 0. -1.
         -1   -1    0    0    0  501 -0.00000000000E+00 -0.00000000000E+00 -0.76163102293E+02  0.76163102293E+02  0.00000000000E+00 0.  1.
         25    2    1    2    0    0 -0.49868351794E+02  0.10663655313E+03  0.97735480005E+02  0.19763137405E+03  0.12509088290E+03 0.  0.
         23    2    1    2    0    0  0.49868351794E+02 -0.10663655313E+03  0.18238586037E+03  0.23481617091E+03  0.89531140307E+02 0.  0.
          5    1    3    3  502    0  0.31786544326E+02  0.75053509003E+02  0.30358917441E+02  0.87077838064E+02  0.41800000000E+01 0.  1.
         -5    1    3    3    0  502 -0.81654896120E+02  0.31583044122E+02  0.67376562565E+02  0.11055353599E+03  0.41800000000E+01 0.  1.
        -11    1    4    4    0    0 -0.72167358240E+01 -0.17776935747E+02 -0.49009428072E+01  0.19802019112E+02  0.00000000000E+00 0.  1.
         11    1    4    4    0    0  0.57085087618E+02 -0.88859617378E+02  0.18728680318E+03  0.21501415180E+03  0.00000000000E+00 0. -1.
</event>
<event>
 8    1  0.6906553E-009  0.1033821E+03  0.7561462E-02  0.1273341E+00
         -2   -1    0    0    0  501 -0.00000000000E+00  0.00000000000E+00  0.25249743440E+02  0.25249743440E+02  0.00000000000E+00 0.  1.
          2   -1    0    0  501    0  0.00000000000E+00 -0.00000000000E+00 -0.53817659045E+03  0.53817659045E+03  0.00000000000E+00 0. -1.
         25    2    1    2    0    0 -0.45757206338E+01  0.25462470638E+02 -0.40027468706E+03  0.42016262603E+03  0.12509009786E+03 0.  0.
         23    2    1    2    0    0  0.45757206338E+01 -0.25462470638E+02 -0.11265215996E+03  0.14326370786E+03  0.84644587645E+02 0.  0.
          5    1    3    3  502    0  0.47352973525E+02 -0.23959729221E+02 -0.12918652519E+03  0.13972474161E+03  0.41800000000E+01 0. -1.
         -5    1    3    3    0  502 -0.51928694159E+02  0.49422199859E+02 -0.27108816186E+03  0.28043788442E+03  0.41800000000E+01 0. -1.
        -11    1    4    4    0    0  0.12220907997E+02  0.26508748938E+02 -0.16072730829E+02  0.33322620527E+02  0.00000000000E+00 0.  1.
         11    1    4    4    0    0 -0.76451873627E+01 -0.51971219576E+02 -0.96579429129E+02  0.10994108734E+03  0.00000000000E+00 0. -1.
</event>
<event>
 8    1  0.6906553E-009  0.1633356E+03  0.7561462E-02  0.1184982E+00
         -2   -1    0    0    0  501 -0.00000000000E+00  0.00000000000E+00  0.71839289421E+02  0.71839289421E+02  0.00000000000E+00 0.  1.
          2   -1    0    0  501    0  0.00000000000E+00 -0.00000000000E+00 -0.57898520167E+03  0.57898520167E+03  0.00000000000E+00 0. -1.
         25    2    1    2    0    0 -0.16248324393E+03  0.98714860100E+01 -0.35777547034E+03  0.41249092799E+03  0.12508887921E+03 0.  0.
         23    2    1    2    0    0  0.16248324393E+03 -0.98714860100E+01 -0.14937044191E+03  0.23833356310E+03  0.89404181062E+02 0.  0.
          5    1    3    3  502    0 -0.80354413525E+02  0.31137634058E+00 -0.30232068490E+03  0.31284532544E+03  0.41800000000E+01 0.  1.
         -5    1    3    3    0  502 -0.82128830403E+02  0.95601096694E+01 -0.55454785442E+02  0.99645602555E+02  0.41800000000E+01 0.  1.
        -11    1    4    4    0    0  0.35279318195E+02  0.37937744097E+01 -0.91073569427E+02  0.97741588205E+02  0.00000000000E+00 0. -1.
         11    1    4    4    0    0  0.12720392573E+03 -0.13665260420E+02 -0.58296872478E+02  0.14059197489E+03  0.00000000000E+00 0.  1.
</event>
<event>
 8    1  0.6906553E-009  0.1988118E+03  0.7561462E-02  0.1150745E+00
         -2   -1    0    0    0  501 -0.00000000000E+00  0.00000000000E+00  0.80809209666E+02  0.80809209666E+02  0.00000000000E+00 0.  1.
          2   -1    0    0  501    0  0.00000000000E+00 -0.00000000000E+00 -0.56159529230E+03  0.56159529230E+03  0.00000000000E+00 0. -1.
         25    2    1    2    0    0 -0.15427986147E+03  0.96042449144E+02 -0.22454814354E+03  0.31479399699E+03  0.12508782548E+03 0.  0.
         23    2    1    2    0    0  0.15427986147E+03 -0.96042449144E+02 -0.25623793910E+03  0.32761050498E+03  0.92974909754E+02 0.  0.
          5    1    3    3  502    0 -0.11604610330E+03  0.32250327963E+02 -0.20496886118E+03  0.23777402759E+03  0.41800000000E+01 0. -1.
         -5    1    3    3    0  502 -0.38233758167E+02  0.63792121181E+02 -0.19579282359E+02  0.77019969398E+02  0.41800000000E+01 0. -1.
        -11    1    4    4    0    0  0.13060877375E+03 -0.32188080528E+02 -0.15064572039E+03  0.20196251479E+03  0.00000000000E+00 0.  1.
         11    1    4    4    0    0  0.23671087717E+02 -0.63854368616E+02 -0.10559221871E+03  0.12564799019E+03  0.00000000000E+00 0. -1.
</event>
<event>
 8    1  0.6906553E-009  0.1749642E+03  0.7561462E-02  0.1172768E+00
         -1   -1    0    0    0  501 -0.00000000000E+00  0.00000000000E+00  0.77034746167E+03  0.77034746167E+03  0.00000000000E+00 0.  1.
          1   -1    0    0  501    0  0.00000000000E+00 -0.00000000000E+00 -0.11649290848E+03  0.11649290848E+03  0.00000000000E+00 0. -1.
         25    2    1    2    0    0  0.14094667326E+03  0.18164443502E+00  0.68884443531E+03  0.71415650131E+03  0.12508738784E+03 0.  0.
         23    2    1    2    0    0 -0.14094667326E+03 -0.18164443502E+00 -0.34989882124E+02  0.17268386884E+03  0.93431413397E+02 0.  0.
          5    1    3    3  502    0  0.47868886736E+02  0.58100307206E+02  0.34869813898E+03  0.35675613595E+03  0.41800000000E+01 0. -1.
         -5    1    3    3    0  502  0.93077786525E+02 -0.57918662771E+02  0.34014629634E+03  0.35740036535E+03  0.41800000000E+01 0. -1.
        -11    1    4    4    0    0 -0.11893462365E+03 -0.34693872314E+02 -0.90480489902E+01  0.12422148232E+03  0.00000000000E+00 0. -1.
         11    1    4    4    0    0 -0.22012049611E+02  0.34512227879E+02 -0.25941833134E+02  0.48462386524E+02  0.00000000000E+00 0.  1.
</event>
<event>
 8    1  0.6906553E-009  0.9589184E+02  0.7561462E-02  0.1289180E+00
          2   -1    0    0  501    0  0.00000000000E+00  0.00000000000E+00  0.19312912465E+02  0.19312912465E+02  0.00000000000E+00 0. -1.
         -2   -1    0    0    0  501 -0.00000000000E+00 -0.00000000000E+00 -0.72572377894E+03  0.72572377894E+03  0.00000000000E+00 0.  1.
         25    2    1    2    0    0 -0.13165753370E+02 -0.26055251279E+02 -0.27471803422E+03  0.30326541437E+03  0.12509076725E+03 0.  0.
         23    2    1    2    0    0  0.13165753370E+02  0.26055251279E+02 -0.43169283226E+03  0.44177127703E+03  0.89168080627E+02 0.  0.
          5    1    3    3  502    0 -0.53039121284E+02 -0.33038503238E+01 -0.23921079120E+03  0.24507823004E+03  0.41800000000E+01 0. -1.
         -5    1    3    3    0  502  0.39873367914E+02 -0.22751400956E+02 -0.35507243018E+02  0.58187184336E+02  0.41800000000E+01 0. -1.
        -11    1    4    4    0    0 -0.36133811435E+02  0.23318297067E+02 -0.16288693522E+03  0.16846824322E+03  0.00000000000E+00 0.  1.
         11    1    4    4    0    0  0.49299564805E+02  0.27369542125E+01 -0.26880589704E+03  0.27330303381E+03  0.00000000000E+00 0. -1.
</event>
<event>
 8    1  0.6906553E-009  0.8008845E+02  0.7561462E-02  0.1328801E+00
          2   -1    0    0  501    0  0.00000000000E+00  0.00000000000E+00  0.20721686091E+03  0.20721686091E+03  0.00000000000E+00 0. -1.
         -2   -1    0    0    0  501 -0.00000000000E+00 -0.00000000000E+00 -0.59086146759E+02  0.59086146759E+02  0.00000000000E+00 0.  1.
         25    2    1    2    0    0  0.67913991542E+01  0.14412318242E+02  0.72906438590E+02  0.14565993962E+03  0.12509049205E+03 0.  0.
         23    2    1    2    0    0 -0.67913991542E+01 -0.14412318242E+02  0.75224275561E+02  0.12064306805E+03  0.92963542403E+02 0.  0.
          5    1    3    3  502    0  0.32027170908E+01  0.67771424808E+02  0.59570335651E+02  0.90384294581E+02  0.41800000000E+01 0. -1.
         -5    1    3    3    0  502  0.35886820635E+01 -0.53359106566E+02  0.13336102939E+02  0.55275645035E+02  0.41800000000E+01 0. -1.
        -11    1    4    4    0    0  0.18499590041E+01  0.11290923885E+02 -0.19228355581E+02  0.22374918298E+02  0.00000000000E+00 0.  1.
         11    1    4    4    0    0 -0.86413581584E+01 -0.25703242127E+02  0.94452631142E+02  0.98268149755E+02  0.00000000000E+00 0. -1.
</event>
<event>
 8    1  0.6906553E-009  0.7290102E+02  0.7561462E-02  0.1350497E+00
         -4   -1    0    0    0  501 -0.00000000000E+00  0.00000000000E+00  0.13851681389E+03  0.13851681389E+03  0.00000000000E+00 0.  1.
          4   -1    0    0  501    0  0.00000000000E+00 -0.00000000000E+00 -0.10059280257E+03  0.10059280257E+03  0.00000000000E+00 0. -1.
         25    2    1    2    0    0 -0.23533476078E+02 -0.24564344028E+02  0.55255755131E+02  0.14090311311E+03  0.12507300795E+03 0.  0.
         23    2    1    2    0    0  0.23533476078E+02  0.24564344028E+02 -0.17331743812E+02  0.98206503347E+02  0.90481470270E+02 0.  0.
          5    1    3    3  502    0 -0.33364680595E+02 -0.37591339692E+02 -0.26814911787E+02  0.57121122408E+02  0.41800000000E+01 0. -1.
         -5    1    3    3    0  502  0.98312045173E+01  0.13026995665E+02  0.82070666918E+02  0.83781990706E+02  0.41800000000E+01 0. -1.
        -11    1    4    4    0    0  0.46249690813E+02  0.16888473234E+01 -0.38025059692E+02  0.59898174181E+02  0.00000000000E+00 0. -1.
         11    1    4    4    0    0 -0.22716214736E+02  0.22875496704E+02  0.20693315880E+02  0.38308329166E+02  0.00000000000E+00 0.  1.
</event>
<event>
 8    1  0.6906553E-009  0.1048961E+03  0.7561462E-02  0.1270325E+00
         -2   -1    0    0    0  501 -0.00000000000E+00  0.00000000000E+00  0.45445676343E+02  0.45445676343E+02  0.00000000000E+00 0.  1.
          2   -1    0    0  501    0  0.00000000000E+00 -0.00000000000E+00 -0.27332259763E+03  0.27332259763E+03  0.00000000000E+00 0. -1.
         25    2    1    2    0    0 -0.11072913170E+02 -0.15457213945E+02 -0.13818815214E+03  0.18736388393E+03  0.12509086593E+03 0.  0.
         23    2    1    2    0    0  0.11072913170E+02  0.15457213945E+02 -0.89688769150E+02  0.13140439005E+03  0.94135559396E+02 0.  0.
          5    1    3    3  502    0 -0.50120410538E+02 -0.48929320964E+02 -0.53675831225E+02  0.88344220299E+02  0.41800000000E+01 0.  1.
         -5    1    3    3    0  502  0.39047497368E+02  0.33472107019E+02 -0.84512320916E+02  0.99019663631E+02  0.41800000000E+01 0.  1.
        -11    1    4    4    0    0 -0.18681720002E+02 -0.29018889038E+02 -0.10958668640E+02  0.36210426698E+02  0.00000000000E+00 0. -1.
         11    1    4    4    0    0  0.29754633172E+02  0.44476102983E+02 -0.78730100510E+02  0.95193963349E+02  0.00000000000E+00 0.  1.
</event>
<event>
 8    1  0.6906553E-009  0.7508701E+02  0.7561462E-02  0.1343602E+00
         -1   -1    0    0    0  501 -0.00000000000E+00  0.00000000000E+00  0.25004697121E+02  0.25004697121E+02  0.00000000000E+00 0.  1.
          1   -1    0    0  501    0  0.00000000000E+00 -0.00000000000E+00 -0.50555951449E+03  0.50555951449E+03  0.00000000000E+00 0. -1.
         25    2    1    2    0    0  0.27943229531E+02  0.18666711040E+02 -0.24586470167E+03  0.27790471672E+03  0.12510919178E+03 0.  0.
         23    2    1    2    0    0 -0.27943229531E+02 -0.18666711040E+02 -0.23469011570E+03  0.25265949490E+03  0.87338993447E+02 0.  0.
          5    1    3    3  502    0  0.40820156753E+02  0.49541428004E+01 -0.25374265928E+03  0.25708683021E+03  0.41800000000E+01 0. -1.
         -5    1    3    3    0  502 -0.12876927221E+02  0.13712568239E+02  0.78779576119E+01  0.20817886505E+02  0.41800000000E+01 0. -1.
        -11    1    4    4    0    0  0.29270195326E+02  0.37852285277E+00 -0.45597700878E+02  0.54185218828E+02  0.00000000000E+00 0.  1.
         11    1    4    4    0    0 -0.57213424857E+02 -0.19045233893E+02 -0.18909241482E+03  0.19847427607E+03  0.00000000000E+00 0. -1.
</event>
<event>
 8    1  0.6906553E-009  0.1163423E+03  0.7561462E-02  0.1249256E+00
          1   -1    0    0  501    0  0.00000000000E+00  0.00000000000E+00  0.40133835539E+03  0.40133835539E+03  0.00000000000E+00 0. -1.
         -1   -1    0    0    0  501 -0.00000000000E+00 -0.00000000000E+00 -0.52816763088E+02  0.52816763088E+02  0.00000000000E+00 0.  1.
         25    2    1    2    0    0  0.95347806908E+02  0.21322862972E+02  0.19861595696E+03  0.25424885500E+03  0.12509321782E+03 0.  0.
         23    2    1    2    0    0 -0.95347806908E+02 -0.21322862972E+02  0.14990563534E+03  0.19990626347E+03  0.89134426013E+02 0.  0.
          5    1    3    3  502    0  0.21382192536E+02 -0.21303698121E+02  0.15561393476E+03  0.15856927446E+03  0.41800000000E+01 0.  1.
         -5    1    3    3    0  502  0.73965614372E+02  0.42626561093E+02  0.43002022198E+02  0.95679580545E+02  0.41800000000E+01 0.  1.
        -11    1    4    4    0    0 -0.50854879459E+02 -0.43596914450E+02  0.37002185827E+02  0.76524972854E+02  0.00000000000E+00 0.  1.
         11    1    4    4    0    0 -0.44492927450E+02  0.22274051478E+02  0.11290344952E+03  0.12338129062E+03  0.00000000000E+00 0. -1.
</event>
<event>
 8    1  0.6906553E-009  0.1051736E+03  0.7561462E-02  0.1269778E+00
          2   -1    0    0  501    0  0.00000000000E+00  0.00000000000E+00  0.21989452591E+03  0.21989452591E+03  0.00000000000E+00 0. -1.
         -2   -1    0    0    0  501 -0.00000000000E+00 -0.00000000000E+00 -0.85278940953E+02  0.85278940953E+02  0.00000000000E+00 0.  1.
         25    2    1    2    0    0 -0.50488536383E+02  0.10644320676E+02 -0.13520636006E+01  0.13531931973E+03  0.12508835417E+03 0.  0.
         23    2    1    2    0    0  0.50488536383E+02 -0.10644320676E+02  0.13596764856E+03  0.16985414713E+03  0.87754407152E+02 0.  0.
          5    1    3    3  502    0 -0.86805603602E+00 -0.41554919112E+02 -0.36131608290E+02  0.55231606361E+02  0.41800000000E+01 0. -1.
         -5    1    3    3    0  502 -0.49620480347E+02  0.52199239788E+02  0.34779544689E+02  0.80087713372E+02  0.41800000000E+01 0. -1.
        -11    1    4    4    0    0  0.61802706883E+02 -0.33958261844E+02  0.12066279798E+03  0.13975782247E+03  0.00000000000E+00 0. -1.
         11    1    4    4    0    0 -0.11314170499E+02  0.23313941168E+02  0.15304850581E+02  0.30096324663E+02  0.00000000000E+00 0.  1.
</event>
<event>
 8    1  0.6906553E-009  0.6776071E+02  0.7561462E-02  0.1367878E+00
          4   -1    0    0  501    0  0.00000000000E+00  0.00000000000E+00  0.11476429223E+02  0.11476429223E+02  0.00000000000E+00 0. -1.
         -4   -1    0    0    0  501 -0.00000000000E+00 -0.00000000000E+00 -0.10740436275E+04  0.10740436275E+04  0.00000000000E+00 0.  1.
         25    2    1    2    0    0  0.35473606460E+01 -0.12876721283E+02 -0.69367961183E+03  0.70499470236E+03  0.12509089801E+03 0.  0.
         23    2    1    2    0    0 -0.35473606460E+01  0.12876721283E+02 -0.36888758649E+03  0.38052535441E+03  0.92428892468E+02 0.  0.
          5    1    3    3  502    0  0.14747909287E+02 -0.24681035357E+02 -0.32467137370E+02  0.43568816184E+02  0.41800000000E+01 0. -1.
         -5    1    3    3    0  502 -0.11200548641E+02  0.11804314074E+02 -0.66121247446E+03  0.66142588618E+03  0.41800000000E+01 0. -1.
        -11    1    4    4    0    0  0.41705132614E+02  0.15113152887E+02 -0.23582199789E+03  0.23995778830E+03  0.00000000000E+00 0.  1.
         11    1    4    4    0    0 -0.45252493260E+02 -0.22364316038E+01 -0.13306558860E+03  0.14056756611E+03  0.00000000000E+00 0. -1.
</event>
<event>
 8    1  0.6906553E-009  0.1023487E+03  0.7561462E-02  0.1275433E+00
          3   -1    0    0  501    0  0.00000000000E+00  0.00000000000E+00  0.14794502694E+03  0.14794502694E+03  0.00000000000E+00 0. -1.
         -3   -1    0    0    0  501 -0.00000000000E+00 -0.00000000000E+00 -0.16220051720E+03  0.16220051720E+03  0.00000000000E+00 0.  1.
         25    2    1    2    0    0 -0.59773904094E+01  0.12585339082E+01 -0.11830205708E+03  0.17228047274E+03  0.12509145244E+03 0.  0.
         23    2    1    2    0    0  0.59773904094E+01 -0.12585339082E+01  0.10404656683E+03  0.13786507139E+03  0.90242876381E+02 0.  0.
          5    1    3    3  502    0 -0.58830925520E+02 -0.26258300902E+02 -0.71973737315E+02  0.96686438691E+02  0.41800000000E+01 0. -1.
         -5    1    3    3    0  502  0.52853535110E+02  0.27516834810E+02 -0.46328319769E+02  0.75594034052E+02  0.41800000000E+01 0. -1.
        -11    1    4    4    0    0 -0.32593425452E+02 -0.19238108429E+02  0.18084766106E+02  0.41946334330E+02  0.00000000000E+00 0.  1.
         11    1    4    4    0    0  0.38570815861E+02  0.17979574521E+02  0.85961800720E+02  0.95918737060E+02  0.00000000000E+00 0. -1.
</event>
<event>
 8    1  0.6906553E-009  0.1168957E+03  0.7561462E-02  0.1248308E+00
         -2   -1    0    0    0  501 -0.00000000000E+00  0.00000000000E+00  0.10293706634E+02  0.10293706634E+02  0.00000000000E+00 0.  1.
          2   -1    0    0  501    0  0.00000000000E+00 -0.00000000000E+00 -0.15936020341E+04  0.15936020341E+04  0.00000000000E+00 0. -1.
         25    2    1    2    0    0  0.30956463023E+01  0.57905014310E+02 -0.10968034233E+04  0.11054359905E+04  0.12509358903E+03 0.  0.
         23    2    1    2    0    0 -0.30956463023E+01 -0.57905014310E+02 -0.48650490407E+03  0.49845975014E+03  0.91719829471E+02 0.  0.
          5    1    3    3  502    0  0.32001638985E+02 -0.22860509852E+02 -0.59688977732E+03  0.59819861791E+03  0.41800000000E+01 0. -1.
         -5    1    3    3    0  502 -0.28905992683E+02  0.80765524162E+02 -0.49991364603E+03  0.50723737263E+03  0.41800000000E+01 0. -1.
        -11    1    4    4    0    0  0.25465481193E+02 -0.72098821445E+02 -0.35518697601E+03  0.36332426111E+03  0.00000000000E+00 0. -1.
         11    1    4    4    0    0 -0.28561127496E+02  0.14193807136E+02 -0.13131792807E+03  0.13513548903E+03  0.00000000000E+00 0.  1.
</event>
<event>
 8    1  0.6906553E-009  0.1286392E+03  0.7561462E-02  0.1229489E+00
         -1   -1    0    0    0  501 -0.00000000000E+00  0.00000000000E+00  0.36446176100E+02  0.36446176100E+02  0.00000000000E+00 0.  1.
          1   -1    0    0  501    0  0.00000000000E+00 -0.00000000000E+00 -0.84023982219E+03  0.84023982219E+03  0.00000000000E+00 0. -1.
         25    2    1    2    0    0 -0.73460924740E+02  0.64856365037E+02 -0.66718450887E+03  0.68584625577E+03  0.12508821737E+03 0.  0.
         23    2    1    2    0    0  0.73460924740E+02 -0.64856365037E+02 -0.13660913722E+03  0.19083974252E+03  0.90304459491E+02 0.  0.
          5    1    3    3  502    0 -0.13434733881E+02 -0.30807998242E+02 -0.66557892384E+02  0.74679650968E+02  0.41800000000E+01 0.  1.
         -5    1    3    3    0  502 -0.60026190859E+02  0.95664363279E+02 -0.60062661649E+03  0.61116660480E+03  0.41800000000E+01 0.  1.
        -11    1    4    4    0    0  0.46625967372E+02 -0.68964771578E+02 -0.43648808169E+02  0.93996484013E+02  0.00000000000E+00 0.  1.
         11    1    4    4    0    0  0.26834957368E+02  0.41084065415E+01 -0.92960329048E+02  0.96843258506E+02  0.00000000000E+00 0. -1.
</event>
<event>
 8    1  0.6906553E-009  0.1086780E+03  0.7561462E-02  0.1263038E+00
         -1   -1    0    0    0  501 -0.00000000000E+00  0.00000000000E+00  0.49221215661E+03  0.49221215661E+03  0.00000000000E+00 0.  1.
          1   -1    0    0  501    0  0.00000000000E+00 -0.00000000000E+00 -0.41773774441E+02  0.41773774441E+02  0.00000000000E+00 0. -1.
         25    2    1    2    0    0  0.28192169741E+02  0.89529406646E+02  0.24990978974E+03  0.29480969605E+03  0.12509013066E+03 0.  0.
         23    2    1    2    0    0 -0.28192169741E+02 -0.89529406646E+02  0.20052859243E+03  0.23917623501E+03  0.90461273036E+02 0.  0.
          5    1    3    3  502    0 -0.14616190876E+02  0.32162786006E+02  0.79683235788E+00  0.35583495911E+02  0.41800000000E+01 0.  1.
         -5    1    3    3    0  502  0.42808360618E+02  0.57366620640E+02  0.24911295738E+03  0.25922620014E+03  0.41800000000E+01 0.  1.
        -11    1    4    4    0    0 -0.45059357210E+02 -0.76433673509E+02  0.19886096502E+03  0.21775705620E+03  0.00000000000E+00 0.  1.
         11    1    4    4    0    0  0.16867187468E+02 -0.13095733137E+02  0.16676274177E+01  0.21419178805E+02  0.00000000000E+00 0. -1.
</event>
<event>
 8    1  0.6906553E-009  0.9808855E+02  0.7561462E-02  0.1284368E+00
          2   -1    0    0  501    0  0.00000000000E+00  0.00000000000E+00  0.32001153459E+02  0.32001153459E+02  0.00000000000E+00 0. -1.
         -2   -1    0    0    0  501 -0.00000000000E+00 -0.00000000000E+00 -0.39712190952E+03  0.39712190952E+03  0.00000000000E+00 0.  1.
         25    2    1    2    0    0 -0.18550952942E+02  0.26265519443E+02 -0.20360672458E+03  0.24111701698E+03  0.12509077592E+03 0.  0.
         23    2    1    2    0    0  0.18550952942E+02 -0.26265519443E+02 -0.16151403148E+03  0.18800604599E+03  0.90694407748E+02 0.  0.
          5    1    3    3  502    0  0.16382070517E+02  0.55775071109E+02 -0.18057086944E+03  0.18974335847E+03  0.41800000000E+01 0.  1.
         -5    1    3    3    0  502 -0.34933023459E+02 -0.29509551666E+02 -0.23035855132E+02  0.51373658515E+02  0.41800000000E+01 0.  1.
        -11    1    4    4    0    0  0.50839907559E+02 -0.78753782740E+00 -0.61063779594E+02  0.79461321376E+02  0.00000000000E+00 0. -1.
         11    1    4    4    0    0 -0.32288954617E+02 -0.25477981616E+02 -0.10045025189E+03  0.10854472461E+03  0.00000000000E+00 0.  1.
</event>
<event>
 8    1  0.6906553E-009  0.9230709E+02  0.7561462E-02  0.1297359E+00
          2   -1    0    0  501    0  0.00000000000E+00  0.00000000000E+00  0.14819902986E+03  0.14819902986E+03  0.00000000000E+00 0. -1.
         -2   -1    0    0    0  501 -0.00000000000E+00 -0.00000000000E+00 -0.90966939164E+02  0.90966939164E+02  0.00000000000E+00 0.  1.
         25    2    1    2    0    0 -0.30686065617E+02 -0.14124980347E+02  0.58890834460E+02  0.14232486453E+03  0.12508831675E+03 0.  0.
         23    2    1    2    0    0  0.30686065617E+02  0.14124980347E+02 -0.16587437651E+01  0.96841104491E+02  0.90743034969E+02 0.  0.
          5    1    3    3  502    0  0.35640300545E+01  0.36900637451E+02 -0.19924813502E+02  0.42294561679E+02  0.41800000000E+01 0. -1.
         -5    1    3    3    0  502 -0.34250095672E+02 -0.51025617798E+02  0.78815647961E+02  0.10003030285E+03  0.41800000000E+01 0. -1.
        -11    1    4    4    0    0  0.27976091400E+02 -0.30278345707E+02  0.21709245536E+02  0.46591106990E+02  0.00000000000E+00 0.  1.
         11    1    4    4    0    0  0.27099742172E+01  0.44403326055E+02 -0.23367989301E+02  0.50249997502E+02  0.00000000000E+00 0. -1.
</event>
<event>
 8    1  0.6906553E-009  0.2110949E+03  0.7561462E-02  0.1140702E+00
          2   -1    0    0  501    0  0.00000000000E+00  0.00000000000E+00  0.28587552166E+03  0.28587552166E+03  0.00000000000E+00 0.  1.
         -2   -1    0    0    0  501 -0.00000000000E+00 -0.00000000000E+00 -0.18937423131E+03  0.18937423131E+03  0.00000000000E+00 0. -1.
         25    2    1    2    0    0  0.14366062701E+03  0.13268620487E+03 -0.16788047459E+02  0.23275553154E+03  0.12509713909E+03 0.  0.
         23    2    1    2    0    0 -0.14366062701E+03 -0.13268620487E+03  0.11328933781E+03  0.24249422142E+03  0.87891800801E+02 0.  0.
          5    1    3    3  502    0  0.15429307321E+03  0.14333547421E+03 -0.11334025293E+01  0.21064227403E+03  0.41800000000E+01 0. -1.
         -5    1    3    3    0  502 -0.10632446201E+02 -0.10649269340E+02 -0.15654644930E+02  0.22113257507E+02  0.41800000000E+01 0. -1.
        -11    1    4    4    0    0 -0.28828268957E+02 -0.33482673894E+02 -0.11914375559E+02  0.45761456348E+02  0.00000000000E+00 0. -1.
         11    1    4    4    0    0 -0.11483235805E+03 -0.99203530976E+02  0.12520371337E+03  0.19673276508E+03  0.00000000000E+00 0.  1.
</event>
<event>
 8    1  0.6906553E-009  0.1309925E+03  0.7561462E-02  0.1225990E+00
         -1   -1    0    0    0  501 -0.00000000000E+00  0.00000000000E+00  0.46407471051E+02  0.46407471051E+02  0.00000000000E+00 0.  1.
          1   -1    0    0  501    0  0.00000000000E+00 -0.00000000000E+00 -0.42725791211E+03  0.42725791211E+03  0.00000000000E+00 0. -1.
         25    2    1    2    0    0  0.86844239276E+01 -0.80184418021E+02 -0.27854449240E+03  0.31581421101E+03  0.12508645616E+03 0.  0.
         23    2    1    2    0    0 -0.86844239276E+01  0.80184418021E+02 -0.10230594866E+03  0.15785117215E+03  0.89137676136E+02 0.  0.
          5    1    3    3  502    0  0.24208498378E+01  0.32075556898E+02 -0.36085331116E+02  0.48521391014E+02  0.41800000000E+01 0.  1.
         -5    1    3    3    0  502  0.62635740897E+01 -0.11225997492E+03 -0.24245916129E+03  0.26729282000E+03  0.41800000000E+01 0.  1.
        -11    1    4    4    0    0 -0.43941652050E+02  0.22343686401E+02 -0.61317510937E+02  0.78676211490E+02  0.00000000000E+00 0.  1.
         11    1    4    4    0    0  0.35257228122E+02  0.57840731620E+02 -0.40988437720E+02  0.79174960663E+02  0.00000000000E+00 0. -1.
</event>
<event>
 8    1  0.6906553E-009  0.1072547E+03  0.7561462E-02  0.1265740E+00
          1   -1    0    0  501    0  0.00000000000E+00  0.00000000000E+00  0.51103134566E+02  0.51103134566E+02  0.00000000000E+00 0. -1.
         -1   -1    0    0    0  501 -0.00000000000E+00 -0.00000000000E+00 -0.33708895385E+03  0.33708895385E+03  0.00000000000E+00 0.  1.
         25    2    1    2    0    0 -0.38610466619E+02 -0.27344167317E+02 -0.24356570097E+03  0.27786783245E+03  0.12509120674E+03 0.  0.
         23    2    1    2    0    0  0.38610466619E+02  0.27344167317E+02 -0.42420118312E+02  0.11032425596E+03  0.90185937915E+02 0.  0.
          5    1    3    3  502    0 -0.79192392698E+02 -0.15934324156E+02 -0.10246138018E+03  0.13054173500E+03  0.41800000000E+01 0. -1.
         -5    1    3    3    0  502  0.40581926079E+02 -0.11409843160E+02 -0.14110432079E+03  0.14732609745E+03  0.41800000000E+01 0. -1.
        -11    1    4    4    0    0 -0.23984143862E+02  0.33187356217E+01 -0.35430918714E+02  0.42913904085E+02  0.00000000000E+00 0.  1.
         11    1    4    4    0    0  0.62594610481E+02  0.24025431695E+02 -0.69891995982E+01  0.67410351879E+02  0.00000000000E+00 0. -1.
</event>
<event>
 8    1  0.6906553E-009  0.1168735E+03  0.7561462E-02  0.1248346E+00
         -3   -1    0    0    0  501 -0.00000000000E+00  0.00000000000E+00  0.41471567729E+02  0.41471567729E+02  0.00000000000E+00 0.  1.
          3   -1    0    0  501    0  0.00000000000E+00 -0.00000000000E+00 -0.39417395021E+03  0.39417395021E+03  0.00000000000E+00 0. -1.
         25    2    1    2    0    0  0.54432211049E+02  0.28096073188E+00 -0.25088855269E+03  0.28557931252E+03  0.12509010083E+03 0.  0.
         23    2    1    2    0    0 -0.54432211049E+02 -0.28096073188E+00 -0.10181382979E+03  0.15006620543E+03  0.95869001955E+02 0.  0.
          5    1    3    3  502    0  0.49387972601E+02  0.53576233480E+02 -0.89470613565E+02  0.11546448685E+03  0.41800000000E+01 0. -1.
         -5    1    3    3    0  502  0.50442384482E+01 -0.53295272748E+02 -0.16141793913E+03  0.17011482567E+03  0.41800000000E+01 0. -1.
        -11    1    4    4    0    0 -0.74624093892E+02  0.21205673972E+02 -0.88574264254E+02  0.11774479303E+03  0.00000000000E+00 0. -1.
         11    1    4    4    0    0  0.20191882843E+02 -0.21486634703E+02 -0.13239565537E+02  0.32321412395E+02  0.00000000000E+00 0.  1.
</event>
<event>
 8    1  0.6906553E-009  0.1220255E+03  0.7561462E-02  0.1239793E+00
         -1   -1    0    0    0  501 -0.00000000000E+00  0.00000000000E+00  0.49743255609E+03  0.49743255609E+03  0.00000000000E+00 0.  1.
          1   -1    0    0  501    0  0.00000000000E+00 -0.00000000000E+00 -0.36620834850E+02  0.36620834850E+02  0.00000000000E+00 0. -1.
         25    2    1    2    0    0 -0.10892422297E+01 -0.74270149126E+02  0.20160940010E+03  0.24861715794E+03  0.12508756738E+03 0.  0.
         23    2    1    2    0    0  0.10892422297E+01  0.74270149126E+02  0.25920232114E+03  0.28543623300E+03  0.93652326853E+02 0.  0.
          5    1    3    3  502    0 -0.51147835237E+02 -0.16632623983E+02  0.32379006288E+02  0.62917546665E+02  0.41800000000E+01 0.  1.
         -5    1    3    3    0  502  0.50058593008E+02 -0.57637525142E+02  0.16923039381E+03  0.18569961128E+03  0.41800000000E+01 0.  1.
        -11    1    4    4    0    0 -0.15653646464E+02 -0.15678695573E+02  0.22099818821E+02  0.31293132384E+02  0.00000000000E+00 0. -1.
         11    1    4    4    0    0  0.16742888694E+02  0.89948844699E+02  0.23710250232E+03  0.25414310062E+03  0.00000000000E+00 0.  1.
</event>
<event>
 8    1  0.6906553E-009  0.7451860E+02  0.7561462E-02  0.1345368E+00
         -4   -1    0    0    0  501 -0.00000000000E+00  0.00000000000E+00  0.67692865511E+02  0.67692865511E+02  0.00000000000E+00 0.  1.
          4   -1    0    0  501    0  0.00000000000E+00 -0.00000000000E+00 -0.20943206185E+03  0.20943206185E+03  0.00000000000E+00 0. -1.
         25    2    1    2    0    0 -0.25510342752E+01 -0.63189840192E+01 -0.27389484342E+02  0.12823207811E+03  0.12508734816E+03 0.  0.
         23    2    1    2    0    0  0.25510342752E+01  0.63189840192E+01 -0.11434971200E+03  0.14889284925E+03  0.95114597137E+02 0.  0.
          5    1    3    3  502    0 -0.25344866334E+02  0.24419271592E+02 -0.65240107941E+02  0.74245586796E+02  0.41800000000E+01 0.  1.
         -5    1    3    3    0  502  0.22793832059E+02 -0.30738255611E+02  0.37850623598E+02  0.53986491317E+02  0.41800000000E+01 0.  1.
        -11    1    4    4    0    0  0.37569544089E+02 -0.58608120030E+01 -0.10349717209E+03  0.11026098309E+03  0.00000000000E+00 0. -1.
         11    1    4    4    0    0 -0.35018509814E+02  0.12179796022E+02 -0.10852539906E+02  0.38631866162E+02  0.00000000000E+00 0.  1.
</event>
<event>
 8    1  0.6906553E-009  0.1292342E+03  0.7561462E-02  0.1228596E+00
          1   -1    0    0  501    0  0.00000000000E+00  0.00000000000E+00  0.40290861377E+03  0.40290861377E+03  0.00000000000E+00 0. -1.
         -1   -1    0    0    0  501 -0.00000000000E+00 -0.00000000000E+00 -0.78450019433E+02  0.78450019433E+02  0.00000000000E+00 0.  1.
         25    2    1    2    0    0  0.25271633996E+02 -0.92238580751E+02  0.33694388650E+02  0.16102583116E+03  0.12508954876E+03 0.  0.
         23    2    1    2    0    0 -0.25271633996E+02  0.92238580751E+02  0.29076420568E+03  0.32033280204E+03  0.94459882990E+02 0.  0.
          5    1    3    3  502    0 -0.22829005115E+02  0.55008088982E+01 -0.27184206308E+02  0.36164566162E+02  0.41800000000E+01 0. -1.
         -5    1    3    3    0  502  0.48100639111E+02 -0.97739389649E+02  0.60878594958E+02  0.12486126499E+03  0.41800000000E+01 0. -1.
        -11    1    4    4    0    0 -0.68263906058E+01  0.10367509628E+03  0.27359679449E+03  0.29266077830E+03  0.00000000000E+00 0. -1.
         11    1    4    4    0    0 -0.18445243390E+02 -0.11436515530E+02  0.17167411192E+02  0.27672023746E+02  0.00000000000E+00 0.  1.
</event>
<event>
 8    1  0.6906553E-009  0.1335533E+03  0.7561462E-02  0.1222276E+00
         -2   -1    0    0    0  501 -0.00000000000E+00  0.00000000000E+00  0.19179936172E+02  0.19179936172E+02  0.00000000000E+00 0. -1.
          2   -1    0    0  501    0  0.00000000000E+00 -0.00000000000E+00 -0.10388771659E+04  0.10388771659E+04  0.00000000000E+00 0.  1.
         25    2    1    2    0    0  0.83870798287E+02  0.25754179982E+02 -0.61615323468E+03  0.63481625460E+03  0.12509708192E+03 0.  0.
         23    2    1    2    0    0 -0.83870798287E+02 -0.25754179982E+02 -0.40354399507E+03  0.42324084749E+03  0.92668605463E+02 0.  0.
          5    1    3    3  502    0  0.11014951986E+03  0.41684213431E+02 -0.41974395875E+03  0.43597356993E+03  0.41800000000E+01 0. -1.
         -5    1    3    3    0  502 -0.26278721573E+02 -0.15930033448E+02 -0.19640927594E+03  0.19884268467E+03  0.41800000000E+01 0. -1.
        -11    1    4    4    0    0 -0.63093942755E+02  0.21475557747E+02 -0.30284577072E+03  0.31009289904E+03  0.00000000000E+00 0.  1.
         11    1    4    4    0    0 -0.20776855533E+02 -0.47229737730E+02 -0.10069822435E+03  0.11314794846E+03  0.00000000000E+00 0. -1.
</event>
<event>
 8    1  0.6906553E-009  0.9855927E+02  0.7561462E-02  0.1283355E+00
          1   -1    0    0  501    0  0.00000000000E+00  0.00000000000E+00  0.78626738921E+02  0.78626738921E+02  0.00000000000E+00 0. -1.
         -1   -1    0    0    0  501 -0.00000000000E+00 -0.00000000000E+00 -0.21373423506E+03  0.21373423506E+03  0.00000000000E+00 0.  1.
         25    2    1    2    0    0 -0.74908130355E+01  0.74459260267E+02 -0.67292465937E+02  0.16054570097E+03  0.12508538047E+03 0.  0.
         23    2    1    2    0    0  0.74908130355E+01 -0.74459260267E+02 -0.67815030206E+02  0.13181527302E+03  0.84711830101E+02 0.  0.
          5    1    3    3  502    0  0.14018539847E+02  0.62281209582E+02  0.22114789503E+02  0.67690507763E+02  0.41800000000E+01 0.  1.
         -5    1    3    3    0  502 -0.21509352882E+02  0.12178050685E+02 -0.89407255440E+02  0.92855193206E+02  0.41800000000E+01 0.  1.
        -11    1    4    4    0    0 -0.33701669274E+02 -0.49584488882E+02 -0.56502559884E+02  0.82383028125E+02  0.00000000000E+00 0.  1.
         11    1    4    4    0    0  0.41192482309E+02 -0.24874771385E+02 -0.11312470322E+02  0.49432244892E+02  0.00000000000E+00 0. -1.
</event>
<event>
 8    1  0.6906553E-009  0.8197349E+02  0.7561462E-02  0.1323542E+00
          2   -1    0    0  501    0  0.00000000000E+00  0.00000000000E+00  0.45028400564E+03  0.45028400564E+03  0.00000000000E+00 0.  1.
         -2   -1    0    0    0  501 -0.00000000000E+00 -0.00000000000E+00 -0.32162232345E+02  0.32162232345E+02  0.00000000000E+00 0. -1.
         25    2    1    2    0    0  0.34094490239E+02  0.40642590181E+01  0.31478062200E+03  0.34046232913E+03  0.12509518419E+03 0.  0.
         23    2    1    2    0    0 -0.34094490239E+02 -0.40642590181E+01  0.10334115129E+03  0.14198390885E+03  0.91110286773E+02 0.  0.
          5    1    3    3  502    0 -0.74826509822E+01  0.26237997772E+02  0.62174184500E+01  0.28294015003E+02  0.41800000000E+01 0. -1.
         -5    1    3    3    0  502  0.41577141221E+02 -0.22173738754E+02  0.30856320355E+03  0.31216831413E+03  0.41800000000E+01 0. -1.
        -11    1    4    4    0    0 -0.55406182622E+01 -0.41549476696E+02  0.20460792794E+02  0.46644415595E+02  0.00000000000E+00 0. -1.
         11    1    4    4    0    0 -0.28553871977E+02  0.37485217678E+02  0.82880358500E+02  0.95339493256E+02  0.00000000000E+00 0.  1.
</event>
<event>
 8    1  0.6906553E-009  0.1559180E+03  0.7561462E-02  0.1193384E+00
         -1   -1    0    0    0  501 -0.00000000000E+00  0.00000000000E+00  0.12530091745E+04  0.12530091745E+04  0.00000000000E+00 0.  1.
          1   -1    0    0  501    0  0.00000000000E+00 -0.00000000000E+00 -0.22721680439E+02  0.22721680439E+02  0.00000000000E+00 0. -1.
         25    2    1    2    0    0  0.11003065962E+03  0.53619912324E+02  0.52412652295E+03  0.55257187372E+03  0.12508086388E+03 0.  0.
         23    2    1    2    0    0 -0.11003065962E+03 -0.53619912324E+02  0.70616097108E+03  0.72315898119E+03  0.96507792175E+02 0.  0.
          5    1    3    3  502    0  0.11270078181E+03  0.91189113735E+01  0.24485227774E+03  0.26973084933E+03  0.41800000000E+01 0. -1.
         -5    1    3    3    0  502 -0.26701221941E+01  0.44501000950E+02  0.27927424521E+03  0.28284102439E+03  0.41800000000E+01 0. -1.
        -11    1    4    4    0    0 -0.40296190854E+02 -0.71365419044E+02  0.31844141116E+03  0.32881870138E+03  0.00000000000E+00 0.  1.
         11    1    4    4    0    0 -0.69734468763E+02  0.17745506720E+02  0.38771955992E+03  0.39434027981E+03  0.00000000000E+00 0. -1.
</event>
<event>
 8    1  0.6906553E-009  0.1296804E+03  0.7561462E-02  0.1227931E+00
          1   -1    0    0  501    0  0.00000000000E+00  0.00000000000E+00  0.13827243461E+03  0.13827243461E+03  0.00000000000E+00 0. -1.
         -1   -1    0    0    0  501 -0.00000000000E+00 -0.00000000000E+00 -0.17566655859E+03  0.17566655859E+03  0.00000000000E+00 0.  1.
         25    2    1    2    0    0  0.98159067318E+02 -0.39392851554E+02  0.20686765630E+02  0.16511431787E+03  0.12509115253E+03 0.  0.
         23    2    1    2    0    0 -0.98159067318E+02  0.39392851554E+02 -0.58080889603E+02  0.14882467533E+03  0.87111394204E+02 0.  0.
          5    1    3    3  502    0  0.42512448481E+02 -0.49807804149E+02  0.65557922301E+02  0.92754726060E+02  0.41800000000E+01 0. -1.
         -5    1    3    3    0  502  0.55646618837E+02  0.10414952595E+02 -0.44871156671E+02  0.72359591808E+02  0.41800000000E+01 0. -1.
        -11    1    4    4    0    0 -0.94410849745E+02 -0.29611715670E+01 -0.41838170012E+02  0.10330832278E+03  0.00000000000E+00 0.  1.
         11    1    4    4    0    0 -0.37482175732E+01  0.42354023121E+02 -0.16242719592E+02  0.45516352547E+02  0.00000000000E+00 0. -1.
</event>
<event>
 8    1  0.6906553E-009  0.8498864E+02  0.7561462E-02  0.1315462E+00
         -1   -1    0    0    0  501 -0.00000000000E+00  0.00000000000E+00  0.92000228385E+02  0.92000228385E+02  0.00000000000E+00 0.  1.
          1   -1    0    0  501    0  0.00000000000E+00 -0.00000000000E+00 -0.13792517516E+03  0.13792517516E+03  0.00000000000E+00 0. -1.
         25    2    1    2    0    0  0.14267692882E+02  0.24832798993E+02 -0.12586501394E+02  0.12894427629E+03  0.12509185187E+03 0.  0.
         23    2    1    2    0    0 -0.14267692882E+02 -0.24832798993E+02 -0.33338445379E+02  0.10098112725E+03  0.90914801626E+02 0.  0.
          5    1    3    3  502    0 -0.15266023169E+02  0.58221078094E+02 -0.43635646720E+02  0.74459972216E+02  0.41800000000E+01 0.  1.
         -5    1    3    3    0  502  0.29533716051E+02 -0.33388279101E+02  0.31049145325E+02  0.54484304075E+02  0.41800000000E+01 0.  1.
        -11    1    4    4    0    0 -0.31017938314E+02  0.42521886566E+01  0.20582344933E+02  0.37467673114E+02  0.00000000000E+00 0.  1.
         11    1    4    4    0    0  0.16750245432E+02 -0.29084987650E+02 -0.53920790313E+02  0.63513454138E+02  0.00000000000E+00 0. -1.
</event>
<event>
 8    1  0.6906553E-009  0.1733892E+03  0.7561462E-02  0.1174359E+00
          2   -1    0    0  501    0  0.00000000000E+00  0.00000000000E+00  0.17280702246E+03  0.17280702246E+03  0.00000000000E+00 0. -1.
         -2   -1    0    0    0  501 -0.00000000000E+00 -0.00000000000E+00 -0.28364101736E+03  0.28364101736E+03  0.00000000000E+00 0.  1.
         25    2    1    2    0    0 -0.11385785208E+03 -0.89091656605E+02 -0.18858299610E+03  0.26853614869E+03  0.12508870045E+03 0.  0.
         23    2    1    2    0    0  0.11385785208E+03  0.89091656605E+02  0.77749001201E+02  0.18791189113E+03  0.91460581029E+02 0.  0.
          5    1    3    3  502    0 -0.44653037492E+01 -0.80965708545E+02 -0.74055642777E+02  0.10989583943E+03  0.41800000000E+01 0.  1.
         -5    1    3    3    0  502 -0.10939254833E+03 -0.81259480601E+01 -0.11452735332E+03  0.15864030926E+03  0.41800000000E+01 0.  1.
        -11    1    4    4    0    0  0.49383446144E+00  0.26127755337E+02  0.48327109801E+02  0.54940085667E+02  0.00000000000E+00 0. -1.
         11    1    4    4    0    0  0.11336401762E+03  0.62963901268E+02  0.29421891401E+02  0.13297180546E+03  0.00000000000E+00 0.  1.
</event>
<event>
 8    1  0.6906553E-009  0.1150205E+03  0.7561462E-02  0.1251545E+00
         -1   -1    0    0    0  501 -0.00000000000E+00  0.00000000000E+00  0.25522405569E+02  0.25522405569E+02  0.00000000000E+00 0.  1.
          1   -1    0    0  501    0  0.00000000000E+00 -0.00000000000E+00 -0.92609470508E+03  0.92609470508E+03  0.00000000000E+00 0. -1.
         25    2    1    2    0    0 -0.72893769983E+02  0.10918769694E+02 -0.69885762667E+03  0.71378049800E+03  0.12509154937E+03 0.  0.
         23    2    1    2    0    0  0.72893769983E+02 -0.10918769694E+02 -0.20171467283E+03  0.23783661265E+03  0.10219943174E+03 0.  0.
          5    1    3    3  502    0 -0.25189590694E+02  0.63349982609E+02 -0.24265283034E+03  0.25208253460E+03  0.41800000000E+01 0.  1.
         -5    1    3    3    0  502 -0.47704179289E+02 -0.52431212915E+02 -0.45620479633E+03  0.46169796340E+03  0.41800000000E+01 0.  1.
        -11    1    4    4    0    0  0.47121010131E+02 -0.32394875249E+02 -0.33423094521E+02  0.66233834145E+02  0.00000000000E+00 0.  1.
         11    1    4    4    0    0  0.25772759852E+02  0.21476105555E+02 -0.16829157831E+03  0.17160277850E+03  0.00000000000E+00 0. -1.
</event>
<event>
 8    1  0.6906553E-009  0.1131857E+03  0.7561462E-02  0.1254782E+00
         -1   -1    0    0    0  501 -0.00000000000E+00  0.00000000000E+00  0.16963735804E+03  0.16963735804E+03  0.00000000000E+00 0. -1.
          1   -1    0    0  501    0  0.00000000000E+00 -0.00000000000E+00 -0.12736627324E+03  0.12736627324E+03  0.00000000000E+00 0.  1.
         25    2    1    2    0    0 -0.64625773729E+01  0.89300828130E+02  0.66507401119E+02  0.16759185063E+03  0.12508953266E+03 0.  0.
         23    2    1    2    0    0  0.64625773729E+01 -0.89300828130E+02 -0.24236316320E+02  0.12941178066E+03  0.90241936664E+02 0.  0.
          5    1    3    3  502    0  0.34690043083E+02 -0.35768654038E+01 -0.14094656953E+02  0.37846067296E+02  0.41800000000E+01 0. -1.
         -5    1    3    3    0  502 -0.41152620455E+02  0.92877693534E+02  0.80602058072E+02  0.12974578333E+03  0.41800000000E+01 0. -1.
        -11    1    4    4    0    0  0.40624493283E+01 -0.71257935660E+02 -0.57393458987E+02  0.91587149882E+02  0.00000000000E+00 0.  1.
         11    1    4    4    0    0  0.24001280446E+01 -0.18042892470E+02  0.33157142667E+02  0.37824630774E+02  0.00000000000E+00 0. -1.
</event>
<event>
 8    1  0.6906553E-009  0.9422988E+02  0.7561462E-02  0.1292920E+00
         -2   -1    0    0    0  501 -0.00000000000E+00  0.00000000000E+00  0.37606740974E+02  0.37606740974E+02  0.00000000000E+00 0.  1.
          2   -1    0    0  501    0  0.00000000000E+00 -0.00000000000E+00 -0.41931872866E+03  0.41931872866E+03  0.00000000000E+00 0. -1.
         25    2    1    2    0    0  0.33520519081E+02  0.45439126778E+02 -0.27410102990E+03  0.30654016321E+03  0.12508859910E+03 0.  0.
         23    2    1    2    0    0 -0.33520519081E+02 -0.45439126778E+02 -0.10761095778E+03  0.15038530643E+03  0.88584889862E+02 0.  0.
          5    1    3    3  502    0 -0.19550541279E+02  0.45614021952E+02 -0.23568842712E+03  0.24089285946E+03  0.41800000000E+01 0.  1.
         -5    1    3    3    0  502  0.53071060361E+02 -0.17489517321E+00 -0.38412602781E+02  0.65647303741E+02  0.41800000000E+01 0.  1.
        -11    1    4    4    0    0 -0.97783445233E+01 -0.57822516958E+02 -0.10878181853E+03  0.12358213273E+03  0.00000000000E+00 0. -1.
         11    1    4    4    0    0 -0.23742174558E+02  0.12383390179E+02  0.11708607439E+01  0.26803173692E+02  0.00000000000E+00 0.  1.
</event>
<event>
 8    1  0.6906553E-009  0.1711700E+03  0.7561462E-02  0.1176633E+00
         -1   -1    0    0    0  501 -0.00000000000E+00  0.00000000000E+00  0.27018136065E+02  0.27018136065E+02  0.00000000000E+00 0.  1.
          1   -1    0    0  501    0  0.00000000000E+00 -0.00000000000E+00 -0.12728894026E+04  0.12728894026E+04  0.00000000000E+00 0. -1.
         25    2    1    2    0    0  0.90877941040E+02 -0.11977284037E+03 -0.65251637671E+03  0.68119715734E+03  0.12509041460E+03 0.  0.
         23    2    1    2    0    0 -0.90877941040E+02  0.11977284037E+03 -0.59335488984E+03  0.61871038135E+03  0.90156404281E+02 0.  0.
          5    1    3    3  502    0  0.72017760884E+02 -0.30782565895E+02 -0.47759007131E+03  0.48398747180E+03  0.41800000000E+01 0. -1.
         -5    1    3    3    0  502  0.18860180156E+02 -0.88990274474E+02 -0.17492630540E+03  0.19720968553E+03  0.41800000000E+01 0. -1.
        -11    1    4    4    0    0 -0.42728483138E+02  0.11706531593E+03 -0.47064535592E+03  0.48686452173E+03  0.00000000000E+00 0. -1.
         11    1    4    4    0    0 -0.48149457902E+02  0.27075244374E+01 -0.12270953392E+03  0.13184585962E+03  0.00000000000E+00 0.  1.
</event>
<event>
 8    1  0.6906553E-009  0.1230700E+03  0.7561462E-02  0.1238117E+00
         -2   -1    0    0    0  501 -0.00000000000E+00  0.00000000000E+00  0.39681986325E+02  0.39681986325E+02  0.00000000000E+00 0.  1.
          2   -1    0    0  501    0  0.00000000000E+00 -0.00000000000E+00 -0.41584586247E+03  0.41584586247E+03  0.00000000000E+00 0. -1.
         25    2    1    2    0    0  0.23864009955E+02 -0.56399211902E+02 -0.26622697762E+03  0.30045724033E+03  0.12508951827E+03 0.  0.
         23    2    1    2    0    0 -0.23864009955E+02  0.56399211902E+02 -0.10993689853E+03  0.15507060847E+03  0.90611312086E+02 0.  0.
          5    1    3    3  502    0  0.12079826253E+02 -0.96362822902E+02 -0.17863338395E+03  0.20336930472E+03  0.41800000000E+01 0.  1.
         -5    1    3    3    0  502  0.11784183702E+02  0.39963611000E+02 -0.87593593667E+02  0.97087935611E+02  0.41800000000E+01 0.  1.
        -11    1    4    4    0    0  0.16906311343E+02 -0.16442646798E+02 -0.12247932589E+02  0.26574345705E+02  0.00000000000E+00 0.  1.
         11    1    4    4    0    0 -0.40770321298E+02  0.72841858699E+02 -0.97688965939E+02  0.12849626276E+03  0.00000000000E+00 0. -1.
</event>
<event>
 8    1  0.6906553E-009  0.1692874E+03  0.7561462E-02  0.1178593E+00
         -1   -1    0    0    0  501 -0.00000000000E+00  0.00000000000E+00  0.44559409768E+03  0.44559409768E+03  0.00000000000E+00 0.  1.
          1   -1    0    0  501    0  0.00000000000E+00 -0.00000000000E+00 -0.77536659367E+02  0.77536659367E+02  0.00000000000E+00 0. -1.
         25    2    1    2    0    0  0.30630419072E+02  0.13581428656E+03  0.11206945484E+03  0.21815410732E+03  0.12509160175E+03 0.  0.
         23    2    1    2    0    0 -0.30630419072E+02 -0.13581428656E+03  0.25598798347E+03  0.30497664972E+03  0.89984255228E+02 0.  0.
          5    1    3    3  502    0  0.68533046958E+02  0.76380862650E+02  0.24365111029E+02  0.10555541549E+03  0.41800000000E+01 0. -1.
         -5    1    3    3    0  502 -0.37902627886E+02  0.59433423909E+02  0.87704343814E+02  0.11259869183E+03  0.41800000000E+01 0. -1.
        -11    1    4    4    0    0  0.15919621930E+02  0.52072622936E+01  0.33894408679E+02  0.37807153856E+02  0.00000000000E+00 0.  1.
         11    1    4    4    0    0 -0.46550041002E+02 -0.14102154885E+03  0.22209357479E+03  0.26716949587E+03  0.00000000000E+00 0. -1.
</event>
<event>
 8    1  0.6906553E-009  0.1253604E+03  0.7561462E-02  0.1234507E+00
         -1   -1    0    0    0  501 -0.00000000000E+00  0.00000000000E+00  0.56208983539E+02  0.56208983539E+02  0.00000000000E+00 0.  1.
          1   -1    0    0  501    0  0.00000000000E+00 -0.00000000000E+00 -0.33040898795E+03  0.33040898795E+03  0.00000000000E+00 0. -1.
         25    2    1    2    0    0 -0.51754439587E+02 -0.59405896597E+02 -0.18643156606E+03  0.23793209447E+03  0.12508944874E+03 0.  0.
         23    2    1    2    0    0  0.51754439587E+02  0.59405896597E+02 -0.87768438349E+02  0.14868587702E+03  0.90535124057E+02 0.  0.
          5    1    3    3  502    0 -0.89474849212E+02 -0.63301496243E+02 -0.13798546160E+03  0.17626766034E+03  0.41800000000E+01 0.  1.
         -5    1    3    3    0  502  0.37720409625E+02  0.38955996456E+01 -0.48446104460E+02  0.61664434128E+02  0.41800000000E+01 0.  1.
        -11    1    4    4    0    0 -0.10813242936E+02 -0.60064956801E+01  0.96624785410E+01  0.15696104762E+02  0.00000000000E+00 0.  1.
         11    1    4    4    0    0  0.62567682523E+02  0.65412392277E+02 -0.97430916890E+02  0.13298977226E+03  0.00000000000E+00 0. -1.
</event>
<event>
 8    1  0.6906553E-009  0.1166582E+03  0.7561462E-02  0.1248714E+00
         -1   -1    0    0    0  501 -0.00000000000E+00  0.00000000000E+00  0.70025653672E+03  0.70025653672E+03  0.00000000000E+00 0.  1.
          1   -1    0    0  501    0  0.00000000000E+00 -0.00000000000E+00 -0.35544938270E+02  0.35544938270E+02  0.00000000000E+00 0. -1.
         25    2    1    2    0    0 -0.49953916568E+02  0.96245661530E+02  0.28746513950E+03  0.33172707140E+03  0.12509205541E+03 0.  0.
         23    2    1    2    0    0  0.49953916568E+02 -0.96245661530E+02  0.37724645895E+03  0.40407440359E+03  0.95930243950E+02 0.  0.
          5    1    3    3  502    0 -0.49197549413E+02  0.84869684400E+02  0.87874747305E+02  0.13176762050E+03  0.41800000000E+01 0.  1.
         -5    1    3    3    0  502 -0.75636715474E+00  0.11375977131E+02  0.19959039220E+03  0.19995945090E+03  0.41800000000E+01 0.  1.
        -11    1    4    4    0    0  0.49810555054E+02 -0.33022485473E+02  0.78220943452E+02  0.98438264593E+02  0.00000000000E+00 0. -1.
         11    1    4    4    0    0  0.14336151385E+00 -0.63223176058E+02  0.29902551550E+03  0.30563613900E+03  0.00000000000E+00 0.  1.
</event>
<event>
 8    1  0.6906553E-009  0.1087531E+03  0.7561462E-02  0.1262897E+00
          4   -1    0    0  501    0  0.00000000000E+00  0.00000000000E+00  0.67749742911E+02  0.67749742911E+02  0.00000000000E+00 0. -1.
         -4   -1    0    0    0  501 -0.00000000000E+00 -0.00000000000E+00 -0.24371688832E+03  0.24371688832E+03  0.00000000000E+00 0.  1.
         25    2    1    2    0    0 -0.25091827074E+02  0.45888101497E+02 -0.15036422647E+03  0.20246777833E+03  0.12509389680E+03 0.  0.
         23    2    1    2    0    0  0.25091827074E+02 -0.45888101497E+02 -0.25602918939E+02  0.10899885290E+03  0.92140777236E+02 0.  0.
          5    1    3    3  502    0 -0.73555456899E+02  0.91956311890E+01 -0.74709244990E+02  0.10532762486E+03  0.41800000000E+01 0.  1.
         -5    1    3    3    0  502  0.48463629825E+02  0.36692470308E+02 -0.75654981479E+02  0.97140153467E+02  0.41800000000E+01 0.  1.
        -11    1    4    4    0    0  0.46698591057E+02 -0.32826629781E+02 -0.48508163995E+02  0.74909198391E+02  0.00000000000E+00 0.  1.
         11    1    4    4    0    0 -0.21606763983E+02 -0.13061471716E+02  0.22905245057E+02  0.34089654505E+02  0.00000000000E+00 0. -1.
</event>
<event>
 8    1  0.6906553E-009  0.2424148E+03  0.7561462E-02  0.1118195E+00
         -1   -1    0    0    0  501 -0.00000000000E+00  0.00000000000E+00  0.97457368472E+02  0.97457368472E+02  0.00000000000E+00 0.  1.
          1   -1    0    0  501    0  0.00000000000E+00 -0.00000000000E+00 -0.68347798195E+03  0.68347798195E+03  0.00000000000E+00 0. -1.
         25    2    1    2    0    0  0.73887381794E+02  0.20543528259E+03 -0.42954777741E+03  0.49781857104E+03  0.12509610735E+03 0.  0.
         23    2    1    2    0    0 -0.73887381794E+02 -0.20543528259E+03 -0.15647283607E+03  0.28311677938E+03  0.89489450875E+02 0.  0.
          5    1    3    3  502    0  0.80983320952E+02  0.50833985651E+02 -0.14202791390E+03  0.17126527113E+03  0.41800000000E+01 0.  1.
         -5    1    3    3    0  502 -0.70959391586E+01  0.15460129694E+03 -0.28751986351E+03  0.32655329991E+03  0.41800000000E+01 0.  1.
        -11    1    4    4    0    0  0.17749568688E+02 -0.58500872743E+02 -0.26657878406E+02  0.66693641236E+02  0.00000000000E+00 0.  1.
         11    1    4    4    0    0 -0.91636950482E+02 -0.14693440985E+03 -0.12981495767E+03  0.21642313815E+03  0.00000000000E+00 0. -1.
</event>
<event>
 8    1  0.6906553E-009  0.1072059E+03  0.7561462E-02  0.1265833E+00
          2   -1    0    0  501    0  0.00000000000E+00  0.00000000000E+00  0.17566457285E+03  0.17566457285E+03  0.00000000000E+00 0.  1.
         -2   -1    0    0    0  501 -0.00000000000E+00 -0.00000000000E+00 -0.97165856847E+02  0.97165856847E+02  0.00000000000E+00 0. -1.
         25    2    1    2    0    0 -0.57873228274E+02  0.36637163536E+02  0.19732632246E+02  0.14398313096E+03  0.12510065117E+03 0.  0.
         23    2    1    2    0    0  0.57873228274E+02 -0.36637163536E+02  0.58766083761E+02  0.12884729874E+03  0.91959673165E+02 0.  0.
          5    1    3    3  502    0 -0.73725529865E+02 -0.58719442267E+01  0.49921338510E+02  0.89328304145E+02  0.41800000000E+01 0.  1.
         -5    1    3    3    0  502  0.15852301591E+02  0.42509107762E+02 -0.30188706264E+02  0.54654826817E+02  0.41800000000E+01 0.  1.
        -11    1    4    4    0    0 -0.12863500251E+02  0.36471867216E+01 -0.14217570704E+02  0.19516939473E+02  0.00000000000E+00 0. -1.
         11    1    4    4    0    0  0.70736728524E+02 -0.40284350257E+02  0.72983654465E+02  0.10933035926E+03  0.00000000000E+00 0.  1.
</event>
<event>
 8    1  0.6906553E-009  0.1320169E+03  0.7561462E-02  0.1224493E+00
         -3   -1    0    0    0  501 -0.00000000000E+00  0.00000000000E+00  0.53712591725E+02  0.53712591725E+02  0.00000000000E+00 0.  1.
          3   -1    0    0  501    0  0.00000000000E+00 -0.00000000000E+00 -0.65296821869E+03  0.65296821869E+03  0.00000000000E+00 0. -1.
         25    2    1    2    0    0 -0.67088807897E+02  0.11254595930E+03 -0.46572527383E+03  0.49971483772E+03  0.12508951696E+03 0.  0.
         23    2    1    2    0    0  0.67088807897E+02 -0.11254595930E+03 -0.13353035313E+03  0.20696597270E+03  0.88527157115E+02 0.  0.
          5    1    3    3  502    0 -0.52778476893E+02  0.69880574599E+02 -0.10781290597E+03  0.13896027282E+03  0.41800000000E+01 0.  1.
         -5    1    3    3    0  502 -0.14310331004E+02  0.42665384697E+02 -0.35791236786E+03  0.36075456490E+03  0.41800000000E+01 0.  1.
        -11    1    4    4    0    0  0.16949255460E+02 -0.33835859846E+02 -0.10145665037E+03  0.10828478461E+03  0.00000000000E+00 0. -1.
         11    1    4    4    0    0  0.50139552437E+02 -0.78710099450E+02 -0.32073702761E+02  0.98681188090E+02  0.00000000000E+00 0.  1.
</event>
<event>
 8    1  0.6906553E-009  0.2267163E+03  0.7561462E-02  0.1128973E+00
          1   -1    0    0  501    0  0.00000000000E+00  0.00000000000E+00  0.10131041909E+04  0.10131041909E+04  0.00000000000E+00 0. -1.
         -1   -1    0    0    0  501 -0.00000000000E+00 -0.00000000000E+00 -0.95349022688E+02  0.95349022688E+02  0.00000000000E+00 0.  1.
         25    2    1    2    0    0  0.21287321483E+03 -0.44651886489E+02  0.12306195933E+03  0.27946523097E+03  0.12509105855E+03 0.  0.
         23    2    1    2    0    0 -0.21287321483E+03  0.44651886489E+02  0.79469320888E+03  0.82898798261E+03  0.91514930549E+02 0.  0.
          5    1    3    3  502    0  0.12246336581E+03 -0.69665510055E+02  0.24018816503E+02  0.14298578672E+03  0.41800000000E+01 0. -1.
         -5    1    3    3    0  502  0.90409849017E+02  0.25013623566E+02  0.99043142825E+02  0.13647944425E+03  0.41800000000E+01 0. -1.
        -11    1    4    4    0    0 -0.19066094285E+03  0.32997942203E+02  0.76942991593E+03  0.79338695153E+03  0.00000000000E+00 0. -1.
         11    1    4    4    0    0 -0.22212271976E+02  0.11653944286E+02  0.25263292949E+02  0.35601031086E+02  0.00000000000E+00 0.  1.
</event>
<event>
 8    1  0.6906553E-009  0.3639751E+02  0.7561462E-02  0.1536529E+00
          2   -1    0    0  501    0  0.00000000000E+00  0.00000000000E+00  0.97700592286E+02  0.97700592286E+02  0.00000000000E+00 0.  1.
         -2   -1    0    0    0  501 -0.00000000000E+00 -0.00000000000E+00 -0.12320219806E+03  0.12320219806E+03  0.00000000000E+00 0. -1.
         25    2    1    2    0    0 -0.94801879086E+01 -0.16524891165E+02 -0.48175809962E+01  0.12661500385E+03  0.12508079038E+03 0.  0.
         23    2    1    2    0    0  0.94801879086E+01  0.16524891165E+02 -0.20684024775E+02  0.94287786498E+02  0.89996732224E+02 0.  0.
          5    1    3    3  502    0  0.21689282990E+01 -0.12892978298E+02 -0.64300756180E+02  0.65749469843E+02  0.41800000000E+01 0.  1.
         -5    1    3    3    0  502 -0.11649116208E+02 -0.36319128664E+01  0.59483175184E+02  0.60865534002E+02  0.41800000000E+01 0.  1.
        -11    1    4    4    0    0 -0.34051878735E+01 -0.13274739993E+02 -0.49202164916E+02  0.51075111931E+02  0.00000000000E+00 0. -1.
         11    1    4    4    0    0  0.12885375782E+02  0.29799631158E+02  0.28518140141E+02  0.43212674567E+02  0.00000000000E+00 0.  1.
</event>
<event>
 8    1  0.6906553E-009  0.1253834E+03  0.7561462E-02  0.1234471E+00
         -1   -1    0    0    0  501 -0.00000000000E+00  0.00000000000E+00  0.57406741834E+03  0.57406741834E+03  0.00000000000E+00 0.  1.
          1   -1    0    0  501    0  0.00000000000E+00 -0.00000000000E+00 -0.47582160961E+02  0.47582160961E+02  0.00000000000E+00 0. -1.
         25    2    1    2    0    0 -0.10590702381E+03  0.41044372496E+02  0.37802122881E+03  0.41406323015E+03  0.12508945170E+03 0.  0.
         23    2    1    2    0    0  0.10590702381E+03 -0.41044372496E+02  0.14846402857E+03  0.20758634915E+03  0.90275059500E+02 0.  0.
          5    1    3    3  502    0 -0.95310476561E+02  0.21278609107E+02  0.11881465466E+03  0.15385467399E+03  0.41800000000E+01 0. -1.
         -5    1    3    3    0  502 -0.10596547251E+02  0.19765763389E+02  0.25920657415E+03  0.26020855616E+03  0.41800000000E+01 0. -1.
        -11    1    4    4    0    0 -0.24592135701E+01 -0.19582360576E+02  0.68299362706E+02  0.71093737580E+02  0.00000000000E+00 0.  1.
         11    1    4    4    0    0  0.10836623738E+03 -0.21462011920E+02  0.80164665867E+02  0.13649261157E+03  0.00000000000E+00 0. -1.
</event>
<event>
 8    1  0.6906553E-009  0.1182915E+03  0.7561462E-02  0.1245942E+00
          2   -1    0    0  501    0  0.00000000000E+00  0.00000000000E+00  0.10412520154E+04  0.10412520154E+04  0.00000000000E+00 0. -1.
         -2   -1    0    0    0  501 -0.00000000000E+00 -0.00000000000E+00 -0.14349208539E+02  0.14349208539E+02  0.00000000000E+00 0.  1.
         25    2    1    2    0    0 -0.25127857581E+02 -0.47142029756E+02  0.65456005003E+03  0.66854117656E+03  0.12507863712E+03 0.  0.
         23    2    1    2    0    0  0.25127857581E+02  0.47142029756E+02  0.37234275686E+03  0.38706004741E+03  0.91228128984E+02 0.  0.
          5    1    3    3  502    0 -0.64044352576E+02  0.11762159650E+02  0.30632496675E+03  0.31319719851E+03  0.41800000000E+01 0. -1.
         -5    1    3    3    0  502  0.38916494995E+02 -0.58904189407E+02  0.34823508327E+03  0.35534397805E+03  0.41800000000E+01 0. -1.
        -11    1    4    4    0    0  0.12072364159E+02  0.71747684737E+02  0.20762421252E+03  0.22000292240E+03  0.00000000000E+00 0.  1.
         11    1    4    4    0    0  0.13055493421E+02 -0.24605654981E+02  0.16471854435E+03  0.16705712501E+03  0.00000000000E+00 0. -1.
</event>
<event>
 8    1  0.6906553E-009  0.3861989E+03  0.7561462E-02  0.1048666E+00
         -2   -1    0    0    0  501 -0.00000000000E+00  0.00000000000E+00  0.10473639015E+03  0.10473639015E+03  0.00000000000E+00 0.  1.
          2   -1    0    0  501    0  0.00000000000E+00 -0.00000000000E+00 -0.14362892543E+04  0.14362892543E+04  0.00000000000E+00 0. -1.
         25    2    1    2    0    0  0.30483276646E+03  0.21078362273E+03 -0.73941143003E+03  0.83649841790E+03  0.12509032406E+03 0.  0.
         23    2    1    2    0    0 -0.30483276646E+03 -0.21078362273E+03 -0.59214143410E+03  0.70452722654E+03  0.91511659527E+02 0.  0.
          5    1    3    3  502    0  0.13760002185E+03  0.17011700314E+03 -0.40210875798E+03  0.45780179817E+03  0.41800000000E+01 0. -1.
         -5    1    3    3    0  502  0.16723274461E+03  0.40666619592E+02 -0.33730267205E+03  0.37869661973E+03  0.41800000000E+01 0. -1.
        -11    1    4    4    0    0 -0.98193933091E+02 -0.20110928210E+02 -0.16898524375E+03  0.19647521608E+03  0.00000000000E+00 0. -1.
         11    1    4    4    0    0 -0.20663883337E+03 -0.19067269452E+03 -0.42315619036E+03  0.50805201046E+03  0.00000000000E+00 0.  1.
</event>
<event>
 8    1  0.6906553E-009  0.7245353E+02  0.7561462E-02  0.1351943E+00
          2   -1    0    0  501    0  0.00000000000E+00  0.00000000000E+00  0.78135980556E+03  0.78135980556E+03  0.00000000000E+00 0. -1.
         -2   -1    0    0    0  501 -0.00000000000E+00 -0.00000000000E+00 -0.20546932564E+02  0.20546932564E+02  0.00000000000E+00 0.  1.
         25    2    1    2    0    0 -0.42430155101E+02  0.98273875948E+01  0.58376481644E+03  0.59860300963E+03  0.12508919462E+03 0.  0.
         23    2    1    2    0    0  0.42430155101E+02 -0.98273875948E+01  0.17704805655E+03  0.20330372849E+03  0.89941625966E+02 0.  0.
          5    1    3    3  502    0 -0.23215092583E+02 -0.19168267176E+02  0.26755926310E+02  0.40493394312E+02  0.41800000000E+01 0.  1.
         -5    1    3    3    0  502 -0.19215062519E+02  0.28995654771E+02  0.55700889013E+03  0.55810961532E+03  0.41800000000E+01 0.  1.
        -11    1    4    4    0    0 -0.10301918507E+02  0.17331802566E+02  0.11763413402E+03  0.11934953034E+03  0.00000000000E+00 0. -1.
         11    1    4    4    0    0  0.52732073608E+02 -0.27159190161E+02  0.59413922531E+02  0.83954198154E+02  0.00000000000E+00 0.  1.
</event>
<event>
 8    1  0.6906553E-009  0.7101597E+02  0.7561462E-02  0.1356672E+00
         -1   -1    0    0    0  501 -0.00000000000E+00  0.00000000000E+00  0.93456901830E+02  0.93456901830E+02  0.00000000000E+00 0.  1.
          1   -1    0    0  501    0  0.00000000000E+00 -0.00000000000E+00 -0.15903618541E+03  0.15903618541E+03  0.00000000000E+00 0. -1.
         25    2    1    2    0    0 -0.41956068129E+02 -0.35494722390E+02 -0.24652476691E+02  0.13883575499E+03  0.12508970896E+03 0.  0.
         23    2    1    2    0    0  0.41956068129E+02  0.35494722390E+02 -0.40926806893E+02  0.11365733225E+03  0.90679648663E+02 0.  0.
          5    1    3    3  502    0 -0.13086850588E+02 -0.11939088562E+02  0.51136775385E+02  0.54279367081E+02  0.41800000000E+01 0.  1.
         -5    1    3    3    0  502 -0.28869217541E+02 -0.23555633828E+02 -0.75789252076E+02  0.84556387912E+02  0.41800000000E+01 0.  1.
        -11    1    4    4    0    0  0.28337322854E+02 -0.16362123611E+02 -0.49523292748E+02  0.59357219276E+02  0.00000000000E+00 0. -1.
         11    1    4    4    0    0  0.13618745275E+02  0.51856846001E+02  0.85964858557E+01  0.54300112975E+02  0.00000000000E+00 0.  1.
</event>
<event>
 8    1  0.6906553E-009  0.1554898E+03  0.7561462E-02  0.1193885E+00
          2   -1    0    0  501    0  0.00000000000E+00  0.00000000000E+00  0.12054752755E+03  0.12054752755E+03  0.00000000000E+00 0. -1.
         -2   -1    0    0    0  501 -0.00000000000E+00 -0.00000000000E+00 -0.26056435938E+03  0.26056435938E+03  0.00000000000E+00 0.  1.
         25    2    1    2    0    0 -0.10161904218E+03  0.61884157267E+02  0.41230131528E+01  0.17268364037E+03  0.12508621730E+03 0.  0.
         23    2    1    2    0    0  0.10161904218E+03 -0.61884157267E+02 -0.14413984498E+03  0.20842824656E+03  0.92249446588E+02 0.  0.
          5    1    3    3  502    0  0.18224109768E+02 -0.20033896322E+02  0.11617670344E+01  0.27428038233E+02  0.41800000000E+01 0.  1.
         -5    1    3    3    0  502 -0.11984315195E+03  0.81918053589E+02  0.29612461184E+01  0.14525560214E+03  0.41800000000E+01 0.  1.
        -11    1    4    4    0    0  0.12484405464E+00 -0.32760530854E+02 -0.76001432058E+02  0.82761619382E+02  0.00000000000E+00 0.  1.
         11    1    4    4    0    0  0.10149419813E+03 -0.29123626414E+02 -0.68138412924E+02  0.12566662717E+03  0.00000000000E+00 0. -1.
</event>
<event>
 8    1  0.6906553E-009  0.1405035E+03  0.7561462E-02  0.1212653E+00
         -3   -1    0    0    0  501 -0.00000000000E+00  0.00000000000E+00  0.15067587486E+03  0.15067587486E+03  0.00000000000E+00 0.  1.
          3   -1    0    0  501    0  0.00000000000E+00 -0.00000000000E+00 -0.16316958246E+03  0.16316958246E+03  0.00000000000E+00 0. -1.
         25    2    1    2    0    0  0.56047049227E+02 -0.96899224932E+02 -0.18159614622E+01  0.16787063771E+03  0.12508605746E+03 0.  0.
         23    2    1    2    0    0 -0.56047049227E+02  0.96899224932E+02 -0.10677746136E+02  0.14597481960E+03  0.93080084738E+02 0.  0.
          5    1    3    3  502    0  0.26637080033E+02  0.65887869064E+01  0.43055946821E+02  0.51227269127E+02  0.41800000000E+01 0.  1.
         -5    1    3    3    0  502  0.29409969194E+02 -0.10348801184E+03 -0.44871908283E+02  0.11664336859E+03  0.41800000000E+01 0.  1.
        -11    1    4    4    0    0  0.30030382973E+01  0.85364566183E+02 -0.64067696884E+01  0.85657306148E+02  0.00000000000E+00 0. -1.
         11    1    4    4    0    0 -0.59050087525E+02  0.11534658749E+02 -0.42709764478E+01  0.60317513451E+02  0.00000000000E+00 0.  1.
</event>
<event>
 8    1  0.6906553E-009  0.9506169E+02  0.7561462E-02  0.1291037E+00
         -3   -1    0    0    0  501 -0.00000000000E+00  0.00000000000E+00  0.20788443267E+02  0.20788443267E+02  0.00000000000E+00 0.  1.
          3   -1    0    0  501    0  0.00000000000E+00 -0.00000000000E+00 -0.65864231072E+03  0.65864231072E+03  0.00000000000E+00 0. -1.
         25    2    1    2    0    0  0.16185616490E+02  0.16203931890E+02 -0.47438533347E+03  0.49113277347E+03  0.12508163328E+03 0.  0.
         23    2    1    2    0    0 -0.16185616490E+02 -0.16203931890E+02 -0.16346853398E+03  0.18829798051E+03  0.90606987983E+02 0.  0.
          5    1    3    3  502    0  0.35537483626E+02 -0.36025976186E+02 -0.36292520116E+03  0.36646003566E+03  0.41800000000E+01 0. -1.
         -5    1    3    3    0  502 -0.19351867137E+02  0.52229908076E+02 -0.11146013231E+03  0.12467273781E+03  0.41800000000E+01 0. -1.
        -11    1    4    4    0    0  0.32705792769E+02 -0.29740685148E+01 -0.26290088814E+02  0.42067597198E+02  0.00000000000E+00 0.  1.
         11    1    4    4    0    0 -0.48891409259E+02 -0.13229863375E+02 -0.13717844517E+03  0.14623038331E+03  0.00000000000E+00 0. -1.
</event>
<event>
 8    1  0.6906553E-009  0.7246749E+02  0.7561462E-02  0.1351898E+00
          3   -1    0    0  501    0  0.00000000000E+00  0.00000000000E+00  0.88813236343E+02  0.88813236343E+02  0.00000000000E+00 0. -1.
         -3   -1    0    0    0  501 -0.00000000000E+00 -0.00000000000E+00 -0.13933918919E+03  0.13933918919E+03  0.00000000000E+00 0.  1.
         25    2    1    2    0    0 -0.89081695312E+01  0.19957876576E+02 -0.32233708672E+02  0.13101313678E+03  0.12509099772E+03 0.  0.
         23    2    1    2    0    0  0.89081695312E+01 -0.19957876576E+02 -0.18292244172E+02  0.97139288752E+02  0.92864217547E+02 0.  0.
          5    1    3    3  502    0 -0.27405508154E+02 -0.12127154326E+02 -0.71035182802E+02  0.77211393880E+02  0.41800000000E+01 0.  1.
         -5    1    3    3    0  502  0.18497338622E+02  0.32085030902E+02  0.38801474131E+02  0.53801742897E+02  0.41800000000E+01 0.  1.
        -11    1    4    4    0    0  0.32267322368E+02  0.14822682724E+02 -0.36976151284E+02  0.51265268747E+02  0.00000000000E+00 0.  1.
         11    1    4    4    0    0 -0.23359152836E+02 -0.34780559300E+02  0.18683907112E+02  0.45874020005E+02  0.00000000000E+00 0. -1.
</event>
<event>
 8    1  0.6906553E-009  0.1016005E+03  0.7561462E-02  0.1276966E+00
          1   -1    0    0  501    0  0.00000000000E+00  0.00000000000E+00  0.40493099612E+03  0.40493099612E+03  0.00000000000E+00 0. -1.
         -1   -1    0    0    0  501 -0.00000000000E+00 -0.00000000000E+00 -0.32121642736E+02  0.32121642736E+02  0.00000000000E+00 0.  1.
         25    2    1    2    0    0  0.25268023963E+02 -0.24832437079E+02  0.21180758049E+03  0.24852593296E+03  0.12509022839E+03 0.  0.
         23    2    1    2    0    0 -0.25268023963E+02  0.24832437079E+02  0.16100177290E+03  0.18852670589E+03  0.91463790605E+02 0.  0.
          5    1    3    3  502    0  0.35222502459E+02  0.45418149845E+02  0.11254523874E+03  0.12644103834E+03  0.41800000000E+01 0.  1.
         -5    1    3    3    0  502 -0.99544784955E+01 -0.70250586923E+02  0.99262341750E+02  0.12208489462E+03  0.41800000000E+01 0.  1.
        -11    1    4    4    0    0 -0.37968003234E+02  0.39707859744E+02  0.15974363769E+03  0.16892694627E+03  0.00000000000E+00 0. -1.
         11    1    4    4    0    0  0.12699979271E+02 -0.14875422666E+02  0.12581352103E+01  0.19599759620E+02  0.00000000000E+00 0.  1.
</event>
<event>
 8    1  0.6906553E-009  0.1193834E+03  0.7561462E-02  0.1244118E+00
          2   -1    0    0  501    0  0.00000000000E+00  0.00000000000E+00  0.27574141709E+03  0.27574141709E+03  0.00000000000E+00 0. -1.
         -2   -1    0    0    0  501 -0.00000000000E+00 -0.00000000000E+00 -0.62628667698E+02  0.62628667698E+02  0.00000000000E+00 0.  1.
         25    2    1    2    0    0  0.45657615578E+02  0.42319265320E+02  0.16878020378E+03  0.21911057425E+03  0.12508856256E+03 0.  0.
         23    2    1    2    0    0 -0.45657615578E+02 -0.42319265320E+02  0.44332545610E+02  0.11925951054E+03  0.91552816317E+02 0.  0.
          5    1    3    3  502    0 -0.32377127538E+01 -0.41455968588E+02  0.62218129225E+02  0.74950971440E+02  0.41800000000E+01 0. -1.
         -5    1    3    3    0  502  0.48895328332E+02  0.83775233908E+02  0.10656207456E+03  0.14415960281E+03  0.41800000000E+01 0. -1.
        -11    1    4    4    0    0 -0.58676551601E+02 -0.33204778149E+01 -0.35569137872E-01  0.58770439388E+02  0.00000000000E+00 0.  1.
         11    1    4    4    0    0  0.13018936023E+02 -0.38998787505E+02  0.44368114748E+02  0.60489071148E+02  0.00000000000E+00 0. -1.
</event>
<event>
 8    1  0.6906553E-009  0.9306722E+02  0.7561462E-02  0.1295589E+00
          2   -1    0    0  501    0  0.00000000000E+00  0.00000000000E+00  0.84456017908E+03  0.84456017908E+03  0.00000000000E+00 0. -1.
         -2   -1    0    0    0  501 -0.00000000000E+00 -0.00000000000E+00 -0.16187456822E+02  0.16187456822E+02  0.00000000000E+00 0.  1.
         25    2    1    2    0    0 -0.23842052864E+02  0.27736953971E+02  0.57692081478E+03  0.59145830735E+03  0.12509005040E+03 0.  0.
         23    2    1    2    0    0  0.23842052864E+02 -0.27736953971E+02  0.25145190748E+03  0.26928932856E+03  0.89167811440E+02 0.  0.
          5    1    3    3  502    0  0.61750844374E+01 -0.33045041437E+02  0.40786418669E+03  0.40926858372E+03  0.41800000000E+01 0. -1.
         -5    1    3    3    0  502 -0.30017137302E+02  0.60781995408E+02  0.16905662808E+03  0.18218972363E+03  0.41800000000E+01 0. -1.
        -11    1    4    4    0    0  0.11651069895E+02  0.26394975314E+02  0.15794288081E+03  0.16055651887E+03  0.00000000000E+00 0. -1.
         11    1    4    4    0    0  0.12190982969E+02 -0.54131929285E+02  0.93509026672E+02  0.10873280969E+03  0.00000000000E+00 0.  1.
</event>
<event>
 8    1  0.6906553E-009  0.1103454E+03  0.7561462E-02  0.1259932E+00
         -2   -1    0    0    0  501 -0.00000000000E+00  0.00000000000E+00  0.20189864589E+02  0.20189864589E+02  0.00000000000E+00 0.  1.
          2   -1    0    0  501    0  0.00000000000E+00 -0.00000000000E+00 -0.82901377740E+03  0.82901377740E+03  0.00000000000E+00 0. -1.
         25    2    1    2    0    0  0.54717293739E+02 -0.18506223667E+02 -0.58092634933E+03  0.59704172883E+03  0.12508772949E+03 0.  0.
         23    2    1    2    0    0 -0.54717293739E+02  0.18506223667E+02 -0.22789756348E+03  0.25216191316E+03  0.91169449153E+02 0.  0.
          5    1    3    3  502    0 -0.79986084960E+01 -0.54883377508E+02 -0.36539976454E+03  0.36960874339E+03  0.41800000000E+01 0.  1.
         -5    1    3    3    0  502  0.62715902235E+02  0.36377153841E+02 -0.21552658479E+03  0.22743298544E+03  0.41800000000E+01 0.  1.
        -11    1    4    4    0    0 -0.56666377283E+02  0.40953341614E+02 -0.98346061220E+02  0.12066566314E+03  0.00000000000E+00 0.  1.
         11    1    4    4    0    0  0.19490835444E+01 -0.22447117946E+02 -0.12955150226E+03  0.13149625002E+03  0.00000000000E+00 0. -1.
</event>
<event>
 8    1  0.6906553E-009  0.1086486E+03  0.7561462E-02  0.1263093E+00
         -2   -1    0    0    0  501 -0.00000000000E+00  0.00000000000E+00  0.37738230790E+02  0.37738230790E+02  0.00000000000E+00 0.  1.
          2   -1    0    0  501    0  0.00000000000E+00 -0.00000000000E+00 -0.31785069043E+03  0.31785069043E+03  0.00000000000E+00 0. -1.
         25    2    1    2    0    0 -0.11710355944E+02  0.15594804924E+02 -0.15193456736E+03  0.19776394849E+03  0.12508451617E+03 0.  0.
         23    2    1    2    0    0  0.11710355944E+02 -0.15594804924E+02 -0.12817789228E+03  0.15782497274E+03  0.89993441828E+02 0.  0.
          5    1    3    3  502    0  0.15484286776E+02  0.66436559286E+02 -0.74046331547E+02  0.10076661730E+03  0.41800000000E+01 0.  1.
         -5    1    3    3    0  502 -0.27194642720E+02 -0.50841754361E+02 -0.77888235810E+02  0.96997331184E+02  0.41800000000E+01 0.  1.
        -11    1    4    4    0    0 -0.38476397730E+02  0.36980116714E+00 -0.65424433582E+02  0.75900767089E+02  0.00000000000E+00 0.  1.
         11    1    4    4    0    0  0.50186753674E+02 -0.15964606092E+02 -0.62753458701E+02  0.81924205647E+02  0.00000000000E+00 0. -1.
</event>
<event>
 8    1  0.6906553E-009  0.5236770E+02  0.7561462E-02  0.1432974E+00
          2   -1    0    0  501    0  0.00000000000E+00  0.00000000000E+00  0.17172453170E+03  0.17172453170E+03  0.00000000000E+00 0.  1.
         -2   -1    0    0    0  501 -0.00000000000E+00 -0.00000000000E+00 -0.85446589873E+02  0.85446589873E+02  0.00000000000E+00 0. -1.
         25    2    1    2    0    0 -0.18225076868E+02  0.21226693755E+01  0.10310722754E+03  0.16313683555E+03  0.12508344251E+03 0.  0.
         23    2    1    2    0    0  0.18225076868E+02 -0.21226693755E+01 -0.16829285712E+02  0.94034286021E+02  0.90678348782E+02 0.  0.
          5    1    3    3  502    0 -0.15609815074E+02 -0.22336964847E+01  0.13225417464E+03  0.13325650016E+03  0.41800000000E+01 0. -1.
         -5    1    3    3    0  502 -0.26152617936E+01  0.43563658603E+01 -0.29146947099E+02  0.29880335389E+02  0.41800000000E+01 0. -1.
        -11    1    4    4    0    0  0.49641398331E+02 -0.67105597094E+01  0.11598011162E+02  0.51418030911E+02  0.00000000000E+00 0.  1.
         11    1    4    4    0    0 -0.31416321463E+02  0.45878903338E+01 -0.28427296874E+02  0.42616255110E+02  0.00000000000E+00 0. -1.
</event>
<event>
 8    1  0.6906553E-009  0.7129361E+02  0.7561462E-02  0.1355749E+00
         -1   -1    0    0    0  501 -0.00000000000E+00  0.00000000000E+00  0.20011282011E+02  0.20011282011E+02  0.00000000000E+00 0.  1.
          1   -1    0    0  501    0  0.00000000000E+00 -0.00000000000E+00 -0.67142161516E+03  0.67142161516E+03  0.00000000000E+00 0. -1.
         25    2    1    2    0    0  0.14301967623E+02 -0.40311389876E+01 -0.25471689172E+03  0.28416200837E+03  0.12508619313E+03 0.  0.
         23    2    1    2    0    0 -0.14301967623E+02  0.40311389876E+01 -0.39669344143E+03  0.40727088881E+03  0.91011504956E+02 0.  0.
          5    1    3    3  502    0  0.17629974971E+02  0.20885887514E+02 -0.25708606676E+03  0.25856866484E+03  0.41800000000E+01 0. -1.
         -5    1    3    3    0  502 -0.33280073480E+01 -0.24917026502E+02  0.23691750391E+01  0.25593343528E+02  0.41800000000E+01 0. -1.
        -11    1    4    4    0    0 -0.20138227863E+02 -0.40134983512E+02 -0.14961571570E+03  0.15620892262E+03  0.00000000000E+00 0.  1.
         11    1    4    4    0    0  0.58362602402E+01  0.44166122500E+02 -0.24707772573E+03  0.25106196618E+03  0.00000000000E+00 0. -1.
</event>
<event>
 8    1  0.6906553E-009  0.1110063E+03  0.7561462E-02  0.1258718E+00
          2   -1    0    0  501    0  0.00000000000E+00  0.00000000000E+00  0.16549418774E+03  0.16549418774E+03  0.00000000000E+00 0.  1.
         -2   -1    0    0    0  501 -0.00000000000E+00 -0.00000000000E+00 -0.77632368356E+02  0.77632368356E+02  0.00000000000E+00 0. -1.
         25    2    1    2    0    0 -0.27437169992E+02  0.13456220592E+02  0.63610639156E+02  0.14362146982E+03  0.12508774923E+03 0.  0.
         23    2    1    2    0    0  0.27437169992E+02 -0.13456220592E+02  0.24251180229E+02  0.99505086281E+02  0.91538376015E+02 0.  0.
          5    1    3    3  502    0 -0.62337891466E+02  0.46807555502E+02  0.25998685538E+02  0.82282221738E+02  0.41800000000E+01 0. -1.
         -5    1    3    3    0  502  0.34900721474E+02 -0.33351334910E+02  0.37611953618E+02  0.61339248077E+02  0.41800000000E+01 0. -1.
        -11    1    4    4    0    0  0.60099792869E+02 -0.17458602093E+02  0.22658237144E+02  0.66559624401E+02  0.00000000000E+00 0.  1.
         11    1    4    4    0    0 -0.32662622877E+02  0.40023815013E+01  0.15929430859E+01  0.32945461881E+02  0.00000000000E+00 0. -1.
</event>
<event>
 8    1  0.6906553E-009  0.1284266E+03  0.7561462E-02  0.1229809E+00
         -2   -1    0    0    0  501 -0.00000000000E+00  0.00000000000E+00  0.17968995228E+03  0.17968995228E+03  0.00000000000E+00 0.  1.
          2   -1    0    0  501    0  0.00000000000E+00 -0.00000000000E+00 -0.12135530784E+03  0.12135530784E+03  0.00000000000E+00 0. -1.
         25    2    1    2    0    0  0.85795799655E+02 -0.46361038163E+02  0.53418816695E+02  0.16737097138E+03  0.12509679046E+03 0.  0.
         23    2    1    2    0    0 -0.85795799655E+02  0.46361038163E+02  0.49158277495E+01  0.13367428875E+03  0.91292853012E+02 0.  0.
          5    1    3    3  502    0 -0.18106093931E+02 -0.25900640949E+02  0.52461481843E+02  0.61386914862E+02  0.41800000000E+01 0.  1.
         -5    1    3    3    0  502  0.10390189359E+03 -0.20460397214E+02  0.95733485192E+00  0.10598405651E+03  0.41800000000E+01 0.  1.
        -11    1    4    4    0    0 -0.58701363269E+02 -0.70331562208E+01  0.32815617952E+02  0.67617897909E+02  0.00000000000E+00 0.  1.
         11    1    4    4    0    0 -0.27094436387E+02  0.53394194384E+02 -0.27899790202E+02  0.66056390837E+02  0.00000000000E+00 0. -1.
</event>
<event>
 8    1  0.6906553E-009  0.8913037E+02  0.7561462E-02  0.1304971E+00
          1   -1    0    0  501    0  0.00000000000E+00  0.00000000000E+00  0.10374087783E+03  0.10374087783E+03  0.00000000000E+00 0. -1.
         -1   -1    0    0    0  501 -0.00000000000E+00 -0.00000000000E+00 -0.18937767754E+03  0.18937767754E+03  0.00000000000E+00 0.  1.
         25    2    1    2    0    0  0.58219313687E+02  0.18218588754E+02  0.20634067710E+02  0.14069279271E+03  0.12508913505E+03 0.  0.
         23    2    1    2    0    0 -0.58219313687E+02 -0.18218588754E+02 -0.10627086742E+03  0.15242576266E+03  0.90657103409E+02 0.  0.
          5    1    3    3  502    0 -0.89332520310E+01  0.84939742599E+01  0.60499872558E+02  0.61884227152E+02  0.41800000000E+01 0. -1.
         -5    1    3    3    0  502  0.67152565718E+02  0.97246144945E+01 -0.39865804848E+02  0.78808565561E+02  0.41800000000E+01 0. -1.
        -11    1    4    4    0    0 -0.76639423418E+02 -0.10764811890E+02 -0.48500337124E+02  0.91333263919E+02  0.00000000000E+00 0.  1.
         11    1    4    4    0    0  0.18420109731E+02 -0.74537768646E+01 -0.57770530296E+02  0.61092498743E+02  0.00000000000E+00 0. -1.
</event>
<event>
 8    1  0.6906553E-009  0.1439464E+03  0.7561462E-02  0.1208115E+00
          1   -1    0    0  501    0  0.00000000000E+00  0.00000000000E+00  0.34778161944E+03  0.34778161944E+03  0.00000000000E+00 0. -1.
         -1   -1    0    0    0  501 -0.00000000000E+00 -0.00000000000E+00 -0.70317102457E+02  0.70317102457E+02  0.00000000000E+00 0.  1.
         25    2    1    2    0    0  0.91457473037E+02 -0.64159679340E+02  0.16342038208E+03  0.23416593981E+03  0.12508609939E+03 0.  0.
         23    2    1    2    0    0 -0.91457473037E+02  0.64159679340E+02  0.11404413490E+03  0.18393278209E+03  0.91346974734E+02 0.  0.
          5    1    3    3  502    0  0.11531897984E+03 -0.30390582181E+02  0.14734658777E+03  0.18960628661E+03  0.41800000000E+01 0. -1.
         -5    1    3    3    0  502 -0.23861506801E+02 -0.33769097159E+02  0.16073794315E+02  0.44559653201E+02  0.41800000000E+01 0. -1.
        -11    1    4    4    0    0 -0.75370004554E+02  0.17121102323E+02  0.23748500417E+02  0.80856422152E+02  0.00000000000E+00 0.  1.
         11    1    4    4    0    0 -0.16087468483E+02  0.47038577017E+02  0.90295634488E+02  0.10307635994E+03  0.00000000000E+00 0. -1.
</event>
<event>
 8    1  0.6906553E-009  0.1513807E+03  0.7561462E-02  0.1198787E+00
          1   -1    0    0  501    0  0.00000000000E+00  0.00000000000E+00  0.51706196794E+03  0.51706196794E+03  0.00000000000E+00 0. -1.
         -1   -1    0    0    0  501 -0.00000000000E+00 -0.00000000000E+00 -0.56621753532E+02  0.56621753532E+02  0.00000000000E+00 0.  1.
         25    2    1    2    0    0  0.12774947592E+03  0.33660503855E+02  0.24362705605E+03  0.30406189794E+03  0.12508611921E+03 0.  0.
         23    2    1    2    0    0 -0.12774947592E+03 -0.33660503855E+02  0.21681315835E+03  0.26962182353E+03  0.90747032861E+02 0.  0.
          5    1    3    3  502    0 -0.67007624338E+00  0.11363648128E+02  0.13155642862E+03  0.13211414690E+03  0.41800000000E+01 0.  1.
         -5    1    3    3    0  502  0.12841955216E+03  0.22296855728E+02  0.11207062743E+03  0.17194775103E+03  0.41800000000E+01 0.  1.
        -11    1    4    4    0    0 -0.22347991760E+02  0.29759547630E+02  0.47613767135E+02  0.60432890313E+02  0.00000000000E+00 0. -1.
         11    1    4    4    0    0 -0.10540148416E+03 -0.63420051485E+02  0.16919939121E+03  0.20918893322E+03  0.00000000000E+00 0.  1.
</event>
<event>
 8    1  0.6906553E-009  0.9762897E+02  0.7561462E-02  0.1285362E+00
          3   -1    0    0  501    0  0.00000000000E+00  0.00000000000E+00  0.17280556268E+03  0.17280556268E+03  0.00000000000E+00 0. -1.
         -3   -1    0    0    0  501 -0.00000000000E+00 -0.00000000000E+00 -0.75842806200E+02  0.75842806200E+02  0.00000000000E+00 0.  1.
         25    2    1    2    0    0 -0.26424105766E+02  0.24651548711E+02  0.61423084251E+02  0.14396643780E+03  0.12509039817E+03 0.  0.
         23    2    1    2    0    0  0.26424105766E+02 -0.24651548711E+02  0.35539672232E+02  0.10468193108E+03  0.91593155711E+02 0.  0.
          5    1    3    3  502    0 -0.13170347951E+02 -0.42861101454E+02  0.60004560013E+02  0.75023674299E+02  0.41800000000E+01 0.  1.
         -5    1    3    3    0  502 -0.13253757815E+02  0.67512650165E+02  0.14185242385E+01  0.68942763504E+02  0.41800000000E+01 0.  1.
        -11    1    4    4    0    0  0.51884596892E+02 -0.14365267762E+02 -0.67511151918E+01  0.54258177898E+02  0.00000000000E+00 0.  1.
         11    1    4    4    0    0 -0.25460491126E+02 -0.10286280949E+02  0.42290787424E+02  0.50423753184E+02  0.00000000000E+00 0. -1.
</event>
<event>
 8    1  0.6906553E-009  0.9366801E+02  0.7561462E-02  0.1294205E+00
          1   -1    0    0  501    0  0.00000000000E+00  0.00000000000E+00  0.35549517032E+03  0.35549517032E+03  0.00000000000E+00 0.  1.
         -1   -1    0    0    0  501 -0.00000000000E+00 -0.00000000000E+00 -0.37922852067E+02  0.37922852067E+02  0.00000000000E+00 0. -1.
         25    2    1    2    0    0 -0.23244344247E+02  0.49221062013E+01  0.12262758839E+03  0.17678744241E+03  0.12510694502E+03 0.  0.
         23    2    1    2    0    0  0.23244344247E+02 -0.49221062013E+01  0.19494472987E+03  0.21663057998E+03  0.91437595152E+02 0.  0.
          5    1    3    3  502    0 -0.52813903706E+02 -0.17932602500E+02  0.12715277591E+03  0.13891071765E+03  0.41800000000E+01 0.  1.
         -5    1    3    3    0  502  0.29569559459E+02  0.22854708702E+02 -0.45251875260E+01  0.37876724760E+02  0.41800000000E+01 0.  1.
        -11    1    4    4    0    0  0.51855978638E+02  0.20270207542E+02  0.10275280988E+03  0.11686771912E+03  0.00000000000E+00 0.  1.
         11    1    4    4    0    0 -0.28611634391E+02 -0.25192313743E+02  0.92191919994E+02  0.99762860857E+02  0.00000000000E+00 0. -1.
</event>
<event>
 8    1  0.6906553E-009  0.1314462E+03  0.7561462E-02  0.1225326E+00
          4   -1    0    0  501    0  0.00000000000E+00  0.00000000000E+00  0.36419444991E+02  0.36419444991E+02  0.00000000000E+00 0. -1.
         -4   -1    0    0    0  501 -0.00000000000E+00 -0.00000000000E+00 -0.73575044758E+03  0.73575044758E+03  0.00000000000E+00 0.  1.
         25    2    1    2    0    0 -0.40433602219E+02  0.11414317178E+03 -0.44612664135E+03  0.47889473281E+03  0.12509054776E+03 0.  0.
         23    2    1    2    0    0  0.40433602219E+02 -0.11414317178E+03 -0.25320436124E+03  0.29327515976E+03  0.85054870103E+02 0.  0.
          5    1    3    3  502    0 -0.32713809689E+02  0.86804194926E+02 -0.43979488677E+03  0.44949101930E+03  0.41800000000E+01 0.  1.
         -5    1    3    3    0  502 -0.77197925306E+01  0.27338976859E+02 -0.63317545828E+01  0.29403713516E+02  0.41800000000E+01 0.  1.
        -11    1    4    4    0    0  0.56564676370E+02 -0.51040847431E+02 -0.92264705093E+02  0.11965578350E+03  0.00000000000E+00 0. -1.
         11    1    4    4    0    0 -0.16131074151E+02 -0.63102324354E+02 -0.16093965615E+03  0.17361937626E+03  0.00000000000E+00 0.  1.
</event>
<event>
 8    1  0.6906553E-009  0.1150714E+03  0.7561462E-02  0.1251456E+00
          1   -1    0    0  501    0  0.00000000000E+00  0.00000000000E+00  0.42763882674E+02  0.42763882674E+02  0.00000000000E+00 0. -1.
         -1   -1    0    0    0  501 -0.00000000000E+00 -0.00000000000E+00 -0.51951182056E+03  0.51951182056E+03  0.00000000000E+00 0.  1.
         25    2    1    2    0    0 -0.84171045006E+02  0.27757719882E+02 -0.36340834047E+03  0.39442129553E+03  0.12508909072E+03 0.  0.
         23    2    1    2    0    0  0.84171045006E+02 -0.27757719882E+02 -0.11333959742E+03  0.16785440770E+03  0.86452194946E+02 0.  0.
          5    1    3    3  502    0 -0.17067851416E+02 -0.18866513213E+02 -0.43346766878E+01  0.26144190459E+02  0.41800000000E+01 0.  1.
         -5    1    3    3    0  502 -0.67103193590E+02  0.46624233095E+02 -0.35907366378E+03  0.36827710507E+03  0.41800000000E+01 0.  1.
        -11    1    4    4    0    0  0.37578307024E+02 -0.56457542577E+02 -0.50687627182E+02  0.84668877529E+02  0.00000000000E+00 0.  1.
         11    1    4    4    0    0  0.46592737982E+02  0.28699822695E+02 -0.62651970236E+02  0.83185530171E+02  0.00000000000E+00 0. -1.
</event>
<event>
 8    1  0.6906553E-009  0.9688263E+02  0.7561462E-02  0.1286991E+00
         -1   -1    0    0    0  501 -0.00000000000E+00  0.00000000000E+00  0.77067717297E+02  0.77067717297E+02  0.00000000000E+00 0.  1.
          1   -1    0    0  501    0  0.00000000000E+00 -0.00000000000E+00 -0.19982927807E+03  0.19982927807E+03  0.00000000000E+00 0. -1.
         25    2    1    2    0    0 -0.33780745895E+02  0.21253300352E+02 -0.12088189244E+03  0.17847236498E+03  0.12508841503E+03 0.  0.
         23    2    1    2    0    0  0.33780745895E+02 -0.21253300352E+02 -0.18796683320E+01  0.98424630383E+02  0.89950170338E+02 0.  0.
          5    1    3    3  502    0 -0.57843538787E+02  0.34748095275E+02 -0.15369255268E+02  0.69332470835E+02  0.41800000000E+01 0.  1.
         -5    1    3    3    0  502  0.24062792892E+02 -0.13494794923E+02 -0.10551263717E+03  0.10913989415E+03  0.41800000000E+01 0.  1.
        -11    1    4    4    0    0 -0.14959751868E+02 -0.42521019200E+02 -0.35906161581E+01  0.45218621985E+02  0.00000000000E+00 0.  1.
         11    1    4    4    0    0  0.48740497763E+02  0.21267718848E+02  0.17109478261E+01  0.53206008398E+02  0.00000000000E+00 0. -1.
</event>
<event>
 8    1  0.6906553E-009  0.1167755E+03  0.7561462E-02  0.1248513E+00
         -2   -1    0    0    0  501 -0.00000000000E+00  0.00000000000E+00  0.62349105644E+03  0.62349105644E+03  0.00000000000E+00 0.  1.
          2   -1    0    0  501    0  0.00000000000E+00 -0.00000000000E+00 -0.30070329124E+02  0.30070329124E+02  0.00000000000E+00 0. -1.
         25    2    1    2    0    0  0.60053653633E+02  0.20262711162E+02  0.45280213922E+03  0.47401942768E+03  0.12509045430E+03 0.  0.
         23    2    1    2    0    0 -0.60053653633E+02 -0.20262711162E+02  0.14061858810E+03  0.17954195789E+03  0.91895095326E+02 0.  0.
          5    1    3    3  502    0  0.56848984707E+02 -0.34899616248E+02  0.35820370700E+03  0.36438600191E+03  0.41800000000E+01 0. -1.
         -5    1    3    3    0  502  0.32046689261E+01  0.55162327409E+02  0.94598432216E+02  0.10963342577E+03  0.41800000000E+01 0. -1.
        -11    1    4    4    0    0 -0.55263091856E+02 -0.53975505236E+02  0.10381403342E+03  0.12940138338E+03  0.00000000000E+00 0. -1.
         11    1    4    4    0    0 -0.47905617773E+01  0.33712794074E+02  0.36804554677E+02  0.50140574502E+02  0.00000000000E+00 0.  1.
</event>
<event>
 8    1  0.6906553E-009  0.1456792E+03  0.7561462E-02  0.1205885E+00
          1   -1    0    0  501    0  0.00000000000E+00  0.00000000000E+00  0.29090233070E+03  0.29090233070E+03  0.00000000000E+00 0. -1.
         -1   -1    0    0    0  501 -0.00000000000E+00 -0.00000000000E+00 -0.17080419157E+03  0.17080419157E+03  0.00000000000E+00 0.  1.
         25    2    1    2    0    0  0.50353186947E+02  0.10650356056E+03 -0.98135610429E+02  0.19788050258E+03  0.12509054089E+03 0.  0.
         23    2    1    2    0    0 -0.50353186947E+02 -0.10650356056E+03  0.21823374955E+03  0.26382601969E+03  0.89998596507E+02 0.  0.
          5    1    3    3  502    0  0.48383055575E+02  0.13473636654E+03 -0.82153204661E+02  0.16511035695E+03  0.41800000000E+01 0. -1.
         -5    1    3    3    0  502  0.19701313724E+01 -0.28232805976E+02 -0.15982405767E+02  0.32770145636E+02  0.41800000000E+01 0. -1.
        -11    1    4    4    0    0 -0.16038438209E+02 -0.57572065093E+02  0.18715094758E+03  0.19646183181E+03  0.00000000000E+00 0. -1.
         11    1    4    4    0    0 -0.34314748738E+02 -0.48931495469E+02  0.31082801974E+02  0.67364187877E+02  0.00000000000E+00 0.  1.
</event>
<event>
 8    1  0.6906553E-009  0.9958891E+02  0.7561462E-02  0.1281163E+00
          2   -1    0    0  501    0  0.00000000000E+00  0.00000000000E+00  0.30318488098E+03  0.30318488098E+03  0.00000000000E+00 0. -1.
         -2   -1    0    0    0  501 -0.00000000000E+00 -0.00000000000E+00 -0.50078678511E+02  0.50078678511E+02  0.00000000000E+00 0.  1.
         25    2    1    2    0    0  0.37563956645E+02 -0.43962424216E+02  0.15357300739E+03  0.20634055124E+03  0.12509200177E+03 0.  0.
         23    2    1    2    0    0 -0.37563956645E+02  0.43962424216E+02  0.99533195082E+02  0.14692300825E+03  0.91300426334E+02 0.  0.
          5    1    3    3  502    0 -0.17125914758E+02  0.41905321660E+01 -0.14432842645E+02  0.23165423867E+02  0.41800000000E+01 0. -1.
         -5    1    3    3    0  502  0.54689871403E+02 -0.48152956382E+02  0.16800585003E+03  0.18317512737E+03  0.41800000000E+01 0. -1.
        -11    1    4    4    0    0 -0.41385492356E+02 -0.18613061586E+02  0.42144522047E+02  0.61930330031E+02  0.00000000000E+00 0. -1.
         11    1    4    4    0    0  0.38215357112E+01  0.62575485802E+02  0.57388673035E+02  0.84992678221E+02  0.00000000000E+00 0.  1.
</event>
<event>
 8    1  0.6906553E-009  0.1738779E+03  0.7561462E-02  0.1173863E+00
          2   -1    0    0  501    0  0.00000000000E+00  0.00000000000E+00  0.11669375573E+03  0.11669375573E+03  0.00000000000E+00 0. -1.
         -2   -1    0    0    0  501 -0.00000000000E+00 -0.00000000000E+00 -0.52418099808E+03  0.52418099808E+03  0.00000000000E+00 0.  1.
         25    2    1    2    0    0  0.78606137323E+02 -0.11930237569E+03  0.10235495669E+02  0.19017122719E+03  0.12509335957E+03 0.  0.
         23    2    1    2    0    0 -0.78606137323E+02  0.11930237569E+03 -0.41772273802E+03  0.45070352662E+03  0.90716048050E+02 0.  0.
          5    1    3    3  502    0  0.43264153273E+02  0.14246893383E+02  0.23321749824E+02  0.51343328138E+02  0.41800000000E+01 0. -1.
         -5    1    3    3    0  502  0.35341984050E+02 -0.13354926907E+03 -0.13086254154E+02  0.13882789905E+03  0.41800000000E+01 0. -1.
        -11    1    4    4    0    0 -0.95425723717E+02  0.10130663436E+03 -0.38737748362E+03  0.41161926307E+03  0.00000000000E+00 0.  1.
         11    1    4    4    0    0  0.16819586394E+02  0.17995741327E+02 -0.30345254400E+02  0.39084263547E+02  0.00000000000E+00 0. -1.
</event>
<event>
 8    1  0.6906553E-009  0.1181917E+03  0.7561462E-02  0.1246110E+00
         -2   -1    0    0    0  501 -0.00000000000E+00  0.00000000000E+00  0.25766070102E+03  0.25766070102E+03  0.00000000000E+00 0.  1.
          2   -1    0    0  501    0  0.00000000000E+00 -0.00000000000E+00 -0.76538735127E+02  0.76538735127E+02  0.00000000000E+00 0. -1.
         25    2    1    2    0    0  0.78504409940E+02  0.20397887180E+02  0.56778745333E+02  0.15952894182E+03  0.12508653474E+03 0.  0.
         23    2    1    2    0    0 -0.78504409940E+02 -0.20397887180E+02  0.12434322056E+03  0.17467049433E+03  0.92030043508E+02 0.  0.
          5    1    3    3  502    0 -0.18118675135E+02 -0.12183943784E+01  0.57481692692E+02  0.60426718165E+02  0.41800000000E+01 0.  1.
         -5    1    3    3    0  502  0.96623085076E+02  0.21616281558E+02 -0.70294735825E+00  0.99102223653E+02  0.41800000000E+01 0.  1.
        -11    1    4    4    0    0 -0.76272321083E+02  0.19470588688E+02  0.10223021766E+03  0.12902553310E+03  0.00000000000E+00 0.  1.
         11    1    4    4    0    0 -0.22320888572E+01 -0.39868475868E+02  0.22113002894E+02  0.45644961230E+02  0.00000000000E+00 0. -1.
</event>
<event>
 8    1  0.6906553E-009  0.1009477E+03  0.7561462E-02  0.1278316E+00
         -2   -1    0    0    0  501 -0.00000000000E+00  0.00000000000E+00  0.23519462730E+03  0.23519462730E+03  0.00000000000E+00 0.  1.
          2   -1    0    0  501    0  0.00000000000E+00 -0.00000000000E+00 -0.88028008991E+02  0.88028008991E+02  0.00000000000E+00 0. -1.
         25    2    1    2    0    0 -0.79525309352E+02 -0.32397447417E+02  0.37353713088E+02  0.15625793898E+03  0.12508946472E+03 0.  0.
         23    2    1    2    0    0  0.79525309352E+02  0.32397447417E+02  0.10981290522E+03  0.16696469731E+03  0.91893778728E+02 0.  0.
          5    1    3    3  502    0 -0.90394126297E+02 -0.16571610329E+02  0.71735154786E+02  0.11665813804E+03  0.41800000000E+01 0. -1.
         -5    1    3    3    0  502  0.10868816945E+02 -0.15825837088E+02 -0.34381441698E+02  0.39599800941E+02  0.41800000000E+01 0. -1.
        -11    1    4    4    0    0  0.48537261993E+02  0.33937437106E+02  0.12040300674E+03  0.13418084614E+03  0.00000000000E+00 0.  1.
         11    1    4    4    0    0  0.30988047359E+02 -0.15399896891E+01 -0.10590101521E+02  0.32783851171E+02  0.00000000000E+00 0. -1.
</event>
<event>
 8    1  0.6906553E-009  0.9090249E+02  0.7561462E-02  0.1300681E+00
          2   -1    0    0  501    0  0.00000000000E+00  0.00000000000E+00  0.36353769977E+03  0.36353769977E+03  0.00000000000E+00 0. -1.
         -2   -1    0    0    0  501 -0.00000000000E+00 -0.00000000000E+00 -0.37665074674E+02  0.37665074674E+02  0.00000000000E+00 0.  1.
         25    2    1    2    0    0  0.33179503447E+02  0.12251524340E+02  0.19562967462E+03  0.23488124501E+03  0.12508896982E+03 0.  0.
         23    2    1    2    0    0 -0.33179503447E+02 -0.12251524340E+02  0.13024295048E+03  0.16632152943E+03  0.97204144487E+02 0.  0.
          5    1    3    3  502    0 -0.11011338107E+02  0.28714411098E+02 -0.25353483394E+01  0.31139482379E+02  0.41800000000E+01 0. -1.
         -5    1    3    3    0  502  0.44190841555E+02 -0.16462886758E+02  0.19816502296E+03  0.20374176263E+03  0.41800000000E+01 0. -1.
        -11    1    4    4    0    0 -0.61774261943E+01  0.42198682462E+02  0.52422179285E+02  0.67579392398E+02  0.00000000000E+00 0. -1.
         11    1    4    4    0    0 -0.27002077253E+02 -0.54450206802E+02  0.77820771193E+02  0.98742137033E+02  0.00000000000E+00 0.  1.
</event>
<event>
 8    1  0.6906553E-009  0.1236606E+03  0.7561462E-02  0.1237177E+00
          1   -1    0    0  501    0  0.00000000000E+00  0.00000000000E+00  0.81822123634E+02  0.81822123634E+02  0.00000000000E+00 0. -1.
         -1   -1    0    0    0  501 -0.00000000000E+00 -0.00000000000E+00 -0.24422961727E+03  0.24422961727E+03  0.00000000000E+00 0.  1.
         25    2    1    2    0    0 -0.44044092615E+02  0.56474890097E+02 -0.24468669068E+02  0.14619256770E+03  0.12507699940E+03 0.  0.
         23    2    1    2    0    0  0.44044092615E+02 -0.56474890097E+02 -0.13793882457E+03  0.17985917321E+03  0.90514681453E+02 0.  0.
          5    1    3    3  502    0  0.33662245544E+02 -0.47526415808E+01 -0.32018745877E+02  0.46887171642E+02  0.41800000000E+01 0.  1.
         -5    1    3    3    0  502 -0.77706338159E+02  0.61227531678E+02  0.75500768088E+01  0.99305396053E+02  0.41800000000E+01 0.  1.
        -11    1    4    4    0    0  0.96324894439E+01 -0.74557960237E+02 -0.77288391736E+02  0.10782008062E+03  0.00000000000E+00 0. -1.
         11    1    4    4    0    0  0.34411603171E+02  0.18083070140E+02 -0.60650432832E+02  0.72039092590E+02  0.00000000000E+00 0.  1.
</event>
<event>
 8    1  0.6906553E-009  0.1475840E+03  0.7561462E-02  0.1203474E+00
         -4   -1    0    0    0  501 -0.00000000000E+00  0.00000000000E+00  0.38857711558E+03  0.38857711558E+03  0.00000000000E+00 0.  1.
          4   -1    0    0  501    0  0.00000000000E+00 -0.00000000000E+00 -0.63654570784E+02  0.63654570784E+02  0.00000000000E+00 0. -1.
         25    2    1    2    0    0  0.95272895401E+02  0.38271520583E+02  0.10001717228E+03  0.19024711177E+03  0.12509554308E+03 0.  0.
         23    2    1    2    0    0 -0.95272895401E+02 -0.38271520583E+02  0.22490537251E+03  0.26198457459E+03  0.86670968928E+02 0.  0.
          5    1    3    3  502    0 -0.27846092117E+02  0.25279803195E+02  0.26555242192E+02  0.46229066437E+02  0.41800000000E+01 0. -1.
         -5    1    3    3    0  502  0.12311898752E+03  0.12991717389E+02  0.73461930091E+02  0.14401804533E+03  0.41800000000E+01 0. -1.
        -11    1    4    4    0    0 -0.22116468165E+02 -0.54239331790E+02  0.11400201865E+03  0.12816982302E+03  0.00000000000E+00 0.  1.
         11    1    4    4    0    0 -0.73156427236E+02  0.15967811207E+02  0.11090335386E+03  0.13381475157E+03  0.00000000000E+00 0. -1.
</event>
<event>
 8    1  0.6906553E-009  0.1129639E+03  0.7561462E-02  0.1255178E+00
          1   -1    0    0  501    0  0.00000000000E+00  0.00000000000E+00  0.10497807325E+04  0.10497807325E+04  0.00000000000E+00 0. -1.
         -1   -1    0    0    0  501 -0.00000000000E+00 -0.00000000000E+00 -0.14186241121E+02  0.14186241121E+02  0.00000000000E+00 0.  1.
         25    2    1    2    0    0 -0.46393059818E+02  0.26612421680E+02  0.57602805775E+03  0.59187498190E+03  0.12508850426E+03 0.  0.
         23    2    1    2    0    0  0.46393059818E+02 -0.26612421680E+02  0.45956643367E+03  0.47209199176E+03  0.93856298352E+02 0.  0.
          5    1    3    3  502    0  0.13267993375E+02 -0.32618518362E+02  0.32887809644E+03  0.33078434380E+03  0.41800000000E+01 0.  1.
         -5    1    3    3    0  502 -0.59661053194E+02  0.59230940042E+02  0.24714996131E+03  0.26109063810E+03  0.41800000000E+01 0.  1.
        -11    1    4    4    0    0 -0.11373743596E+02  0.25861040771E+02  0.16293995499E+03  0.16537105069E+03  0.00000000000E+00 0. -1.
         11    1    4    4    0    0  0.57766803414E+02 -0.52473462452E+02  0.29662647868E+03  0.30672094107E+03  0.00000000000E+00 0.  1.
</event>
<event>
 8    1  0.6906553E-009  0.1150608E+03  0.7561462E-02  0.1251475E+00
         -2   -1    0    0    0  501 -0.00000000000E+00  0.00000000000E+00  0.83445776615E+03  0.83445776615E+03  0.00000000000E+00 0.  1.
          2   -1    0    0  501    0  0.00000000000E+00 -0.00000000000E+00 -0.20983965934E+02  0.20983965934E+02  0.00000000000E+00 0. -1.
         25    2    1    2    0    0 -0.28764205312E+02 -0.17402500897E+02  0.24042703290E+03  0.27309704077E+03  0.12508640608E+03 0.  0.
         23    2    1    2    0    0  0.28764205312E+02  0.17402500897E+02  0.57304676732E+03  0.58234469131E+03  0.98043436410E+02 0.  0.
          5    1    3    3  502    0 -0.41623780673E+02  0.45844311440E+02  0.14600836705E+03  0.15865104997E+03  0.41800000000E+01 0. -1.
         -5    1    3    3    0  502  0.12859575362E+02 -0.63246812336E+02  0.94418665850E+02  0.11444599080E+03  0.41800000000E+01 0. -1.
        -11    1    4    4    0    0  0.28487820151E+02 -0.38270632290E+02  0.24386042834E+03  0.24848361255E+03  0.00000000000E+00 0.  1.
         11    1    4    4    0    0  0.27638516095E+00  0.55673133186E+02  0.32918633897E+03  0.33386107877E+03  0.00000000000E+00 0. -1.
</event>
<event>
 8    1  0.6906553E-009  0.5427905E+02  0.7561462E-02  0.1423539E+00
          2   -1    0    0  501    0  0.00000000000E+00  0.00000000000E+00  0.30554183347E+03  0.30554183347E+03  0.00000000000E+00 0. -1.
         -2   -1    0    0    0  501 -0.00000000000E+00 -0.00000000000E+00 -0.46236405010E+02  0.46236405010E+02  0.00000000000E+00 0.  1.
         25    2    1    2    0    0 -0.48881120765E+01 -0.32119650355E+02  0.20057933598E+03  0.23861044200E+03  0.12508919789E+03 0.  0.
         23    2    1    2    0    0  0.48881120765E+01  0.32119650355E+02  0.58726092484E+02  0.11316779649E+03  0.91118772186E+02 0.  0.
          5    1    3    3  502    0  0.33622884554E+01 -0.26396264207E+02 -0.92647608375E+01  0.28484661506E+02  0.41800000000E+01 0. -1.
         -5    1    3    3    0  502 -0.82504005319E+01 -0.57233861489E+01  0.20984409682E+03  0.21012578049E+03  0.41800000000E+01 0. -1.
        -11    1    4    4    0    0 -0.28998252920E+02  0.12390748268E+02 -0.10811784615E+02  0.33336526538E+02  0.00000000000E+00 0.  1.
         11    1    4    4    0    0  0.33886364997E+02  0.19728902088E+02  0.69537877099E+02  0.79831269949E+02  0.00000000000E+00 0. -1.
</event>
<event>
 8    1  0.6906553E-009  0.1379779E+03  0.7561462E-02  0.1216076E+00
          2   -1    0    0  501    0  0.00000000000E+00  0.00000000000E+00  0.41245627757E+03  0.41245627757E+03  0.00000000000E+00 0. -1.
         -2   -1    0    0    0  501 -0.00000000000E+00 -0.00000000000E+00 -0.54451268633E+02  0.54451268633E+02  0.00000000000E+00 0.  1.
         25    2    1    2    0    0 -0.67112920439E+02 -0.62896502931E+02  0.26697776093E+03  0.30884430328E+03  0.12509022611E+03 0.  0.
         23    2    1    2    0    0  0.67112920439E+02  0.62896502931E+02  0.91027248008E+02  0.15806324292E+03  0.90762958924E+02 0.  0.
          5    1    3    3  502    0 -0.10135167910E+03 -0.26442180011E+02  0.18862820428E+03  0.21579949858E+03  0.41800000000E+01 0. -1.
         -5    1    3    3    0  502  0.34238758656E+02 -0.36454322920E+02  0.78349556650E+02  0.93044804698E+02  0.41800000000E+01 0. -1.
        -11    1    4    4    0    0  0.84769994100E+02  0.57671565832E+02  0.52112193185E+02  0.11501148675E+03  0.00000000000E+00 0. -1.
         11    1    4    4    0    0 -0.17657073661E+02  0.52249370988E+01  0.38915054823E+02  0.43051756176E+02  0.00000000000E+00 0.  1.
</event>
<event>
 8    1  0.6906553E-009  0.1223290E+03  0.7561462E-02  0.1239304E+00
         -2   -1    0    0    0  501 -0.00000000000E+00  0.00000000000E+00  0.10003139592E+03  0.10003139592E+03  0.00000000000E+00 0.  1.
          2   -1    0    0  501    0  0.00000000000E+00 -0.00000000000E+00 -0.22987102847E+03  0.22987102847E+03  0.00000000000E+00 0. -1.
         25    2    1    2    0    0  0.21554430366E+02  0.62177988927E+02  0.23452400420E+02  0.14327663763E+03  0.12508990379E+03 0.  0.
         23    2    1    2    0    0 -0.21554430366E+02 -0.62177988927E+02 -0.15329203297E+03  0.18662578676E+03  0.83666248490E+02 0.  0.
          5    1    3    3  502    0  0.65851119253E+02  0.66645360344E+02  0.23081234678E+01  0.93812439454E+02  0.41800000000E+01 0. -1.
         -5    1    3    3    0  502 -0.44296688888E+02 -0.44673714173E+01  0.21144276953E+02  0.49464198180E+02  0.41800000000E+01 0. -1.
        -11    1    4    4    0    0 -0.14898191126E+02  0.19314626971E+02 -0.41237142646E+02  0.47911510594E+02  0.00000000000E+00 0. -1.
         11    1    4    4    0    0 -0.66562392393E+01 -0.81492615898E+02 -0.11205489033E+03  0.13871427617E+03  0.00000000000E+00 0.  1.
</event>
<event>
 8    1  0.6906553E-009  0.1299782E+03  0.7561462E-02  0.1227488E+00
          1   -1    0    0  501    0  0.00000000000E+00  0.00000000000E+00  0.69808941339E+02  0.69808941339E+02  0.00000000000E+00 0.  1.
         -1   -1    0    0    0  501 -0.00000000000E+00 -0.00000000000E+00 -0.28930730148E+03  0.28930730148E+03  0.00000000000E+00 0. -1.
         25    2    1    2    0    0 -0.84591951848E+02  0.82401235729E+01 -0.74232001208E+02  0.16846989788E+03  0.12509204025E+03 0.  0.
         23    2    1    2    0    0  0.84591951848E+02 -0.82401235729E+01 -0.14526635893E+03  0.19064634494E+03  0.89554541181E+02 0.  0.
          5    1    3    3  502    0 -0.48200733115E+02 -0.56018392947E+02 -0.54495040771E+02  0.91916009975E+02  0.41800000000E+01 0. -1.
         -5    1    3    3    0  502 -0.36391218733E+02  0.64258516520E+02 -0.19736960438E+02  0.76553887906E+02  0.41800000000E+01 0. -1.
        -11    1    4    4    0    0  0.59737326968E+02 -0.39813435185E+02 -0.50671205355E+02  0.87870523537E+02  0.00000000000E+00 0. -1.
         11    1    4    4    0    0  0.24854624879E+02  0.31573311612E+02 -0.94595153576E+02  0.10277582140E+03  0.00000000000E+00 0.  1.
</event>
<event>
 8    1  0.6906553E-009  0.8367451E+02  0.7561462E-02  0.1318936E+00
         -2   -1    0    0    0  501 -0.00000000000E+00  0.00000000000E+00  0.59070496557E+03  0.59070496557E+03  0.00000000000E+00 0.  1.
          2   -1    0    0  501    0  0.00000000000E+00 -0.00000000000E+00 -0.23752193802E+02  0.23752193802E+02  0.00000000000E+00 0. -1.
         25    2    1    2    0    0 -0.23738246514E+02 -0.14097949428E+02  0.22703946149E+03  0.26068457599E+03  0.12508906652E+03 0.  0.
         23    2    1    2    0    0  0.23738246514E+02  0.14097949428E+02  0.33991331028E+03  0.35377258338E+03  0.94083610260E+02 0.  0.
          5    1    3    3  502    0 -0.45475138981E+02 -0.75006834578E+01  0.23240851035E+03  0.23697138350E+03  0.41800000000E+01 0.  1.
         -5    1    3    3    0  502  0.21736892467E+02 -0.65972659706E+01 -0.53690488592E+01  0.23713192490E+02  0.41800000000E+01 0.  1.
        -11    1    4    4    0    0  0.59520258276E+02  0.17473237679E+02  0.22194628074E+03  0.23045200523E+03  0.00000000000E+00 0. -1.
         11    1    4    4    0    0 -0.35782011762E+02 -0.33752882507E+01  0.11796702954E+03  0.12332057815E+03  0.00000000000E+00 0.  1.
</event>
<event>
 8    1  0.6906553E-009  0.1353052E+03  0.7561462E-02  0.1219789E+00
         -2   -1    0    0    0  501 -0.00000000000E+00  0.00000000000E+00  0.12277957845E+03  0.12277957845E+03  0.00000000000E+00 0.  1.
          2   -1    0    0  501    0  0.00000000000E+00 -0.00000000000E+00 -0.16889714183E+03  0.16889714183E+03  0.00000000000E+00 0. -1.
         25    2    1    2    0    0  0.77787953831E+02 -0.61367439774E+02 -0.36283701429E+02  0.16364968248E+03  0.12509109945E+03 0.  0.
         23    2    1    2    0    0 -0.77787953831E+02  0.61367439774E+02 -0.98338619473E+01  0.12802703779E+03  0.80481607463E+02 0.  0.
          5    1    3    3  502    0  0.99739807689E+01  0.30538067074E+02 -0.37231625038E+02  0.49353015470E+02  0.41800000000E+01 0. -1.
         -5    1    3    3    0  502  0.67813973062E+02 -0.91905506848E+02  0.94792360912E+00  0.11429666701E+03  0.41800000000E+01 0. -1.
        -11    1    4    4    0    0  0.27983634491E+01  0.40607698571E+02  0.11152627783E+02  0.42204231158E+02  0.00000000000E+00 0.  1.
         11    1    4    4    0    0 -0.80586317280E+02  0.20759741203E+02 -0.20986489730E+02  0.85822806636E+02  0.00000000000E+00 0. -1.
</event>
<event>
 8    1  0.6906553E-009  0.9873727E+02  0.7561462E-02  0.1282974E+00
          1   -1    0    0  501    0  0.00000000000E+00  0.00000000000E+00  0.28115237869E+02  0.28115237869E+02  0.00000000000E+00 0. -1.
         -1   -1    0    0    0  501 -0.00000000000E+00 -0.00000000000E+00 -0.43888016327E+03  0.43888016327E+03  0.00000000000E+00 0.  1.
         25    2    1    2    0    0  0.11149025943E+02 -0.16074594569E+02 -0.26473303853E+03  0.29345237945E+03  0.12509206188E+03 0.  0.
         23    2    1    2    0    0 -0.11149025943E+02  0.16074594569E+02 -0.14603188688E+03  0.17354302169E+03  0.91701554095E+02 0.  0.
          5    1    3    3  502    0 -0.48859834675E+02 -0.12949544049E+02 -0.19412722472E+03  0.20064352946E+03  0.41800000000E+01 0. -1.
         -5    1    3    3    0  502  0.60008860618E+02 -0.31250505207E+01 -0.70605813805E+02  0.92808849991E+02  0.41800000000E+01 0. -1.
        -11    1    4    4    0    0  0.27990578723E+02 -0.19108707465E+02 -0.92323270587E+02  0.98347351211E+02  0.00000000000E+00 0. -1.
         11    1    4    4    0    0 -0.39139604667E+02  0.35183302035E+02 -0.53708616289E+02  0.75195670482E+02  0.00000000000E+00 0.  1.
</event>
<event>
 8    1  0.6906553E-009  0.1294210E+03  0.7561462E-02  0.1228317E+00
         -1   -1    0    0    0  501 -0.00000000000E+00  0.00000000000E+00  0.18847807118E+03  0.18847807118E+03  0.00000000000E+00 0.  1.
          1   -1    0    0  501    0  0.00000000000E+00 -0.00000000000E+00 -0.11310825928E+03  0.11310825928E+03  0.00000000000E+00 0. -1.
         25    2    1    2    0    0 -0.21946537330E+02  0.95035616779E+02  0.44418949423E+02  0.16472182662E+03  0.12508724211E+03 0.  0.
         23    2    1    2    0    0  0.21946537330E+02 -0.95035616779E+02  0.30950862475E+02  0.13686450385E+03  0.90887389491E+02 0.  0.
          5    1    3    3  502    0 -0.20768693004E+02 -0.83326649962E+01 -0.29722863010E+02  0.37439189368E+02  0.41800000000E+01 0.  1.
         -5    1    3    3    0  502 -0.11778443263E+01  0.10336828177E+03  0.74141812433E+02  0.12728263725E+03  0.41800000000E+01 0.  1.
        -11    1    4    4    0    0  0.57130093979E+02 -0.54720093511E+02  0.25311441868E+02  0.83059047438E+02  0.00000000000E+00 0.  1.
         11    1    4    4    0    0 -0.35183556649E+02 -0.40315523267E+02  0.56394206065E+01  0.53805456411E+02  0.00000000000E+00 0. -1.
</event>
<event>
 8    1  0.6906553E-009  0.1081421E+03  0.7561462E-02  0.1264050E+00
          2   -1    0    0  501    0  0.00000000000E+00  0.00000000000E+00  0.11150186811E+03  0.11150186811E+03  0.00000000000E+00 0. -1.
         -2   -1    0    0    0  501 -0.00000000000E+00 -0.00000000000E+00 -0.20909366013E+03  0.20909366013E+03  0.00000000000E+00 0.  1.
         25    2    1    2    0    0 -0.62107613181E+02 -0.22283276864E+02 -0.14039755311E+03  0.19928297278E+03  0.12509328631E+03 0.  0.
         23    2    1    2    0    0  0.62107613181E+02  0.22283276864E+02  0.42805761082E+02  0.12131255546E+03  0.92360721560E+02 0.  0.
          5    1    3    3  502    0 -0.87204148129E+02  0.20077769748E+02 -0.72153483617E+02  0.11502729192E+03  0.41800000000E+01 0.  1.
         -5    1    3    3    0  502  0.25096534948E+02 -0.42361046612E+02 -0.68244069489E+02  0.84255680858E+02  0.41800000000E+01 0.  1.
        -11    1    4    4    0    0  0.62221344912E+02  0.76919094031E+01 -0.12659210524E+02  0.63960275516E+02  0.00000000000E+00 0.  1.
         11    1    4    4    0    0 -0.11373173090E+00  0.14591367461E+02  0.55464971606E+02  0.57352279942E+02  0.00000000000E+00 0. -1.
</event>
<event>
 8    1  0.6906553E-009  0.2613459E+03  0.7561462E-02  0.1106337E+00
          2   -1    0    0  501    0  0.00000000000E+00  0.00000000000E+00  0.85775621221E+03  0.85775621221E+03  0.00000000000E+00 0. -1.
         -2   -1    0    0    0  501 -0.00000000000E+00 -0.00000000000E+00 -0.25548677957E+03  0.25548677957E+03  0.00000000000E+00 0.  1.
         25    2    1    2    0    0  0.20169924566E+03  0.12665482055E+03 -0.15760708774E+03  0.31178832009E+03  0.12509169903E+03 0.  0.
         23    2    1    2    0    0 -0.20169924566E+03 -0.12665482055E+03  0.75987652038E+03  0.80145467170E+03  0.90516491824E+02 0.  0.
          5    1    3    3  502    0  0.18923246661E+03  0.14973248559E+03 -0.13291198012E+03  0.27552098018E+03  0.41800000000E+01 0.  1.
         -5    1    3    3    0  502  0.12466779057E+02 -0.23077665038E+02 -0.24695107622E+02  0.36267339910E+02  0.41800000000E+01 0.  1.
        -11    1    4    4    0    0 -0.13129026204E+03 -0.12938025124E+03  0.55007807125E+03  0.58013986829E+03  0.00000000000E+00 0. -1.
         11    1    4    4    0    0 -0.70408983625E+02  0.27254306876E+01  0.20979844913E+03  0.22131480340E+03  0.00000000000E+00 0.  1.
</event>
<event>
 8    1  0.6906553E-009  0.1045562E+03  0.7561462E-02  0.1270997E+00
         -1   -1    0    0    0  501 -0.00000000000E+00  0.00000000000E+00  0.12262813527E+04  0.12262813527E+04  0.00000000000E+00 0.  1.
          1   -1    0    0  501    0  0.00000000000E+00 -0.00000000000E+00 -0.98015654502E+01  0.98015654502E+01  0.00000000000E+00 0. -1.
         25    2    1    2    0    0 -0.52044537456E+01  0.15016757814E+02  0.77123452028E+03  0.78147340229E+03  0.12508158883E+03 0.  0.
         23    2    1    2    0    0  0.52044537456E+01 -0.15016757814E+02  0.44524526693E+03  0.45460951582E+03  0.90409483991E+02 0.  0.
          5    1    3    3  502    0  0.48091436100E+02  0.36240000930E+02  0.25511960803E+03  0.26216332828E+03  0.41800000000E+01 0. -1.
         -5    1    3    3    0  502 -0.53295889846E+02 -0.21223243117E+02  0.51611491225E+03  0.51931007401E+03  0.41800000000E+01 0. -1.
        -11    1    4    4    0    0 -0.20486561649E+02 -0.46371959249E+02  0.27211238137E+03  0.27679451928E+03  0.00000000000E+00 0.  1.
         11    1    4    4    0    0  0.25691015395E+02  0.31355201436E+02  0.17313288556E+03  0.17781499653E+03  0.00000000000E+00 0. -1.
</event>
<event>
 8    1  0.6906553E-009  0.1158537E+03  0.7561462E-02  0.1250098E+00
         -2   -1    0    0    0  501 -0.00000000000E+00  0.00000000000E+00  0.78601569809E+02  0.78601569809E+02  0.00000000000E+00 0. -1.
          2   -1    0    0  501    0  0.00000000000E+00 -0.00000000000E+00 -0.18226033610E+03  0.18226033610E+03  0.00000000000E+00 0.  1.
         25    2    1    2    0    0  0.47882731428E+02  0.15776575409E+02 -0.39342819174E+02  0.14049130458E+03  0.12509313706E+03 0.  0.
         23    2    1    2    0    0 -0.47882731428E+02 -0.15776575409E+02 -0.64315947117E+02  0.12037060133E+03  0.88379207460E+02 0.  0.
          5    1    3    3  502    0  0.61420362824E+02 -0.39549094510E+02 -0.39970378820E+02  0.83376827890E+02  0.41800000000E+01 0. -1.
         -5    1    3    3    0  502 -0.13537631396E+02  0.55325669920E+02  0.62755964586E+00  0.57114476685E+02  0.41800000000E+01 0. -1.
        -11    1    4    4    0    0  0.22630250675E+02  0.12027803707E+02 -0.12186199025E+02  0.28377803902E+02  0.00000000000E+00 0. -1.
         11    1    4    4    0    0 -0.70512982104E+02 -0.27804379116E+02 -0.52129748092E+02  0.91992797432E+02  0.00000000000E+00 0.  1.
</event>
<event>
 8    1  0.6906553E-009  0.9824482E+02  0.7561462E-02  0.1284031E+00
          2   -1    0    0  501    0  0.00000000000E+00  0.00000000000E+00  0.61035599308E+03  0.61035599308E+03  0.00000000000E+00 0. -1.
         -2   -1    0    0    0  501 -0.00000000000E+00 -0.00000000000E+00 -0.25222551289E+02  0.25222551289E+02  0.00000000000E+00 0.  1.
         25    2    1    2    0    0  0.42084788058E+02 -0.36374883496E+02  0.37184950358E+03  0.39624946598E+03  0.12508926591E+03 0.  0.
         23    2    1    2    0    0 -0.42084788058E+02  0.36374883496E+02  0.21328393821E+03  0.23932907839E+03  0.93242200351E+02 0.  0.
          5    1    3    3  502    0  0.68094372636E+02  0.53350940482E+01  0.30827888292E+03  0.31578259748E+03  0.41800000000E+01 0. -1.
         -5    1    3    3    0  502 -0.26009584578E+02 -0.41709977544E+02  0.63570620654E+02  0.80466868505E+02  0.41800000000E+01 0. -1.
        -11    1    4    4    0    0 -0.45174124924E+02  0.30698302591E+01  0.33150784531E+02  0.56116841817E+02  0.00000000000E+00 0.  1.
         11    1    4    4    0    0  0.30893368658E+01  0.33305053237E+02  0.18013315368E+03  0.18321223657E+03  0.00000000000E+00 0. -1.
</event>
<event>
 8    1  0.6906553E-009  0.2628595E+03  0.7561462E-02  0.1105437E+00
          2   -1    0    0  501    0  0.00000000000E+00  0.00000000000E+00  0.94053339307E+03  0.94053339307E+03  0.00000000000E+00 0.  1.
         -2   -1    0    0    0  501 -0.00000000000E+00 -0.00000000000E+00 -0.10222542466E+03  0.10222542466E+03  0.00000000000E+00 0. -1.
         25    2    1    2    0    0  0.57827401418E+02  0.24207159886E+03  0.17710777445E+03  0.33009208313E+03  0.12510376591E+03 0.  0.
         23    2    1    2    0    0 -0.57827401418E+02 -0.24207159886E+03  0.66120019396E+03  0.71266673461E+03  0.93624306654E+02 0.  0.
          5    1    3    3  502    0 -0.31710483978E+02  0.10586641840E+03  0.10247176753E+03  0.15076866014E+03  0.41800000000E+01 0. -1.
         -5    1    3    3    0  502  0.89537885396E+02  0.13620518045E+03  0.74636006923E+02  0.17932342299E+03  0.41800000000E+01 0. -1.
        -11    1    4    4    0    0 -0.52943217605E+02 -0.13678681841E+03  0.49132195248E+03  0.51274835833E+03  0.00000000000E+00 0.  1.
         11    1    4    4    0    0 -0.48841838127E+01 -0.10528478045E+03  0.16987824148E+03  0.19991837628E+03  0.00000000000E+00 0. -1.
</event>
<event>
 8    1  0.6906553E-009  0.1806315E+03  0.7561462E-02  0.1167193E+00
         -2   -1    0    0    0  501 -0.00000000000E+00  0.00000000000E+00  0.31585292709E+02  0.31585292709E+02  0.00000000000E+00 0.  1.
          2   -1    0    0  501    0  0.00000000000E+00 -0.00000000000E+00 -0.13606343414E+04  0.13606343414E+04  0.00000000000E+00 0. -1.
         25    2    1    2    0    0  0.22461711161E+02 -0.15982539161E+03 -0.94845567755E+03  0.97018752752E+03  0.12508789717E+03 0.  0.
         23    2    1    2    0    0 -0.22461711161E+02  0.15982539161E+03 -0.38059337109E+03  0.42203210654E+03  0.84918199204E+02 0.  0.
          5    1    3    3  502    0  0.38687833126E+02 -0.28124193424E+02 -0.94749942920E+02  0.10622025594E+03  0.41800000000E+01 0. -1.
         -5    1    3    3    0  502 -0.16226121965E+02 -0.13170119819E+03 -0.85370573463E+03  0.86396727159E+03  0.41800000000E+01 0. -1.
        -11    1    4    4    0    0 -0.44966527782E+02  0.45508062496E+02 -0.16502254455E+03  0.17698986577E+03  0.00000000000E+00 0. -1.
         11    1    4    4    0    0  0.22504816621E+02  0.11431732911E+03 -0.21557082654E+03  0.24504224077E+03  0.00000000000E+00 0.  1.
</event>
<event>
 8    1  0.6906553E-009  0.1089878E+03  0.7561462E-02  0.1262456E+00
          2   -1    0    0  501    0  0.00000000000E+00  0.00000000000E+00  0.80269991495E+02  0.80269991495E+02  0.00000000000E+00 0. -1.
         -2   -1    0    0    0  501 -0.00000000000E+00 -0.00000000000E+00 -0.18717471722E+03  0.18717471722E+03  0.00000000000E+00 0.  1.
         25    2    1    2    0    0 -0.21562942266E+02  0.44919569461E+02 -0.29818127155E+02  0.13791126182E+03  0.12509063606E+03 0.  0.
         23    2    1    2    0    0  0.21562942266E+02 -0.44919569461E+02 -0.77086598573E+02  0.12953344690E+03  0.91399354406E+02 0.  0.
          5    1    3    3  502    0  0.37887386008E+02  0.48372823112E+02  0.14851747237E+02  0.63351644260E+02  0.41800000000E+01 0.  1.
         -5    1    3    3    0  502 -0.59450328275E+02 -0.34532536516E+01 -0.44669874392E+02  0.74559617562E+02  0.41800000000E+01 0.  1.
        -11    1    4    4    0    0 -0.30878179473E+02 -0.27740587499E+02 -0.57625781551E+02  0.71019242898E+02  0.00000000000E+00 0.  1.
         11    1    4    4    0    0  0.52441121740E+02 -0.17178981962E+02 -0.19460817022E+02  0.58514204000E+02  0.00000000000E+00 0. -1.
</event>
<event>
 8    1  0.6906553E-009  0.1033288E+03  0.7561462E-02  0.1273448E+00
          2   -1    0    0  501    0  0.00000000000E+00  0.00000000000E+00  0.13737745623E+04  0.13737745623E+04  0.00000000000E+00 0. -1.
         -2   -1    0    0    0  501 -0.00000000000E+00 -0.00000000000E+00 -0.10351966274E+02  0.10351966274E+02  0.00000000000E+00 0.  1.
         25    2    1    2    0    0 -0.11358656229E+02 -0.17290187104E+02  0.10485546053E+04  0.10561923899E+04  0.12509050535E+03 0.  0.
         23    2    1    2    0    0  0.11358656229E+02  0.17290187104E+02  0.31486799071E+03  0.32793413867E+03  0.89280334273E+02 0.  0.
          5    1    3    3  502    0  0.18729542782E+02  0.46021023750E+02  0.61181605800E+03  0.61384451747E+03  0.41800000000E+01 0. -1.
         -5    1    3    3    0  502 -0.30088199011E+02 -0.63311210855E+02  0.43673854730E+03  0.44234787243E+03  0.41800000000E+01 0. -1.
        -11    1    4    4    0    0 -0.31465130907E+02  0.28341570599E+02  0.10060615017E+03  0.10915537797E+03  0.00000000000E+00 0.  1.
         11    1    4    4    0    0  0.42823787136E+02 -0.11051383495E+02  0.21426184054E+03  0.21877876070E+03  0.00000000000E+00 0. -1.
</event>
<event>
 8    1  0.6906553E-009  0.1767272E+03  0.7561462E-02  0.1171009E+00
          1   -1    0    0  501    0  0.00000000000E+00  0.00000000000E+00  0.82936410108E+02  0.82936410108E+02  0.00000000000E+00 0. -1.
         -1   -1    0    0    0  501 -0.00000000000E+00 -0.00000000000E+00 -0.40624401668E+03  0.40624401668E+03  0.00000000000E+00 0.  1.
         25    2    1    2    0    0 -0.88775445744E+01  0.14479063665E+03 -0.20637250479E+03  0.28156869518E+03  0.12509268608E+03 0.  0.
         23    2    1    2    0    0  0.88775445744E+01 -0.14479063665E+03 -0.11693510178E+03  0.20761173161E+03  0.91573324785E+02 0.  0.
          5    1    3    3  502    0 -0.33236758615E+02 -0.92954125795E+01 -0.28593728269E+02  0.45012892759E+02  0.41800000000E+01 0.  1.
         -5    1    3    3    0  502  0.24359214040E+02  0.15408604923E+03 -0.17777877652E+03  0.23655580242E+03  0.41800000000E+01 0.  1.
        -11    1    4    4    0    0 -0.31845096832E+02 -0.80044365873E+02 -0.28614410988E+02  0.90774419394E+02  0.00000000000E+00 0.  1.
         11    1    4    4    0    0  0.40722641406E+02 -0.64746270781E+02 -0.88320690791E+02  0.11683731221E+03  0.00000000000E+00 0. -1.
</event>
<event>
 8    1  0.6906553E-009  0.8985758E+02  0.7561462E-02  0.1303197E+00
          1   -1    0    0  501    0  0.00000000000E+00  0.00000000000E+00  0.15440257660E+03  0.15440257660E+03  0.00000000000E+00 0. -1.
         -1   -1    0    0    0  501 -0.00000000000E+00 -0.00000000000E+00 -0.90284368897E+02  0.90284368897E+02  0.00000000000E+00 0.  1.
         25    2    1    2    0    0 -0.35166562315E+02 -0.28434329969E+02  0.31778095039E+02  0.13673950514E+03  0.12507056695E+03 0.  0.
         23    2    1    2    0    0  0.35166562315E+02  0.28434329969E+02  0.32340112664E+02  0.10794744035E+03  0.92528745620E+02 0.  0.
          5    1    3    3  502    0 -0.25816929221E+01 -0.71148973237E+02 -0.50076433727E+01  0.71493988720E+02  0.41800000000E+01 0. -1.
         -5    1    3    3    0  502 -0.32584869393E+02  0.42714643268E+02  0.36785738412E+02  0.65245516424E+02  0.41800000000E+01 0. -1.
        -11    1    4    4    0    0  0.85305526305E+01  0.26459734678E+02 -0.29530543262E+02  0.40557870663E+02  0.00000000000E+00 0.  1.
         11    1    4    4    0    0  0.26636009685E+02  0.19745952913E+01  0.61870655925E+02  0.67389569691E+02  0.00000000000E+00 0. -1.
</event>
<event>
 8    1  0.6906553E-009  0.1618386E+03  0.7561462E-02  0.1186636E+00
          2   -1    0    0  501    0  0.00000000000E+00  0.00000000000E+00  0.46879617495E+03  0.46879617495E+03  0.00000000000E+00 0. -1.
         -2   -1    0    0    0  501 -0.00000000000E+00 -0.00000000000E+00 -0.61794137192E+02  0.61794137192E+02  0.00000000000E+00 0.  1.
         25    2    1    2    0    0 -0.35691165366E+02 -0.12589027295E+03  0.21660703602E+03  0.28229010474E+03  0.12508746969E+03 0.  0.
         23    2    1    2    0    0  0.35691165366E+02  0.12589027295E+03  0.19039500174E+03  0.24830020740E+03  0.90997341720E+02 0.  0.
          5    1    3    3  502    0  0.16604522228E+02  0.99150708155E+01 -0.17346506575E+01  0.19862029116E+02  0.41800000000E+01 0. -1.
         -5    1    3    3    0  502 -0.52295687594E+02 -0.13580534376E+03  0.21834168667E+03  0.26242807562E+03  0.41800000000E+01 0. -1.
        -11    1    4    4    0    0 -0.28809436223E+02  0.22981542924E+02  0.32794018267E+02  0.49331354783E+02  0.00000000000E+00 0. -1.
         11    1    4    4    0    0  0.64500601590E+02  0.10290873002E+03  0.15760098348E+03  0.19896885262E+03  0.00000000000E+00 0.  1.
</event>
<event>
 8    1  0.6906553E-009  0.7750845E+02  0.7561462E-02  0.1336275E+00
          1   -1    0    0  501    0  0.00000000000E+00  0.00000000000E+00  0.76716131537E+02  0.76716131537E+02  0.00000000000E+00 0.  1.
         -1   -1    0    0    0  501 -0.00000000000E+00 -0.00000000000E+00 -0.19788539742E+03  0.19788539742E+03  0.00000000000E+00 0. -1.
         25    2    1    2    0    0 -0.50851788368E+02 -0.22364950361E+02 -0.88857694838E+02  0.16318570333E+03  0.12509112061E+03 0.  0.
         23    2    1    2    0    0  0.50851788368E+02  0.22364950361E+02 -0.32311571044E+02  0.11141582562E+03  0.91012928701E+02 0.  0.
          5    1    3    3  502    0 -0.37659104219E+02 -0.37282419960E+01 -0.11911380252E+03  0.12505070280E+03  0.41800000000E+01 0.  1.
         -5    1    3    3    0  502 -0.13192684149E+02 -0.18636708365E+02  0.30256107683E+02  0.38135000536E+02  0.41800000000E+01 0.  1.
        -11    1    4    4    0    0 -0.16930336644E+02 -0.88525668711E+01 -0.31434893794E+02  0.36785279487E+02  0.00000000000E+00 0. -1.
         11    1    4    4    0    0  0.67782125012E+02  0.31217517232E+02 -0.87667724967E+00  0.74630546135E+02  0.00000000000E+00 0.  1.
</event>
<event>
 8    1  0.6906553E-009  0.1272155E+03  0.7561462E-02  0.1231647E+00
         -2   -1    0    0    0  501 -0.00000000000E+00  0.00000000000E+00  0.29120982763E+03  0.29120982763E+03  0.00000000000E+00 0.  1.
          2   -1    0    0  501    0  0.00000000000E+00 -0.00000000000E+00 -0.97433029162E+02  0.97433029162E+02  0.00000000000E+00 0. -1.
         25    2    1    2    0    0  0.53229563723E+02  0.67986013951E+02  0.21419353852E+03  0.26264398895E+03  0.12509000138E+03 0.  0.
         23    2    1    2    0    0 -0.53229563723E+02 -0.67986013951E+02 -0.20416740049E+02  0.12599886784E+03  0.89461650302E+02 0.  0.
          5    1    3    3  502    0  0.48069028131E+02 -0.20745749703E+02  0.36629861803E+02  0.64033091225E+02  0.41800000000E+01 0.  1.
         -5    1    3    3    0  502  0.51605355918E+01  0.88731763654E+02  0.17756367671E+03  0.19861089773E+03  0.41800000000E+01 0.  1.
        -11    1    4    4    0    0 -0.70635523055E+02 -0.43735743251E+02  0.96412914826E+01  0.83636994544E+02  0.00000000000E+00 0.  1.
         11    1    4    4    0    0  0.17405959332E+02 -0.24250270700E+02 -0.30058031531E+02  0.42361873292E+02  0.00000000000E+00 0. -1.
</event>
<event>
 8    1  0.6906553E-009  0.7378414E+02  0.7561462E-02  0.1347678E+00
          2   -1    0    0  501    0  0.00000000000E+00  0.00000000000E+00  0.42133430361E+03  0.42133430361E+03  0.00000000000E+00 0. -1.
         -2   -1    0    0    0  501 -0.00000000000E+00 -0.00000000000E+00 -0.34828957311E+02  0.34828957311E+02  0.00000000000E+00 0.  1.
         25    2    1    2    0    0 -0.41790071762E+02 -0.28061570793E+02  0.20631306920E+03  0.24647647802E+03  0.12510679374E+03 0.  0.
         23    2    1    2    0    0  0.41790071762E+02  0.28061570793E+02  0.18019227710E+03  0.20968678291E+03  0.94685945868E+02 0.  0.
          5    1    3    3  502    0  0.13042808279E+02  0.27245851125E+00 -0.12830182537E+02  0.18768992125E+02  0.41800000000E+01 0. -1.
         -5    1    3    3    0  502 -0.54832880042E+02 -0.28334029304E+02  0.21914325174E+03  0.22770748589E+03  0.41800000000E+01 0. -1.
        -11    1    4    4    0    0 -0.48848860162E+01 -0.10423939173E+02 -0.66503773251E+01  0.13294665767E+02  0.00000000000E+00 0.  1.
         11    1    4    4    0    0  0.46674957778E+02  0.38485509966E+02  0.18684265443E+03  0.19639211714E+03  0.00000000000E+00 0. -1.
</event>
<event>
 8    1  0.6906553E-009  0.1620767E+03  0.7561462E-02  0.1186372E+00
          2   -1    0    0  501    0  0.00000000000E+00  0.00000000000E+00  0.40719316945E+02  0.40719316945E+02  0.00000000000E+00 0. -1.
         -2   -1    0    0    0  501 -0.00000000000E+00 -0.00000000000E+00 -0.82114859354E+03  0.82114859354E+03  0.00000000000E+00 0.  1.
         25    2    1    2    0    0  0.13665640789E+03  0.23294513799E+02 -0.52047477694E+03  0.55295439840E+03  0.12508782952E+03 0.  0.
         23    2    1    2    0    0 -0.13665640789E+03 -0.23294513799E+02 -0.25995449966E+03  0.30891351209E+03  0.92917209731E+02 0.  0.
          5    1    3    3  502    0  0.85224455936E+02 -0.47504061905E+02 -0.30851629470E+03  0.32360411043E+03  0.41800000000E+01 0. -1.
         -5    1    3    3    0  502  0.51431951958E+02  0.70798575704E+02 -0.21195848223E+03  0.22935028797E+03  0.41800000000E+01 0. -1.
        -11    1    4    4    0    0 -0.18475829515E+02 -0.61272004821E+01  0.33884621444E+01  0.19758049948E+02  0.00000000000E+00 0. -1.
         11    1    4    4    0    0 -0.11818057838E+03 -0.17167313317E+02 -0.26334296180E+03  0.28915546214E+03  0.00000000000E+00 0.  1.
</event>
<event>
 8    1  0.6906553E-009  0.1176714E+03  0.7561462E-02  0.1246989E+00
         -3   -1    0    0    0  501 -0.00000000000E+00  0.00000000000E+00  0.22992789019E+03  0.22992789019E+03  0.00000000000E+00 0.  1.
          3   -1    0    0  501    0  0.00000000000E+00 -0.00000000000E+00 -0.67313691980E+02  0.67313691980E+02  0.00000000000E+00 0. -1.
         25    2    1    2    0    0  0.43779216678E+02 -0.37867975773E+02  0.59843883706E+02  0.15026442235E+03  0.12508997884E+03 0.  0.
         23    2    1    2    0    0 -0.43779216678E+02  0.37867975773E+02  0.10277031450E+03  0.14697715981E+03  0.87692328981E+02 0.  0.
          5    1    3    3  502    0 -0.21574825883E+02  0.29351306361E+02  0.40151789507E+02  0.54374726644E+02  0.41800000000E+01 0. -1.
         -5    1    3    3    0  502  0.65354042561E+02 -0.67219282133E+02  0.19692094199E+02  0.95889695711E+02  0.41800000000E+01 0. -1.
        -11    1    4    4    0    0  0.52399180360E+01  0.53209171502E+02  0.57413124991E+02  0.78453423088E+02  0.00000000000E+00 0.  1.
         11    1    4    4    0    0 -0.49019134714E+02 -0.15341195730E+02  0.45357189510E+02  0.68523736725E+02  0.00000000000E+00 0. -1.
</event>
<event>
 8    1  0.6906553E-009  0.1709836E+03  0.7561462E-02  0.1176826E+00
         -2   -1    0    0    0  501 -0.00000000000E+00  0.00000000000E+00  0.49771370148E+03  0.49771370148E+03  0.00000000000E+00 0.  1.
          2   -1    0    0  501    0  0.00000000000E+00 -0.00000000000E+00 -0.80767038239E+02  0.80767038239E+02  0.00000000000E+00 0. -1.
         25    2    1    2    0    0 -0.86021281643E+02  0.13052635124E+03  0.30146627976E+03  0.36189235404E+03  0.12508944325E+03 0.  0.
         23    2    1    2    0    0  0.86021281643E+02 -0.13052635124E+03  0.11548038348E+03  0.21658838568E+03  0.95592994412E+02 0.  0.
          5    1    3    3  502    0 -0.10555201824E+03  0.12397744032E+03  0.19834754971E+03  0.25665318455E+03  0.41800000000E+01 0. -1.
         -5    1    3    3    0  502  0.19530736601E+02  0.65489109183E+01  0.10311873005E+03  0.10523916949E+03  0.41800000000E+01 0. -1.
        -11    1    4    4    0    0  0.34725162803E+02 -0.33143137008E+02  0.92403089490E+02  0.10412797611E+03  0.00000000000E+00 0.  1.
         11    1    4    4    0    0  0.51296118841E+02 -0.97383214231E+02  0.23077293986E+02  0.11246040957E+03  0.00000000000E+00 0. -1.
</event>
<event>
 8    1  0.6906553E-009  0.7779229E+02  0.7561462E-02  0.1335436E+00
          2   -1    0    0  501    0  0.00000000000E+00  0.00000000000E+00  0.57205973390E+02  0.57205973390E+02  0.00000000000E+00 0. -1.
         -2   -1    0    0    0  501 -0.00000000000E+00 -0.00000000000E+00 -0.23836729347E+03  0.23836729347E+03  0.00000000000E+00 0.  1.
         25    2    1    2    0    0 -0.34237403831E+02 -0.60521401042E+01 -0.12964370306E+03  0.18347527636E+03  0.12508740572E+03 0.  0.
         23    2    1    2    0    0  0.34237403831E+02  0.60521401042E+01 -0.51517617014E+02  0.11209799050E+03  0.93290226663E+02 0.  0.
          5    1    3    3  502    0  0.10296946052E+02 -0.10267208089E+01 -0.13735530072E+03  0.13780795438E+03  0.41800000000E+01 0.  1.
         -5    1    3    3    0  502 -0.44534349882E+02 -0.50254192953E+01  0.77115976543E+01  0.45667321981E+02  0.41800000000E+01 0.  1.
        -11    1    4    4    0    0 -0.31727228932E+02 -0.61800615325E+01 -0.19618239127E+02  0.37811182508E+02  0.00000000000E+00 0. -1.
         11    1    4    4    0    0  0.65964632762E+02  0.12232201637E+02 -0.31899377886E+02  0.74286807994E+02  0.00000000000E+00 0.  1.
</event>
<event>
 8    1  0.6906553E-009  0.1027745E+03  0.7561462E-02  0.1274567E+00
          1   -1    0    0  501    0  0.00000000000E+00  0.00000000000E+00  0.33154850357E+03  0.33154850357E+03  0.00000000000E+00 0. -1.
         -1   -1    0    0    0  501 -0.00000000000E+00 -0.00000000000E+00 -0.51260272908E+02  0.51260272908E+02  0.00000000000E+00 0.  1.
         25    2    1    2    0    0 -0.68385451461E+02 -0.21661753218E+02  0.14839523820E+03  0.20691747220E+03  0.12509153472E+03 0.  0.
         23    2    1    2    0    0  0.68385451461E+02  0.21661753218E+02  0.13189299247E+03  0.17589130428E+03  0.91630715019E+02 0.  0.
          5    1    3    3  502    0 -0.79993126792E+02  0.17874072273E+02  0.14336775493E+03  0.16519736180E+03  0.41800000000E+01 0. -1.
         -5    1    3    3    0  502  0.11607675332E+02 -0.39535825490E+02  0.50274832708E+01  0.41720110401E+02  0.41800000000E+01 0. -1.
        -11    1    4    4    0    0  0.25780394026E+02  0.29028234934E+02  0.18708055648E+01  0.38868586969E+02  0.00000000000E+00 0.  1.
         11    1    4    4    0    0  0.42605057434E+02 -0.73664817159E+01  0.13002218690E+03  0.13702271731E+03  0.00000000000E+00 0. -1.
</event>
<event>
 8    1  0.6906553E-009  0.1384709E+03  0.7561462E-02  0.1215401E+00
         -2   -1    0    0    0  501 -0.00000000000E+00  0.00000000000E+00  0.39979793780E+02  0.39979793780E+02  0.00000000000E+00 0. -1.
          2   -1    0    0  501    0  0.00000000000E+00 -0.00000000000E+00 -0.62621606067E+03  0.62621606067E+03  0.00000000000E+00 0.  1.
         25    2    1    2    0    0 -0.54105704682E+01 -0.97177979906E+02 -0.44170835425E+03  0.46928307799E+03  0.12508997971E+03 0.  0.
         23    2    1    2    0    0  0.54105704682E+01  0.97177979906E+02 -0.14452791264E+03  0.19691277646E+03  0.91725078082E+02 0.  0.
          5    1    3    3  502    0 -0.59374907830E+02 -0.17303916099E+02 -0.16895706204E+03  0.17996879287E+03  0.41800000000E+01 0. -1.
         -5    1    3    3    0  502  0.53964337362E+02 -0.79874063807E+02 -0.27275129220E+03  0.28931428512E+03  0.41800000000E+01 0. -1.
        -11    1    4    4    0    0  0.36544625032E+02  0.49553369152E+02 -0.12015859166E+03  0.13501530714E+03  0.00000000000E+00 0.  1.
         11    1    4    4    0    0 -0.31134054564E+02  0.47624610755E+02 -0.24369320988E+02  0.61897469323E+02  0.00000000000E+00 0. -1.
</event>
<event>
 8    1  0.6906553E-009  0.1088599E+03  0.7561462E-02  0.1262696E+00
         -3   -1    0    0    0  501 -0.00000000000E+00  0.00000000000E+00  0.43280362707E+03  0.43280362707E+03  0.00000000000E+00 0.  1.
          3   -1    0    0  501    0  0.00000000000E+00 -0.00000000000E+00 -0.52444701251E+02  0.52444701251E+02  0.00000000000E+00 0. -1.
         25    2    1    2    0    0 -0.39924136810E+02 -0.77697080976E+02  0.11429347133E+03  0.19063386008E+03  0.12508995934E+03 0.  0.
         23    2    1    2    0    0  0.39924136810E+02  0.77697080976E+02  0.26606545448E+03  0.29461446824E+03  0.91520957893E+02 0.  0.
          5    1    3    3  502    0  0.11697549514E+02 -0.76059076065E+02  0.11544440947E+03  0.13880453809E+03  0.41800000000E+01 0. -1.
         -5    1    3    3    0  502 -0.51621686324E+02 -0.16380049113E+01 -0.11509381416E+01  0.51829321987E+02  0.41800000000E+01 0. -1.
        -11    1    4    4    0    0  0.32764214982E+02  0.46854021611E+02  0.25459812042E+03  0.26093868254E+03  0.00000000000E+00 0.  1.
         11    1    4    4    0    0  0.71599218281E+01  0.30843059365E+02  0.11467334057E+02  0.33675785691E+02  0.00000000000E+00 0. -1.
</event>
<event>
 8    1  0.6906553E-009  0.1293657E+03  0.7561462E-02  0.1228400E+00
          2   -1    0    0  501    0  0.00000000000E+00  0.00000000000E+00  0.57639210021E+03  0.57639210021E+03  0.00000000000E+00 0.  1.
         -2   -1    0    0    0  501 -0.00000000000E+00 -0.00000000000E+00 -0.37344204925E+02  0.37344204925E+02  0.00000000000E+00 0. -1.
         25    2    1    2    0    0  0.78319036573E+02 -0.57860630359E+02  0.25661272679E+03  0.30162834235E+03  0.12509133192E+03 0.  0.
         23    2    1    2    0    0 -0.78319036573E+02  0.57860630359E+02  0.28243516849E+03  0.31210796279E+03  0.90332895429E+02 0.  0.
          5    1    3    3  502    0  0.47045758810E+02 -0.84709555696E+02  0.98721233128E+02  0.13839207535E+03  0.41800000000E+01 0.  1.
         -5    1    3    3    0  502  0.31273277763E+02  0.26848925337E+02  0.15789149366E+03  0.16323626700E+03  0.41800000000E+01 0.  1.
        -11    1    4    4    0    0 -0.80075143440E+02  0.20160115394E+02  0.24662423685E+03  0.26008070488E+03  0.00000000000E+00 0.  1.
         11    1    4    4    0    0  0.17561068664E+01  0.37700514965E+02  0.35810931649E+02  0.52027257909E+02  0.00000000000E+00 0. -1.
</event>
<event>
 8    1  0.6906553E-009  0.1041935E+03  0.7561462E-02  0.1271717E+00
          2   -1    0    0  501    0  0.00000000000E+00  0.00000000000E+00  0.37024748647E+03  0.37024748647E+03  0.00000000000E+00 0. -1.
         -2   -1    0    0    0  501 -0.00000000000E+00 -0.00000000000E+00 -0.41925409029E+02  0.41925409029E+02  0.00000000000E+00 0.  1.
         25    2    1    2    0    0  0.29532925782E+02  0.53477459573E+01  0.27935735283E+03  0.30755261729E+03  0.12508912714E+03 0.  0.
         23    2    1    2    0    0 -0.29532925782E+02 -0.53477459573E+01  0.48964724605E+02  0.10462027821E+03  0.87447505762E+02 0.  0.
          5    1    3    3  502    0  0.16672673348E+01  0.59736662639E+02  0.86633405397E+02  0.10532838162E+03  0.41800000000E+01 0.  1.
         -5    1    3    3    0  502  0.27865658447E+02 -0.54388916682E+02  0.19272394743E+03  0.20222423567E+03  0.41800000000E+01 0.  1.
        -11    1    4    4    0    0 -0.67812153000E+01 -0.42838679095E+02  0.41702915646E+02  0.60168683557E+02  0.00000000000E+00 0. -1.
         11    1    4    4    0    0 -0.22751710482E+02  0.37490933138E+02  0.72618089589E+01  0.44451594648E+02  0.00000000000E+00 0.  1.
</event>
<event>
 8    1  0.6906553E-009  0.6587549E+02  0.7561462E-02  0.1374708E+00
         -1   -1    0    0    0  501 -0.00000000000E+00  0.00000000000E+00  0.12441354710E+03  0.12441354710E+03  0.00000000000E+00 0.  1.
          1   -1    0    0  501    0  0.00000000000E+00 -0.00000000000E+00 -0.94982979413E+02  0.94982979413E+02  0.00000000000E+00 0. -1.
         25    2    1    2    0    0  0.16430667695E+02 -0.30405594389E+01  0.13184318421E+02  0.12688917473E+03  0.12509126496E+03 0.  0.
         23    2    1    2    0    0 -0.16430667695E+02  0.30405594389E+01  0.16246249265E+02  0.92507351776E+02  0.89523503478E+02 0.  0.
          5    1    3    3  502    0 -0.31196817763E+01 -0.17172242312E+02 -0.53193927566E+02  0.56139866854E+02  0.41800000000E+01 0. -1.
         -5    1    3    3    0  502  0.19550349471E+02  0.14131682873E+02  0.66378245987E+02  0.70749307881E+02  0.41800000000E+01 0. -1.
        -11    1    4    4    0    0  0.27041142020E+02 -0.25621245727E+02  0.15725377569E+02  0.40434627413E+02  0.00000000000E+00 0. -1.
         11    1    4    4    0    0 -0.43471809715E+02  0.28661805166E+02  0.52087169555E+00  0.52072724363E+02  0.00000000000E+00 0.  1.
</event>
<event>
 8    1  0.6906553E-009  0.1088346E+03  0.7561462E-02  0.1262743E+00
          1   -1    0    0  501    0  0.00000000000E+00  0.00000000000E+00  0.32589295726E+03  0.32589295726E+03  0.00000000000E+00 0. -1.
         -1   -1    0    0    0  501 -0.00000000000E+00 -0.00000000000E+00 -0.48508484083E+02  0.48508484083E+02  0.00000000000E+00 0.  1.
         25    2    1    2    0    0 -0.49264654235E+02 -0.33883071246E+01  0.21540212365E+03  0.25393625856E+03  0.12508821590E+03 0.  0.
         23    2    1    2    0    0  0.49264654235E+02  0.33883071246E+01  0.61982349528E+02  0.12046518278E+03  0.90727955053E+02 0.  0.
          5    1    3    3  502    0  0.33534945668E+02  0.57678309304E+01  0.13045858015E+03  0.13488800536E+03  0.41800000000E+01 0. -1.
         -5    1    3    3    0  502 -0.82799599903E+02 -0.91561380550E+01  0.84943543501E+02  0.11904825320E+03  0.41800000000E+01 0. -1.
        -11    1    4    4    0    0  0.71514504802E+02 -0.12550153769E+02  0.30511316656E+02  0.78757673916E+02  0.00000000000E+00 0.  1.
         11    1    4    4    0    0 -0.22249850567E+02  0.15938460894E+02  0.31471032873E+02  0.41707508868E+02  0.00000000000E+00 0. -1.
</event>
<event>
 8    1  0.6906553E-009  0.7945428E+02  0.7561462E-02  0.1330607E+00
         -2   -1    0    0    0  501 -0.00000000000E+00  0.00000000000E+00  0.33419984727E+03  0.33419984727E+03  0.00000000000E+00 0.  1.
          2   -1    0    0  501    0  0.00000000000E+00 -0.00000000000E+00 -0.64893939315E+02  0.64893939315E+02  0.00000000000E+00 0. -1.
         25    2    1    2    0    0 -0.44460352982E+02  0.25129259808E+02  0.30711591072E+02  0.13856074479E+03  0.12509066905E+03 0.  0.
         23    2    1    2    0    0  0.44460352982E+02 -0.25129259808E+02  0.23859431689E+03  0.26053304180E+03  0.91334632714E+02 0.  0.
          5    1    3    3  502    0 -0.11949378490E+02 -0.71746204047E+01  0.73977481695E+02  0.75394980086E+02  0.41800000000E+01 0. -1.
         -5    1    3    3    0  502 -0.32510974492E+02  0.32303880213E+02 -0.43265890622E+02  0.63165764703E+02  0.41800000000E+01 0. -1.
        -11    1    4    4    0    0 -0.19856572076E+02 -0.27565809128E+02  0.44117222465E+02  0.55682013303E+02  0.00000000000E+00 0. -1.
         11    1    4    4    0    0  0.64316925058E+02  0.24365493199E+01  0.19447709442E+03  0.20485102850E+03  0.00000000000E+00 0.  1.
</event>
<event>
 8    1  0.6906553E-009  0.1427467E+03  0.7561462E-02  0.1209680E+00
         -2   -1    0    0    0  501 -0.00000000000E+00  0.00000000000E+00  0.18191703025E+03  0.18191703025E+03  0.00000000000E+00 0. -1.
          2   -1    0    0  501    0  0.00000000000E+00 -0.00000000000E+00 -0.11489315092E+03  0.11489315092E+03  0.00000000000E+00 0.  1.
         25    2    1    2    0    0  0.93898316868E+02  0.40677474495E+01  0.21501872305E+02  0.15793345631E+03  0.12508879098E+03 0.  0.
         23    2    1    2    0    0 -0.93898316868E+02 -0.40677474495E+01  0.45522007025E+02  0.13887672486E+03  0.91548080829E+02 0.  0.
          5    1    3    3  502    0  0.93654900393E+02  0.52013349658E+02  0.23531404342E+02  0.10976259973E+03  0.41800000000E+01 0.  1.
         -5    1    3    3    0  502  0.24341647471E+00 -0.47945602209E+02 -0.20295320370E+01  0.48170856574E+02  0.41800000000E+01 0.  1.
        -11    1    4    4    0    0 -0.34288219009E+02 -0.45927590049E+02  0.28791964315E+02  0.64140491889E+02  0.00000000000E+00 0. -1.
         11    1    4    4    0    0 -0.59610097858E+02  0.41859842600E+02  0.16730042710E+02  0.74736232968E+02  0.00000000000E+00 0.  1.
</event>
<event>
 8    1  0.6906553E-009  0.3115511E+03  0.7561462E-02  0.1079605E+00
         -1   -1    0    0    0  501 -0.00000000000E+00  0.00000000000E+00  0.31683370396E+03  0.31683370396E+03  0.00000000000E+00 0.  1.
          1   -1    0    0  501    0  0.00000000000E+00 -0.00000000000E+00 -0.32288028702E+03  0.32288028702E+03  0.00000000000E+00 0. -1.
         25    2    1    2    0    0 -0.22753358051E+03  0.19495250566E+03  0.27292340668E+02  0.32583830733E+03  0.12509085074E+03 0.  0.
         23    2    1    2    0    0  0.22753358051E+03 -0.19495250566E+03 -0.33338923727E+02  0.31387568366E+03  0.87341005437E+02 0.  0.
          5    1    3    3  502    0 -0.80188041433E+02  0.14790258941E+03 -0.22648275849E+01  0.16830894149E+03  0.41800000000E+01 0.  1.
         -5    1    3    3    0  502 -0.14734553908E+03  0.47049916255E+02  0.29557168252E+02  0.15752936584E+03  0.41800000000E+01 0.  1.
        -11    1    4    4    0    0  0.92361588641E+02 -0.89807951945E+02 -0.57230752536E+02  0.14096627371E+03  0.00000000000E+00 0. -1.
         11    1    4    4    0    0  0.13517199187E+03 -0.10514455372E+03  0.23891828809E+02  0.17290940994E+03  0.00000000000E+00 0.  1.
</event>
<event>
 8    1  0.6906553E-009  0.1422694E+03  0.7561462E-02  0.1210308E+00
         -4   -1    0    0    0  501 -0.00000000000E+00  0.00000000000E+00  0.46261604980E+02  0.46261604980E+02  0.00000000000E+00 0.  1.
          4   -1    0    0  501    0  0.00000000000E+00 -0.00000000000E+00 -0.60607063639E+03  0.60607063639E+03  0.00000000000E+00 0. -1.
         25    2    1    2    0    0 -0.41308510440E+02 -0.11436231896E+03 -0.36876372180E+03  0.40794455343E+03  0.12508774168E+03 0.  0.
         23    2    1    2    0    0  0.41308510440E+02  0.11436231896E+03 -0.19104530961E+03  0.24438768795E+03  0.91879805529E+02 0.  0.
          5    1    3    3  502    0  0.28396365985E+02 -0.23330603734E+02 -0.20304364476E+03  0.20638523384E+03  0.41800000000E+01 0. -1.
         -5    1    3    3    0  502 -0.69704876424E+02 -0.91031715226E+02 -0.16572007705E+03  0.20155931958E+03  0.41800000000E+01 0. -1.
        -11    1    4    4    0    0  0.51603590715E+02  0.68195253099E+02 -0.17440728727E+03  0.19424578496E+03  0.00000000000E+00 0. -1.
         11    1    4    4    0    0 -0.10295080275E+02  0.46167065862E+02 -0.16638022335E+02  0.50141902989E+02  0.00000000000E+00 0.  1.
</event>
<event>
 8    1  0.6906553E-009  0.1592972E+03  0.7561462E-02  0.1189492E+00
          2   -1    0    0  501    0  0.00000000000E+00  0.00000000000E+00  0.12780441797E+04  0.12780441797E+04  0.00000000000E+00 0. -1.
         -2   -1    0    0    0  501 -0.00000000000E+00 -0.00000000000E+00 -0.27959948258E+02  0.27959948258E+02  0.00000000000E+00 0.  1.
         25    2    1    2    0    0  0.10056710536E+03  0.99873959390E+02  0.44970510158E+03  0.48782163319E+03  0.12508683777E+03 0.  0.
         23    2    1    2    0    0 -0.10056710536E+03 -0.99873959390E+02  0.80037912988E+03  0.81818249477E+03  0.93419980559E+02 0.  0.
          5    1    3    3  502    0 -0.42013236488E+01  0.12455554489E+01 -0.68310167035E+01  0.91289494457E+01  0.41800000000E+01 0.  1.
         -5    1    3    3    0  502  0.10476842901E+03  0.98628403941E+02  0.45653611828E+03  0.47869268375E+03  0.41800000000E+01 0.  1.
        -11    1    4    4    0    0 -0.10440047992E+03 -0.45173914797E+02  0.49330278275E+03  0.50624873160E+03  0.00000000000E+00 0.  1.
         11    1    4    4    0    0  0.38333745537E+01 -0.54700044593E+02  0.30707634713E+03  0.31193376317E+03  0.00000000000E+00 0. -1.
</event>
<event>
 8    1  0.6906553E-009  0.8306488E+02  0.7561462E-02  0.1320572E+00
          1   -1    0    0  501    0  0.00000000000E+00  0.00000000000E+00  0.28357021047E+03  0.28357021047E+03  0.00000000000E+00 0. -1.
         -1   -1    0    0    0  501 -0.00000000000E+00 -0.00000000000E+00 -0.57412965778E+02  0.57412965778E+02  0.00000000000E+00 0.  1.
         25    2    1    2    0    0 -0.41997074276E+02 -0.53404157748E+02  0.12592673359E+03  0.19005558859E+03  0.12509127153E+03 0.  0.
         23    2    1    2    0    0  0.41997074276E+02  0.53404157748E+02  0.10023051110E+03  0.15092758765E+03  0.90095632776E+02 0.  0.
          5    1    3    3  502    0  0.14755581332E+02 -0.50857664308E+01  0.11317406228E+03  0.11432162076E+03  0.41800000000E+01 0. -1.
         -5    1    3    3    0  502 -0.56752655609E+02 -0.48318391318E+02  0.12752671305E+02  0.75733967832E+02  0.41800000000E+01 0. -1.
        -11    1    4    4    0    0  0.32545659016E+01  0.29748902733E+02 -0.10131390942E+02  0.31594849192E+02  0.00000000000E+00 0.  1.
         11    1    4    4    0    0  0.38742508375E+02  0.23655255015E+02  0.11036190204E+03  0.11933273846E+03  0.00000000000E+00 0. -1.
</event>
<event>
 8    1  0.6906553E-009  0.1037308E+03  0.7561462E-02  0.1272641E+00
          1   -1    0    0  501    0  0.00000000000E+00  0.00000000000E+00  0.50228562084E+02  0.50228562084E+02  0.00000000000E+00 0. -1.
         -1   -1    0    0    0  501 -0.00000000000E+00 -0.00000000000E+00 -0.35369847093E+03  0.35369847093E+03  0.00000000000E+00 0.  1.
         25    2    1    2    0    0  0.51513762334E+02  0.37345692817E+01 -0.90230862344E+02  0.16265479252E+03  0.12508940120E+03 0.  0.
         23    2    1    2    0    0 -0.51513762334E+02 -0.37345692817E+01 -0.21323904650E+03  0.24127224050E+03  0.10036826373E+03 0.  0.
          5    1    3    3  502    0  0.33942362956E+02 -0.54314260399E+02 -0.14969076892E+02  0.65906513705E+02  0.41800000000E+01 0.  1.
         -5    1    3    3    0  502  0.17571399378E+02  0.58048829680E+02 -0.75261785453E+02  0.96748278811E+02  0.41800000000E+01 0.  1.
        -11    1    4    4    0    0 -0.48121702805E+01 -0.28992623517E+02 -0.17077514757E+03  0.17328554536E+03  0.00000000000E+00 0.  1.
         11    1    4    4    0    0 -0.46701592053E+02  0.25258054235E+02 -0.42463898931E+02  0.67986695143E+02  0.00000000000E+00 0. -1.
</event>
<event>
 8    1  0.6906553E-009  0.8866251E+02  0.7561462E-02  0.1306123E+00
         -1   -1    0    0    0  501 -0.00000000000E+00  0.00000000000E+00  0.35670431647E+03  0.35670431647E+03  0.00000000000E+00 0.  1.
          1   -1    0    0  501    0  0.00000000000E+00 -0.00000000000E+00 -0.45800672558E+02  0.45800672558E+02  0.00000000000E+00 0. -1.
         25    2    1    2    0    0  0.53174494369E+02  0.40750983904E+02  0.16110365946E+03  0.21468739558E+03  0.12509244257E+03 0.  0.
         23    2    1    2    0    0 -0.53174494369E+02 -0.40750983904E+02  0.14979998446E+03  0.18781759345E+03  0.91363250416E+02 0.  0.
          5    1    3    3  502    0  0.18136715274E+02  0.11231653888E+02 -0.18956522137E+02  0.28842895512E+02  0.41800000000E+01 0. -1.
         -5    1    3    3    0  502  0.35037779095E+02  0.29519330016E+02  0.18006018159E+03  0.18584450006E+03  0.41800000000E+01 0. -1.
        -11    1    4    4    0    0 -0.28733700405E+00  0.25111149916E+02  0.16636067000E+02  0.30123265724E+02  0.00000000000E+00 0. -1.
         11    1    4    4    0    0 -0.52887157365E+02 -0.65862133820E+02  0.13316391746E+03  0.15769432773E+03  0.00000000000E+00 0.  1.
</event>
<event>
 8    1  0.6906553E-009  0.3060776E+03  0.7561462E-02  0.1082241E+00
         -1   -1    0    0    0  501 -0.00000000000E+00  0.00000000000E+00  0.42042437468E+03  0.42042437468E+03  0.00000000000E+00 0.  1.
          1   -1    0    0  501    0  0.00000000000E+00 -0.00000000000E+00 -0.23059970559E+03  0.23059970559E+03  0.00000000000E+00 0. -1.
         25    2    1    2    0    0  0.12707497851E+02  0.29006239161E+03  0.12221747327E+03  0.33894753211E+03  0.12510254682E+03 0.  0.
         23    2    1    2    0    0 -0.12707497851E+02 -0.29006239161E+03  0.67607195824E+02  0.31207654816E+03  0.92322085436E+02 0.  0.
          5    1    3    3  502    0 -0.46683974672E+02  0.11078950309E+03  0.82634340476E+02  0.14594387316E+03  0.41800000000E+01 0.  1.
         -5    1    3    3    0  502  0.59391472523E+02  0.17927288852E+03  0.39583132795E+02  0.19300365895E+03  0.41800000000E+01 0.  1.
        -11    1    4    4    0    0  0.34397479738E+02 -0.17971332811E+03  0.24613707220E+02  0.18462367534E+03  0.00000000000E+00 0.  1.
         11    1    4    4    0    0 -0.47104977590E+02 -0.11034906349E+03  0.42993488604E+02  0.12745287282E+03  0.00000000000E+00 0. -1.
</event>
<event>
 8    1  0.6906553E-009  0.1187898E+03  0.7561462E-02  0.1245107E+00
         -2   -1    0    0    0  501 -0.00000000000E+00  0.00000000000E+00  0.16340058839E+02  0.16340058839E+02  0.00000000000E+00 0.  1.
          2   -1    0    0  501    0  0.00000000000E+00 -0.00000000000E+00 -0.12889893021E+04  0.12889893021E+04  0.00000000000E+00 0. -1.
         25    2    1    2    0    0  0.19405774575E+02  0.50473042273E+02 -0.10388629286E+04  0.10477634025E+04  0.12509137137E+03 0.  0.
         23    2    1    2    0    0 -0.19405774575E+02 -0.50473042273E+02 -0.23378631473E+03  0.25756595848E+03  0.93595245208E+02 0.  0.
          5    1    3    3  502    0  0.67274895129E+02  0.48051304548E+02 -0.78739398733E+03  0.79173329036E+03  0.41800000000E+01 0. -1.
         -5    1    3    3    0  502 -0.47869120554E+02  0.24217377248E+01 -0.25146894125E+03  0.25603011215E+03  0.41800000000E+01 0. -1.
        -11    1    4    4    0    0  0.23848510562E+02 -0.58066246171E+02 -0.11664318015E+03  0.13246158641E+03  0.00000000000E+00 0.  1.
         11    1    4    4    0    0 -0.43254285138E+02  0.75932038980E+01 -0.11714313459E+03  0.12510437206E+03  0.00000000000E+00 0. -1.
</event>
<event>
 8    1  0.6906553E-009  0.1138508E+03  0.7561462E-02  0.1253600E+00
         -2   -1    0    0    0  501 -0.00000000000E+00  0.00000000000E+00  0.11155706587E+03  0.11155706587E+03  0.00000000000E+00 0.  1.
          2   -1    0    0  501    0  0.00000000000E+00 -0.00000000000E+00 -0.12657204248E+03  0.12657204248E+03  0.00000000000E+00 0. -1.
         25    2    1    2    0    0 -0.45406168047E+02 -0.25853738614E+02 -0.68019530469E+01  0.13573473246E+03  0.12509002811E+03 0.  0.
         23    2    1    2    0    0  0.45406168047E+02  0.25853738614E+02 -0.82130235615E+01  0.10239437589E+03  0.87675644055E+02 0.  0.
          5    1    3    3  502    0 -0.52944453180E+02  0.38312443684E+02  0.15433659481E+02  0.67280225242E+02  0.41800000000E+01 0.  1.
         -5    1    3    3    0  502  0.75382851336E+01 -0.64166182298E+02 -0.22235612528E+02  0.68454507214E+02  0.41800000000E+01 0.  1.
        -11    1    4    4    0    0  0.48987044607E+02 -0.18951303378E+02  0.10743544324E+02  0.53612556213E+02  0.00000000000E+00 0.  1.
         11    1    4    4    0    0 -0.35808765603E+01  0.44805041992E+02 -0.18956567885E+02  0.48781819675E+02  0.00000000000E+00 0. -1.
</event>
<event>
 8    1  0.6906553E-009  0.1448063E+03  0.7561462E-02  0.1207004E+00
          1   -1    0    0  501    0  0.00000000000E+00  0.00000000000E+00  0.70106252313E+03  0.70106252313E+03  0.00000000000E+00 0. -1.
         -1   -1    0    0    0  501 -0.00000000000E+00 -0.00000000000E+00 -0.32171117448E+02  0.32171117448E+02  0.00000000000E+00 0.  1.
         25    2    1    2    0    0 -0.10122890393E+03  0.94280333998E+01  0.31931826402E+03  0.35769891497E+03  0.12509269055E+03 0.  0.
         23    2    1    2    0    0  0.10122890393E+03 -0.94280333998E+01  0.34957314167E+03  0.37553472561E+03  0.92134521018E+02 0.  0.
          5    1    3    3  502    0 -0.87901149038E+02  0.57308602743E+02  0.16559622713E+03  0.19608791597E+03  0.41800000000E+01 0. -1.
         -5    1    3    3    0  502 -0.13327754890E+02 -0.47880569343E+02  0.15372203689E+03  0.16161099900E+03  0.41800000000E+01 0. -1.
        -11    1    4    4    0    0  0.55370031615E+02  0.39228832854E+02  0.21159780218E+03  0.22221244703E+03  0.00000000000E+00 0. -1.
         11    1    4    4    0    0  0.45858872313E+02 -0.48656866254E+02  0.13797533949E+03  0.15332227858E+03  0.00000000000E+00 0.  1.
</event>
<event>
 8    1  0.6906553E-009  0.1093081E+03  0.7561462E-02  0.1261857E+00
          1   -1    0    0  501    0  0.00000000000E+00  0.00000000000E+00  0.10997929649E+04  0.10997929649E+04  0.00000000000E+00 0. -1.
         -1   -1    0    0    0  501 -0.00000000000E+00 -0.00000000000E+00 -0.13440325058E+02  0.13440325058E+02  0.00000000000E+00 0.  1.
         25    2    1    2    0    0 -0.34341621598E+02  0.22112004719E+02  0.79165585033E+03  0.80251805358E+03  0.12509177923E+03 0.  0.
         23    2    1    2    0    0  0.34341621598E+02 -0.22112004719E+02  0.29469678949E+03  0.31071523635E+03  0.89607324714E+02 0.  0.
          5    1    3    3  502    0 -0.38717921173E+02 -0.47626639811E+02  0.35733652738E+03  0.36259376779E+03  0.41800000000E+01 0.  1.
         -5    1    3    3    0  502  0.43762995756E+01  0.69738644530E+02  0.43431932295E+03  0.43992428579E+03  0.41800000000E+01 0.  1.
        -11    1    4    4    0    0 -0.11701907739E+02 -0.36918442167E+02  0.20675443181E+03  0.21035042450E+03  0.00000000000E+00 0. -1.
         11    1    4    4    0    0  0.46043529336E+02  0.14806437449E+02  0.87942357678E+02  0.10036481185E+03  0.00000000000E+00 0.  1.
</event>
<event>
 8    1  0.6906553E-009  0.1920114E+03  0.7561462E-02  0.1156660E+00
         -1   -1    0    0    0  501 -0.00000000000E+00  0.00000000000E+00  0.11300907832E+03  0.11300907832E+03  0.00000000000E+00 0.  1.
          1   -1    0    0  501    0  0.00000000000E+00 -0.00000000000E+00 -0.35671234789E+03  0.35671234789E+03  0.00000000000E+00 0. -1.
         25    2    1    2    0    0 -0.16241559303E+03  0.15482721734E+02 -0.17542280316E+03  0.27026671979E+03  0.12510955370E+03 0.  0.
         23    2    1    2    0    0  0.16241559303E+03 -0.15482721734E+02 -0.68280466407E+02  0.19945470643E+03  0.92203136020E+02 0.  0.
          5    1    3    3  502    0  0.11906873989E+02 -0.16480559140E+02  0.15437528841E+00  0.20757618107E+02  0.41800000000E+01 0.  1.
         -5    1    3    3    0  502 -0.17432246702E+03  0.31963280874E+02 -0.17557717845E+03  0.24950910168E+03  0.41800000000E+01 0.  1.
        -11    1    4    4    0    0  0.95733718129E+02 -0.53052028570E+02 -0.52134488396E+02  0.12123311182E+03  0.00000000000E+00 0. -1.
         11    1    4    4    0    0  0.66681874898E+02  0.37569306836E+02 -0.16145978011E+02  0.78221594602E+02  0.00000000000E+00 0.  1.
</event>
<event>
 8    1  0.6906553E-009  0.1326849E+03  0.7561462E-02  0.1223525E+00
          2   -1    0    0  501    0  0.00000000000E+00  0.00000000000E+00  0.13697296830E+04  0.13697296830E+04  0.00000000000E+00 0. -1.
         -2   -1    0    0    0  501 -0.00000000000E+00 -0.00000000000E+00 -0.14096702959E+02  0.14096702959E+02  0.00000000000E+00 0.  1.
         25    2    1    2    0    0  0.84035997376E+02 -0.11061978442E+02  0.79995052239E+03  0.81409669826E+03  0.12509268412E+03 0.  0.
         23    2    1    2    0    0 -0.84035997376E+02  0.11061978442E+02  0.55568245769E+03  0.56972968774E+03  0.92868224300E+02 0.  0.
          5    1    3    3  502    0  0.58445190936E+02  0.50817708585E+02  0.54388004827E+03  0.54938261635E+03  0.41800000000E+01 0.  1.
         -5    1    3    3    0  502  0.25590806441E+02 -0.61879687027E+02  0.25607047413E+03  0.26471408191E+03  0.41800000000E+01 0.  1.
        -11    1    4    4    0    0 -0.40942320007E+02 -0.37689189727E+02  0.17840928600E+03  0.18688665527E+03  0.00000000000E+00 0.  1.
         11    1    4    4    0    0 -0.43093677370E+02  0.48751168170E+02  0.37727317169E+03  0.38284303246E+03  0.00000000000E+00 0. -1.
</event>
<event>
 8    1  0.6906553E-009  0.1210551E+03  0.7561462E-02  0.1241367E+00
         -2   -1    0    0    0  501 -0.00000000000E+00  0.00000000000E+00  0.33104084289E+02  0.33104084289E+02  0.00000000000E+00 0. -1.
          2   -1    0    0  501    0  0.00000000000E+00 -0.00000000000E+00 -0.11176867880E+04  0.11176867880E+04  0.00000000000E+00 0.  1.
         25    2    1    2    0    0  0.49920872071E+02 -0.44504322685E+02 -0.10070090906E+04  0.10169505320E+04  0.12509335613E+03 0.  0.
         23    2    1    2    0    0 -0.49920872071E+02  0.44504322685E+02 -0.77573613104E+02  0.13384034030E+03  0.86155922809E+02 0.  0.
          5    1    3    3  502    0 -0.30522185552E+02 -0.50265313943E+02 -0.34040509934E+03  0.34547258886E+03  0.41800000000E+01 0. -1.
         -5    1    3    3    0  502  0.80443057623E+02  0.57609912579E+01 -0.66660399129E+03  0.67147794315E+03  0.41800000000E+01 0. -1.
        -11    1    4    4    0    0 -0.52368876859E+02 -0.52063992682E+01 -0.62773834637E+02  0.81915567335E+02  0.00000000000E+00 0.  1.
         11    1    4    4    0    0  0.24480047873E+01  0.49710721953E+02 -0.14799778466E+02  0.51924772962E+02  0.00000000000E+00 0. -1.
</event>
<event>
 8    1  0.6906553E-009  0.1304303E+03  0.7561462E-02  0.1226819E+00
          1   -1    0    0  501    0  0.00000000000E+00  0.00000000000E+00  0.30040564762E+03  0.30040564762E+03  0.00000000000E+00 0. -1.
         -1   -1    0    0    0  501 -0.00000000000E+00 -0.00000000000E+00 -0.72303563775E+02  0.72303563775E+02  0.00000000000E+00 0.  1.
         25    2    1    2    0    0 -0.62003812956E+02 -0.69175934424E+02  0.76748329537E+02  0.17368939931E+03  0.12509164089E+03 0.  0.
         23    2    1    2    0    0  0.62003812956E+02  0.69175934424E+02  0.15135375431E+03  0.19901981208E+03  0.89839545493E+02 0.  0.
          5    1    3    3  502    0 -0.87765532464E+02 -0.86243930262E+02  0.51059223940E+02  0.13328661203E+03  0.41800000000E+01 0.  1.
         -5    1    3    3    0  502  0.25761719509E+02  0.17067995838E+02  0.25689105597E+02  0.40402787284E+02  0.41800000000E+01 0.  1.
        -11    1    4    4    0    0  0.13518567303E+02  0.54128204296E+02  0.21842762384E+02  0.59914275685E+02  0.00000000000E+00 0.  1.
         11    1    4    4    0    0  0.48485245653E+02  0.15047730128E+02  0.12951099192E+03  0.13910553640E+03  0.00000000000E+00 0. -1.
</event>
<event>
 8    1  0.6906553E-009  0.1085403E+03  0.7561462E-02  0.1263297E+00
         -2   -1    0    0    0  501 -0.00000000000E+00  0.00000000000E+00  0.24441717767E+02  0.24441717767E+02  0.00000000000E+00 0. -1.
          2   -1    0    0  501    0  0.00000000000E+00 -0.00000000000E+00 -0.88566247533E+03  0.88566247533E+03  0.00000000000E+00 0.  1.
         25    2    1    2    0    0  0.39968570449E+02 -0.11957465999E+02 -0.75106789863E+03  0.76255550664E+03  0.12508974675E+03 0.  0.
         23    2    1    2    0    0 -0.39968570449E+02  0.11957465999E+02 -0.11015285894E+03  0.14754868646E+03  0.88862224409E+02 0.  0.
          5    1    3    3  502    0 -0.36797994254E+02 -0.24685887007E+02 -0.15020515884E+03  0.15666061260E+03  0.41800000000E+01 0.  1.
         -5    1    3    3    0  502  0.76766564702E+02  0.12728421008E+02 -0.60086273979E+03  0.60589489404E+03  0.41800000000E+01 0.  1.
        -11    1    4    4    0    0 -0.27422577247E+02  0.48661671145E+02 -0.83594802268E+02  0.10053878330E+03  0.00000000000E+00 0.  1.
         11    1    4    4    0    0 -0.12545993202E+02 -0.36704205146E+02 -0.26558056668E+02  0.47009903156E+02  0.00000000000E+00 0. -1.
</event>
<event>
 8    1  0.6906553E-009  0.1020123E+03  0.7561462E-02  0.1276120E+00
          2   -1    0    0  501    0  0.00000000000E+00  0.00000000000E+00  0.64489894365E+03  0.64489894365E+03  0.00000000000E+00 0. -1.
         -2   -1    0    0    0  501 -0.00000000000E+00 -0.00000000000E+00 -0.32933966931E+02  0.32933966931E+02  0.00000000000E+00 0.  1.
         25    2    1    2    0    0 -0.66768475165E+02 -0.27344672507E+02  0.48376270625E+03  0.50485558003E+03  0.12508813032E+03 0.  0.
         23    2    1    2    0    0  0.66768475165E+02  0.27344672507E+02  0.12820227047E+03  0.17297733055E+03  0.90992166357E+02 0.  0.
          5    1    3    3  502    0 -0.36379414408E+02  0.11984422614E+02  0.31270189047E+02  0.49622427400E+02  0.41800000000E+01 0. -1.
         -5    1    3    3    0  502 -0.30389060757E+02 -0.39329095121E+02  0.45249251720E+03  0.45523315263E+03  0.41800000000E+01 0. -1.
        -11    1    4    4    0    0 -0.16867085383E+02 -0.14367728790E+02  0.18529378191E+02  0.28883698794E+02  0.00000000000E+00 0.  1.
         11    1    4    4    0    0  0.83635560548E+02  0.41712401297E+02  0.10967289228E+03  0.14409363175E+03  0.00000000000E+00 0. -1.
</event>
<event>
 8    1  0.6906553E-009  0.7703137E+02  0.7561462E-02  0.1337693E+00
         -2   -1    0    0    0  501 -0.00000000000E+00  0.00000000000E+00  0.24641364550E+02  0.24641364550E+02  0.00000000000E+00 0.  1.
          2   -1    0    0  501    0  0.00000000000E+00 -0.00000000000E+00 -0.56454963609E+03  0.56454963609E+03  0.00000000000E+00 0. -1.
         25    2    1    2    0    0 -0.42319383681E+02  0.62058594613E+01 -0.34993178013E+03  0.37407220542E+03  0.12509325000E+03 0.  0.
         23    2    1    2    0    0  0.42319383681E+02 -0.62058594613E+01 -0.18997649141E+03  0.21511879522E+03  0.91408893669E+02 0.  0.
          5    1    3    3  502    0 -0.31928643751E+02 -0.20673047996E+02 -0.20605643425E+02  0.43461225778E+02  0.41800000000E+01 0.  1.
         -5    1    3    3    0  502 -0.10390739930E+02  0.26878907457E+02 -0.32932613671E+03  0.33061097964E+03  0.41800000000E+01 0.  1.
        -11    1    4    4    0    0  0.64386196608E+02 -0.43452888911E+01 -0.17925017796E+03  0.19051270338E+03  0.00000000000E+00 0.  1.
         11    1    4    4    0    0 -0.22066812927E+02 -0.18605705702E+01 -0.10726313452E+02  0.24606091845E+02  0.00000000000E+00 0. -1.
</event>
<event>
 8    1  0.6906553E-009  0.1021924E+03  0.7561462E-02  0.1275752E+00
         -1   -1    0    0    0  501 -0.00000000000E+00  0.00000000000E+00  0.20516584693E+02  0.20516584693E+02  0.00000000000E+00 0.  1.
          1   -1    0    0  501    0  0.00000000000E+00 -0.00000000000E+00 -0.80638157142E+03  0.80638157142E+03  0.00000000000E+00 0. -1.
         25    2    1    2    0    0  0.45286848744E+01  0.63828105512E+02 -0.57491204628E+03  0.59183171047E+03  0.12508547685E+03 0.  0.
         23    2    1    2    0    0 -0.45286848744E+01 -0.63828105512E+02 -0.21095294045E+03  0.23506644565E+03  0.81612221785E+02 0.  0.
          5    1    3    3  502    0 -0.52097664119E+02  0.64479157310E+02 -0.31148760641E+03  0.32235652573E+03  0.41800000000E+01 0. -1.
         -5    1    3    3    0  502  0.56626348994E+02 -0.65105179779E+00 -0.26342443987E+03  0.26947518473E+03  0.41800000000E+01 0. -1.
        -11    1    4    4    0    0  0.24772254454E+01 -0.26806545368E+02 -0.72110305649E+01  0.27869813101E+02  0.00000000000E+00 0.  1.
         11    1    4    4    0    0 -0.70059103198E+01 -0.37021560144E+02 -0.20374190989E+03  0.20719663255E+03  0.00000000000E+00 0. -1.
</event>
<event>
 8    1  0.6906553E-009  0.1628695E+03  0.7561462E-02  0.1185495E+00
         -1   -1    0    0    0  501 -0.00000000000E+00  0.00000000000E+00  0.35312335151E+03  0.35312335151E+03  0.00000000000E+00 0.  1.
          1   -1    0    0  501    0  0.00000000000E+00 -0.00000000000E+00 -0.11231023096E+03  0.11231023096E+03  0.00000000000E+00 0. -1.
         25    2    1    2    0    0  0.54787470827E+02  0.11934645430E+03  0.24611765069E+03  0.30571822050E+03  0.12507793271E+03 0.  0.
         23    2    1    2    0    0 -0.54787470827E+02 -0.11934645430E+03 -0.53045301376E+01  0.15971536197E+03  0.90750293087E+02 0.  0.
          5    1    3    3  502    0  0.93106600781E+02  0.10334898453E+03  0.17988421237E+03  0.22743274604E+03  0.41800000000E+01 0. -1.
         -5    1    3    3    0  502 -0.38319129954E+02  0.15997469775E+02  0.66233438318E+02  0.78285474458E+02  0.41800000000E+01 0. -1.
        -11    1    4    4    0    0 -0.57288546766E+02 -0.51767588177E+02 -0.36305985627E+02  0.85322830289E+02  0.00000000000E+00 0. -1.
         11    1    4    4    0    0  0.25010759385E+01 -0.67578866124E+02  0.31001455489E+02  0.74392531681E+02  0.00000000000E+00 0.  1.
</event>
<event>
 8    1  0.6906553E-009  0.1138552E+03  0.7561462E-02  0.1253593E+00
         -2   -1    0    0    0  501 -0.00000000000E+00  0.00000000000E+00  0.12613376509E+02  0.12613376509E+02  0.00000000000E+00 0. -1.
          2   -1    0    0  501    0  0.00000000000E+00 -0.00000000000E+00 -0.13643131076E+04  0.13643131076E+04  0.00000000000E+00 0.  1.
         25    2    1    2    0    0  0.63697587029E+02  0.78271614191E+01 -0.95753512369E+03  0.96780157745E+03  0.12509089961E+03 0.  0.
         23    2    1    2    0    0 -0.63697587029E+02 -0.78271614191E+01 -0.39416460744E+03  0.40912490670E+03  0.88875218555E+02 0.  0.
          5    1    3    3  502    0 -0.33905571089E+02 -0.89396409112E+01 -0.39722763348E+03  0.39879414505E+03  0.41800000000E+01 0. -1.
         -5    1    3    3    0  502  0.97603158118E+02  0.16766802330E+02 -0.56030749021E+03  0.56900743240E+03  0.41800000000E+01 0. -1.
        -11    1    4    4    0    0 -0.49544074497E+02 -0.36341059983E+02 -0.34585205774E+03  0.35126760995E+03  0.00000000000E+00 0.  1.
         11    1    4    4    0    0 -0.14153512532E+02  0.28513898564E+02 -0.48312549705E+02  0.57857296751E+02  0.00000000000E+00 0. -1.
</event>
<event>
 8    1  0.6906553E-009  0.1600195E+03  0.7561462E-02  0.1188675E+00
          1   -1    0    0  501    0  0.00000000000E+00  0.00000000000E+00  0.71202705923E+03  0.71202705923E+03  0.00000000000E+00 0. -1.
         -1   -1    0    0    0  501 -0.00000000000E+00 -0.00000000000E+00 -0.39088118085E+02  0.39088118085E+02  0.00000000000E+00 0.  1.
         25    2    1    2    0    0  0.36778151780E+02 -0.11117038691E+03  0.27254610687E+03  0.32193253383E+03  0.12509072146E+03 0.  0.
         23    2    1    2    0    0 -0.36778151780E+02  0.11117038691E+03  0.40039283427E+03  0.42918264348E+03  0.10085550236E+03 0.  0.
          5    1    3    3  502    0  0.56461236041E+01  0.27572858285E+02  0.35736146844E+02  0.45680256315E+02  0.41800000000E+01 0.  1.
         -5    1    3    3    0  502  0.31132028176E+02 -0.13874324519E+03  0.23680996003E+03  0.27625227752E+03  0.41800000000E+01 0.  1.
        -11    1    4    4    0    0 -0.68200008400E+02  0.78879754068E+02  0.32536337127E+03  0.34166442617E+03  0.00000000000E+00 0. -1.
         11    1    4    4    0    0  0.31421856620E+02  0.32290632839E+02  0.75029463004E+02  0.87518217311E+02  0.00000000000E+00 0.  1.
</event>
<event>
 8    1  0.6906553E-009  0.1219286E+03  0.7561462E-02  0.1239949E+00
          3   -1    0    0  501    0  0.00000000000E+00  0.00000000000E+00  0.94779245070E+03  0.94779245070E+03  0.00000000000E+00 0. -1.
         -3   -1    0    0    0  501 -0.00000000000E+00 -0.00000000000E+00 -0.24157947405E+02  0.24157947405E+02  0.00000000000E+00 0.  1.
         25    2    1    2    0    0 -0.65008344346E+02 -0.79924812252E+02  0.56716125080E+03  0.58985922718E+03  0.12509181839E+03 0.  0.
         23    2    1    2    0    0  0.65008344346E+02  0.79924812252E+02  0.35647325249E+03  0.38209117093E+03  0.91139578170E+02 0.  0.
          5    1    3    3  502    0 -0.68337820444E+02 -0.55445637164E+02  0.55510689442E+03  0.56205463525E+03  0.41800000000E+01 0. -1.
         -5    1    3    3    0  502  0.33294760979E+01 -0.24479175088E+02  0.12054356383E+02  0.27804591921E+02  0.41800000000E+01 0. -1.
        -11    1    4    4    0    0  0.13333810904E+02  0.77850923131E+02  0.15345043387E+03  0.17258502948E+03  0.00000000000E+00 0.  1.
         11    1    4    4    0    0  0.51674533441E+02  0.20738891217E+01  0.20302281862E+03  0.20950614145E+03  0.00000000000E+00 0. -1.
</event>
<event>
 8    1  0.6906553E-009  0.2925602E+03  0.7561462E-02  0.1089020E+00
         -2   -1    0    0    0  501 -0.00000000000E+00  0.00000000000E+00  0.28691960002E+03  0.28691960002E+03  0.00000000000E+00 0. -1.
          2   -1    0    0  501    0  0.00000000000E+00 -0.00000000000E+00 -0.33163730430E+03  0.33163730430E+03  0.00000000000E+00 0.  1.
         25    2    1    2    0    0 -0.28274309707E+03 -0.51481583589E+02 -0.32564818782E+02  0.31512650069E+03  0.12510088579E+03 0.  0.
         23    2    1    2    0    0  0.28274309707E+03  0.51481583589E+02 -0.12152885497E+02  0.30343040362E+03  0.96583149802E+02 0.  0.
          5    1    3    3  502    0 -0.25540832808E+03 -0.61390955174E+02 -0.65739329947E+02  0.27081616519E+03  0.41800000000E+01 0. -1.
         -5    1    3    3    0  502 -0.27334768997E+02  0.99093715849E+01  0.33174511164E+02  0.44310335502E+02  0.41800000000E+01 0. -1.
        -11    1    4    4    0    0  0.12008046419E+03 -0.67201340250E+01  0.33292897905E+02  0.12479140649E+03  0.00000000000E+00 0. -1.
         11    1    4    4    0    0  0.16266263288E+03  0.58201717614E+02 -0.45445783402E+02  0.17863899713E+03  0.00000000000E+00 0.  1.
</event>
<event>
 8    1  0.6906553E-009  0.7456848E+02  0.7561462E-02  0.1345213E+00
         -2   -1    0    0    0  501 -0.00000000000E+00  0.00000000000E+00  0.20858653215E+03  0.20858653215E+03  0.00000000000E+00 0.  1.
          2   -1    0    0  501    0  0.00000000000E+00 -0.00000000000E+00 -0.57894264321E+02  0.57894264321E+02  0.00000000000E+00 0. -1.
         25    2    1    2    0    0  0.28911998107E+01  0.22834984036E+02  0.10552921222E+03  0.16526910563E+03  0.12509063559E+03 0.  0.
         23    2    1    2    0    0 -0.28911998107E+01 -0.22834984036E+02  0.45163055606E+02  0.10121169084E+03  0.87603134865E+02 0.  0.
          5    1    3    3  502    0 -0.17027549973E+01  0.40027455982E+02  0.12921593007E+03  0.13534890318E+03  0.41800000000E+01 0.  1.
         -5    1    3    3    0  502  0.45939548081E+01 -0.17192471946E+02 -0.23686717851E+02  0.29920202455E+02  0.41800000000E+01 0.  1.
        -11    1    4    4    0    0  0.19766932376E+02 -0.50842962431E+02  0.27009673136E+02  0.60870854169E+02  0.00000000000E+00 0.  1.
         11    1    4    4    0    0 -0.22658132186E+02  0.28007978396E+02  0.18153382470E+02  0.40340836668E+02  0.00000000000E+00 0. -1.
</event>
<event>
 8    1  0.6906553E-009  0.6894446E+02  0.7561462E-02  0.1363720E+00
         -2   -1    0    0    0  501 -0.00000000000E+00  0.00000000000E+00  0.12831335696E+03  0.12831335696E+03  0.00000000000E+00 0.  1.
          2   -1    0    0  501    0  0.00000000000E+00 -0.00000000000E+00 -0.14275327253E+03  0.14275327253E+03  0.00000000000E+00 0. -1.
         25    2    1    2    0    0 -0.50082878720E+02  0.25558309239E+02  0.45412735505E+02  0.14445902819E+03  0.12507826497E+03 0.  0.
         23    2    1    2    0    0  0.50082878720E+02 -0.25558309239E+02 -0.59852651074E+02  0.12660760130E+03  0.96361937267E+02 0.  0.
          5    1    3    3  502    0 -0.77503990820E+01  0.18479971010E+02  0.84081548356E+02  0.86537605631E+02  0.41800000000E+01 0.  1.
         -5    1    3    3    0  502 -0.42332479638E+02  0.70783382285E+01 -0.38668812851E+02  0.57921422563E+02  0.41800000000E+01 0.  1.
        -11    1    4    4    0    0  0.59690096660E+02 -0.18918099658E+02 -0.81041447393E+02  0.10241346752E+03  0.00000000000E+00 0. -1.
         11    1    4    4    0    0 -0.96072179395E+01 -0.66402095813E+01  0.21188796319E+02  0.24194133778E+02  0.00000000000E+00 0.  1.
</event>
<event>
 8    1  0.6906553E-009  0.2424907E+03  0.7561462E-02  0.1118145E+00
         -1   -1    0    0    0  501 -0.00000000000E+00  0.00000000000E+00  0.41405414189E+03  0.41405414189E+03  0.00000000000E+00 0.  1.
          1   -1    0    0  501    0  0.00000000000E+00 -0.00000000000E+00 -0.16507985045E+03  0.16507985045E+03  0.00000000000E+00 0. -1.
         25    2    1    2    0    0  0.13399136396E+03  0.17906566029E+03  0.38334039315E+02  0.25910458937E+03  0.12508994104E+03 0.  0.
         23    2    1    2    0    0 -0.13399136396E+03 -0.17906566029E+03  0.21064025213E+03  0.32002940297E+03  0.89617557633E+02 0.  0.
          5    1    3    3  502    0  0.41156189894E+02  0.14453549115E+03 -0.61051476310E+01  0.15046290372E+03  0.41800000000E+01 0. -1.
         -5    1    3    3    0  502  0.92835174067E+02  0.34530169149E+02  0.44439186946E+02  0.10864168565E+03  0.41800000000E+01 0. -1.
        -11    1    4    4    0    0 -0.12203791255E+03 -0.18541286256E+03  0.17743904814E+03  0.28417564552E+03  0.00000000000E+00 0. -1.
         11    1    4    4    0    0 -0.11953451405E+02  0.63472022605E+01  0.33201203989E+02  0.35853757451E+02  0.00000000000E+00 0.  1.
</event>
<event>
 8    1  0.6906553E-009  0.8998356E+02  0.7561462E-02  0.1302892E+00
          2   -1    0    0  501    0  0.00000000000E+00  0.00000000000E+00  0.19213943727E+03  0.19213943727E+03  0.00000000000E+00 0.  1.
         -2   -1    0    0    0  501 -0.00000000000E+00 -0.00000000000E+00 -0.89813237045E+02  0.89813237045E+02  0.00000000000E+00 0. -1.
         25    2    1    2    0    0 -0.31959452159E+02 -0.59637722540E+02  0.88102808592E+02  0.16729452272E+03  0.12508911991E+03 0.  0.
         23    2    1    2    0    0  0.31959452159E+02  0.59637722540E+02  0.14223391634E+02  0.11465815159E+03  0.91466509309E+02 0.  0.
          5    1    3    3  502    0 -0.96251650326E+01 -0.17903792957E+02 -0.31996026279E+02  0.38136697573E+02  0.41800000000E+01 0.  1.
         -5    1    3    3    0  502 -0.22334287127E+02 -0.41733929583E+02  0.12009883487E+03  0.12915782515E+03  0.41800000000E+01 0.  1.
        -11    1    4    4    0    0  0.61491714343E+02  0.53555700573E+02  0.53852317763E+00  0.81545901209E+02  0.00000000000E+00 0. -1.
         11    1    4    4    0    0 -0.29532262184E+02  0.60820219671E+01  0.13684868457E+02  0.33112250385E+02  0.00000000000E+00 0.  1.
</event>
<event>
 8    1  0.6906553E-009  0.1035764E+03  0.7561462E-02  0.1272950E+00
          3   -1    0    0  501    0  0.00000000000E+00  0.00000000000E+00  0.13031590923E+03  0.13031590923E+03  0.00000000000E+00 0. -1.
         -3   -1    0    0    0  501 -0.00000000000E+00 -0.00000000000E+00 -0.21522593409E+03  0.21522593409E+03  0.00000000000E+00 0.  1.
         25    2    1    2    0    0  0.66437833277E+02 -0.74566950031E+01  0.66647890645E+02  0.15672314423E+03  0.12510241652E+03 0.  0.
         23    2    1    2    0    0 -0.66437833277E+02  0.74566950031E+01 -0.15155791551E+03  0.18881869909E+03  0.90626217957E+02 0.  0.
          5    1    3    3  502    0  0.65657561070E+02 -0.45177813546E+02  0.83219509297E+02  0.11530355281E+03  0.41800000000E+01 0. -1.
         -5    1    3    3    0  502  0.78027220771E+00  0.37721118543E+02 -0.16571618651E+02  0.41419591422E+02  0.41800000000E+01 0. -1.
        -11    1    4    4    0    0  0.59584492827E+01  0.15439254488E+02  0.40245710265E+01  0.17031467023E+02  0.00000000000E+00 0. -1.
         11    1    4    4    0    0 -0.72396282560E+02 -0.79825594848E+01 -0.15558248653E+03  0.17178723207E+03  0.00000000000E+00 0.  1.
</event>
<event>
 8    1  0.6906553E-009  0.1847736E+03  0.7561462E-02  0.1163261E+00
          2   -1    0    0  501    0  0.00000000000E+00  0.00000000000E+00  0.36465525260E+03  0.36465525260E+03  0.00000000000E+00 0. -1.
         -2   -1    0    0    0  501 -0.00000000000E+00 -0.00000000000E+00 -0.10440867313E+03  0.10440867313E+03  0.00000000000E+00 0.  1.
         25    2    1    2    0    0  0.67753097291E+02 -0.13481276545E+03  0.69451582606E+02  0.20793244792E+03  0.12508963446E+03 0.  0.
         23    2    1    2    0    0 -0.67753097291E+02  0.13481276545E+03  0.19079499685E+03  0.26113147781E+03  0.94983966851E+02 0.  0.
          5    1    3    3  502    0 -0.19632974227E+02 -0.92391266822E+02  0.55706058787E+02  0.10973712794E+03  0.41800000000E+01 0.  1.
         -5    1    3    3    0  502  0.87386071519E+02 -0.42421498628E+02  0.13745523819E+02  0.98195319982E+02  0.41800000000E+01 0.  1.
        -11    1    4    4    0    0 -0.88546653516E+02  0.80708734765E+02  0.11907773408E+03  0.16891985221E+03  0.00000000000E+00 0.  1.
         11    1    4    4    0    0  0.20793556224E+02  0.54104030686E+02  0.71717262771E+02  0.92211625603E+02  0.00000000000E+00 0. -1.
</event>
<event>
 8    1  0.6906553E-009  0.1271167E+03  0.7561462E-02  0.1231798E+00
          2   -1    0    0  501    0  0.00000000000E+00  0.00000000000E+00  0.87127223313E+03  0.87127223313E+03  0.00000000000E+00 0. -1.
         -2   -1    0    0    0  501 -0.00000000000E+00 -0.00000000000E+00 -0.21185284546E+02  0.21185284546E+02  0.00000000000E+00 0.  1.
         25    2    1    2    0    0  0.35947897479E+02 -0.70082499707E+02  0.46931434657E+03  0.49204182426E+03  0.12508154471E+03 0.  0.
         23    2    1    2    0    0 -0.35947897479E+02  0.70082499707E+02  0.38077260201E+03  0.40041569342E+03  0.95609335275E+02 0.  0.
          5    1    3    3  502    0 -0.27573458359E+02  0.86829752783E+01  0.23459167829E+03  0.23640308286E+03  0.41800000000E+01 0.  1.
         -5    1    3    3    0  502  0.63521355838E+02 -0.78765474985E+02  0.23472266828E+03  0.25563874140E+03  0.41800000000E+01 0.  1.
        -11    1    4    4    0    0  0.57530719052E+01  0.80550504005E+02  0.25690339938E+03  0.26929693304E+03  0.00000000000E+00 0.  1.
         11    1    4    4    0    0 -0.41700969384E+02 -0.10468004298E+02  0.12386920264E+03  0.13111876038E+03  0.00000000000E+00 0. -1.
</event>
<event>
 8    1  0.6906553E-009  0.9531035E+02  0.7561462E-02  0.1290479E+00
          1   -1    0    0  501    0  0.00000000000E+00  0.00000000000E+00  0.82574870886E+03  0.82574870886E+03  0.00000000000E+00 0.  1.
         -1   -1    0    0    0  501 -0.00000000000E+00 -0.00000000000E+00 -0.19602698580E+02  0.19602698580E+02  0.00000000000E+00 0. -1.
         25    2    1    2    0    0  0.27720737737E+02 -0.49431286330E+02  0.56307860604E+03  0.57958367254E+03  0.12509126879E+03 0.  0.
         23    2    1    2    0    0 -0.27720737737E+02  0.49431286330E+02  0.24306740424E+03  0.26576773490E+03  0.91317219300E+02 0.  0.
          5    1    3    3  502    0 -0.34150125304E+02 -0.22290101584E+02  0.64461053469E+02  0.76392273832E+02  0.41800000000E+01 0. -1.
         -5    1    3    3    0  502  0.61870863041E+02 -0.27141184746E+02  0.49861755257E+03  0.50319139870E+03  0.41800000000E+01 0. -1.
        -11    1    4    4    0    0 -0.37816857046E+01  0.56770252934E+02  0.23112821555E+03  0.23802818066E+03  0.00000000000E+00 0.  1.
         11    1    4    4    0    0 -0.23939052033E+02 -0.73389666040E+01  0.11939188698E+02  0.27739554247E+02  0.00000000000E+00 0. -1.
</event>
<event>
 8    1  0.6906553E-009  0.1226312E+03  0.7561462E-02  0.1238818E+00
          2   -1    0    0  501    0  0.00000000000E+00  0.00000000000E+00  0.50118701211E+03  0.50118701211E+03  0.00000000000E+00 0. -1.
         -2   -1    0    0    0  501 -0.00000000000E+00 -0.00000000000E+00 -0.36471825987E+02  0.36471825987E+02  0.00000000000E+00 0.  1.
         25    2    1    2    0    0 -0.78351515695E+02 -0.18701865991E+02  0.27903934773E+03  0.31622191999E+03  0.12507847656E+03 0.  0.
         23    2    1    2    0    0  0.78351515695E+02  0.18701865991E+02  0.18567583840E+03  0.22143691811E+03  0.89833579096E+02 0.  0.
          5    1    3    3  502    0 -0.84559126284E+02 -0.53612153636E+02  0.25272968137E+03  0.27187179534E+03  0.41800000000E+01 0. -1.
         -5    1    3    3    0  502  0.62076105887E+01  0.34910287645E+02  0.26309666356E+02  0.44350124650E+02  0.41800000000E+01 0. -1.
        -11    1    4    4    0    0 -0.19220350071E+01 -0.20098595316E+02  0.83149875224E+02  0.85566053444E+02  0.00000000000E+00 0. -1.
         11    1    4    4    0    0  0.80273550703E+02  0.38800461306E+02  0.10252596318E+03  0.13587086467E+03  0.00000000000E+00 0.  1.
</event>
<event>
 8    1  0.6906553E-009  0.1109901E+03  0.7561462E-02  0.1258747E+00
          1   -1    0    0  501    0  0.00000000000E+00  0.00000000000E+00  0.22560064909E+02  0.22560064909E+02  0.00000000000E+00 0. -1.
         -1   -1    0    0    0  501 -0.00000000000E+00 -0.00000000000E+00 -0.90052098567E+03  0.90052098567E+03  0.00000000000E+00 0.  1.
         25    2    1    2    0    0  0.88079290518E+00  0.68090114849E+02 -0.65104214447E+03  0.66643896570E+03  0.12509189258E+03 0.  0.
         23    2    1    2    0    0 -0.88079290518E+00 -0.68090114849E+02 -0.22691877629E+03  0.25664208488E+03  0.98671116148E+02 0.  0.
          5    1    3    3  502    0  0.24701232600E+01 -0.16688342421E+02 -0.10522095509E+02  0.20317213775E+02  0.41800000000E+01 0.  1.
         -5    1    3    3    0  502 -0.15893303548E+01  0.84778457271E+02 -0.64052004896E+03  0.64612175192E+03  0.41800000000E+01 0.  1.
        -11    1    4    4    0    0  0.43876087640E+02 -0.77165051594E+01 -0.91409681614E+02  0.10168768564E+03  0.00000000000E+00 0.  1.
         11    1    4    4    0    0 -0.44756880545E+02 -0.60373609690E+02 -0.13550909468E+03  0.15495439924E+03  0.00000000000E+00 0. -1.
</event>
<event>
 8    1  0.6906553E-009  0.1241128E+03  0.7561462E-02  0.1236462E+00
          1   -1    0    0  501    0  0.00000000000E+00  0.00000000000E+00  0.61162916090E+03  0.61162916090E+03  0.00000000000E+00 0. -1.
         -1   -1    0    0    0  501 -0.00000000000E+00 -0.00000000000E+00 -0.35786241759E+02  0.35786241759E+02  0.00000000000E+00 0.  1.
         25    2    1    2    0    0  0.93834135127E+02  0.37224137496E+01  0.24741267381E+03  0.29271018626E+03  0.12509005037E+03 0.  0.
         23    2    1    2    0    0 -0.93834135127E+02 -0.37224137496E+01  0.32843024533E+03  0.35470521639E+03  0.95554503874E+02 0.  0.
          5    1    3    3  502    0  0.61776804744E+02 -0.57082306955E+02  0.16551076486E+03  0.18570419773E+03  0.41800000000E+01 0.  1.
         -5    1    3    3    0  502  0.32057330383E+02  0.60804720705E+02  0.81901908948E+02  0.10700598853E+03  0.41800000000E+01 0.  1.
        -11    1    4    4    0    0 -0.33841651363E+02  0.60023212270E+01  0.18817702266E+02  0.39184067497E+02  0.00000000000E+00 0.  1.
         11    1    4    4    0    0 -0.59992483765E+02 -0.97247349766E+01  0.30961254306E+03  0.31552114890E+03  0.00000000000E+00 0. -1.
</event>
<event>
 8    1  0.6906553E-009  0.7575918E+02  0.7561462E-02  0.1341536E+00
          1   -1    0    0  501    0  0.00000000000E+00  0.00000000000E+00  0.20667052549E+02  0.20667052549E+02  0.00000000000E+00 0.  1.
         -1   -1    0    0    0  501 -0.00000000000E+00 -0.00000000000E+00 -0.82072432884E+03  0.82072432884E+03  0.00000000000E+00 0. -1.
         25    2    1    2    0    0  0.39986041031E+02 -0.23900632640E+02 -0.61460870389E+03  0.62893673016E+03  0.12508967954E+03 0.  0.
         23    2    1    2    0    0 -0.39986041031E+02  0.23900632640E+02 -0.18544857240E+03  0.21245465123E+03  0.92604978839E+02 0.  0.
          5    1    3    3  502    0  0.33182314734E+02 -0.22438102124E+02 -0.61858675893E+03  0.61989643099E+03  0.41800000000E+01 0.  1.
         -5    1    3    3    0  502  0.68037262970E+01 -0.14625305158E+01  0.39780550410E+01  0.90402991623E+01  0.41800000000E+01 0.  1.
        -11    1    4    4    0    0 -0.69362412210E+02  0.24997484532E+02 -0.12242405552E+03  0.14291139853E+03  0.00000000000E+00 0.  1.
         11    1    4    4    0    0  0.29376371179E+02 -0.10968518914E+01 -0.63024516879E+02  0.69543252696E+02  0.00000000000E+00 0. -1.
</event>
<event>
 8    1  0.6906553E-009  0.1582042E+03  0.7561462E-02  0.1190739E+00
         -1   -1    0    0    0  501 -0.00000000000E+00  0.00000000000E+00  0.71659050060E+02  0.71659050060E+02  0.00000000000E+00 0.  1.
          1   -1    0    0  501    0  0.00000000000E+00 -0.00000000000E+00 -0.55785526118E+03  0.55785526118E+03  0.00000000000E+00 0. -1.
         25    2    1    2    0    0  0.60553999823E+02  0.13738248225E+03 -0.37298095512E+03  0.42106894153E+03  0.12507408730E+03 0.  0.
         23    2    1    2    0    0 -0.60553999823E+02 -0.13738248225E+03 -0.11321525600E+03  0.20844536971E+03  0.89950234251E+02 0.  0.
          5    1    3    3  502    0  0.53747435040E+02  0.90456744094E+02 -0.35482891241E+03  0.37012462605E+03  0.41800000000E+01 0. -1.
         -5    1    3    3    0  502  0.68065647828E+01  0.46925738151E+02 -0.18152042712E+02  0.50944315480E+02  0.41800000000E+01 0. -1.
        -11    1    4    4    0    0 -0.18293488928E+02  0.14808008427E+01  0.73324721643E+01  0.19763847205E+02  0.00000000000E+00 0.  1.
         11    1    4    4    0    0 -0.42260510895E+02 -0.13886328309E+03 -0.12054772816E+03  0.18868152251E+03  0.00000000000E+00 0. -1.
</event>
<event>
 8    1  0.6906553E-009  0.2030920E+03  0.7561462E-02  0.1147156E+00
          1   -1    0    0  501    0  0.00000000000E+00  0.00000000000E+00  0.13348611391E+04  0.13348611391E+04  0.00000000000E+00 0. -1.
         -1   -1    0    0    0  501 -0.00000000000E+00 -0.00000000000E+00 -0.41142425619E+02  0.41142425619E+02  0.00000000000E+00 0.  1.
         25    2    1    2    0    0  0.14425247345E+03  0.11503900537E+03  0.95570640242E+03  0.98135860279E+03  0.12508889158E+03 0.  0.
         23    2    1    2    0    0 -0.14425247345E+03 -0.11503900537E+03  0.33801231103E+03  0.39464496190E+03  0.86310918722E+02 0.  0.
          5    1    3    3  502    0  0.15686325922E+03  0.87500421229E+02  0.65805640147E+03  0.68214229140E+03  0.41800000000E+01 0.  1.
         -5    1    3    3    0  502 -0.12610785772E+02  0.27538584138E+02  0.29765000095E+03  0.29921631139E+03  0.41800000000E+01 0.  1.
        -11    1    4    4    0    0 -0.11710630213E+03 -0.53633387420E+02  0.16682603908E+03  0.21076373872E+03  0.00000000000E+00 0.  1.
         11    1    4    4    0    0 -0.27146171321E+02 -0.61405617947E+02  0.17118627195E+03  0.18388122318E+03  0.00000000000E+00 0. -1.
</event>
<event>
 8    1  0.6906553E-009  0.8911246E+02  0.7561462E-02  0.1305015E+00
         -4   -1    0    0    0  501 -0.00000000000E+00  0.00000000000E+00  0.14276971997E+03  0.14276971997E+03  0.00000000000E+00 0.  1.
          4   -1    0    0  501    0  0.00000000000E+00 -0.00000000000E+00 -0.88482715099E+02  0.88482715099E+02  0.00000000000E+00 0. -1.
         25    2    1    2    0    0 -0.20094988656E+02 -0.10265735787E+02  0.53905755981E+02  0.13806315485E+03  0.12508561188E+03 0.  0.
         23    2    1    2    0    0  0.20094988656E+02  0.10265735787E+02  0.38124888645E+00  0.93189280216E+02  0.90415168507E+02 0.  0.
          5    1    3    3  502    0 -0.11935071581E+02  0.57051247940E+02  0.32317992919E+02  0.66777360620E+02  0.41800000000E+01 0.  1.
         -5    1    3    3    0  502 -0.81599170753E+01 -0.67316983727E+02  0.21587763062E+02  0.71285794228E+02  0.41800000000E+01 0.  1.
        -11    1    4    4    0    0  0.57360241957E+01 -0.18678986597E+02  0.38526837186E+02  0.43198653885E+02  0.00000000000E+00 0.  1.
         11    1    4    4    0    0  0.14358964461E+02  0.28944722384E+02 -0.38145588300E+02  0.49990626332E+02  0.00000000000E+00 0. -1.
</event>
<event>
 8    1  0.6906553E-009  0.9309731E+02  0.7561462E-02  0.1295520E+00
          1   -1    0    0  501    0  0.00000000000E+00  0.00000000000E+00  0.35429878065E+02  0.35429878065E+02  0.00000000000E+00 0. -1.
         -1   -1    0    0    0  501 -0.00000000000E+00 -0.00000000000E+00 -0.36913995354E+03  0.36913995354E+03  0.00000000000E+00 0.  1.
         25    2    1    2    0    0 -0.21202337829E+02  0.15701259392E+02 -0.23228891050E+03  0.26513968654E+03  0.12507936186E+03 0.  0.
         23    2    1    2    0    0  0.21202337829E+02 -0.15701259392E+02 -0.10142116497E+03  0.13943014506E+03  0.91969799235E+02 0.  0.
          5    1    3    3  502    0 -0.48248385622E+02  0.33528814865E+02 -0.22375974998E+03  0.23138277000E+03  0.41800000000E+01 0.  1.
         -5    1    3    3    0  502  0.27046047793E+02 -0.17827555473E+02 -0.85291605213E+01  0.33756916544E+02  0.41800000000E+01 0.  1.
        -11    1    4    4    0    0 -0.35335084511E+02  0.19849700372E+01 -0.28238246688E+02  0.45275897334E+02  0.00000000000E+00 0.  1.
         11    1    4    4    0    0  0.56537422340E+02 -0.17686229430E+02 -0.73182918286E+02  0.94154247728E+02  0.00000000000E+00 0. -1.
</event>
<event>
 8    1  0.6906553E-009  0.1018846E+03  0.7561462E-02  0.1276382E+00
          2   -1    0    0  501    0  0.00000000000E+00  0.00000000000E+00  0.39132365091E+03  0.39132365091E+03  0.00000000000E+00 0. -1.
         -2   -1    0    0    0  501 -0.00000000000E+00 -0.00000000000E+00 -0.47168772263E+02  0.47168772263E+02  0.00000000000E+00 0.  1.
         25    2    1    2    0    0  0.49820974109E+02  0.39283182737E+02  0.27110952645E+03  0.30524315676E+03  0.12509081305E+03 0.  0.
         23    2    1    2    0    0 -0.49820974109E+02 -0.39283182737E+02  0.73045352191E+02  0.13324926641E+03  0.91621207228E+02 0.  0.
          5    1    3    3  502    0 -0.15874073440E+02  0.16448219047E+01  0.20191914439E+03  0.20259196657E+03  0.41800000000E+01 0. -1.
         -5    1    3    3    0  502  0.65695047549E+02  0.37638360832E+02  0.69190382062E+02  0.10265119019E+03  0.41800000000E+01 0. -1.
        -11    1    4    4    0    0 -0.66293820697E+02 -0.56871487772E+02  0.57067639300E+02  0.10433576683E+03  0.00000000000E+00 0. -1.
         11    1    4    4    0    0  0.16472846588E+02  0.17588305035E+02  0.15977712891E+02  0.28913499580E+02  0.00000000000E+00 0.  1.
</event>
<event>
 8    1  0.6906553E-009  0.1080706E+03  0.7561462E-02  0.1264185E+00
          3   -1    0    0  501    0  0.00000000000E+00  0.00000000000E+00  0.62032786674E+03  0.62032786674E+03  0.00000000000E+00 0. -1.
         -3   -1    0    0    0  501 -0.00000000000E+00 -0.00000000000E+00 -0.30295559043E+02  0.30295559043E+02  0.00000000000E+00 0.  1.
         25    2    1    2    0    0  0.43537465804E+02  0.63135035777E+02  0.40264162416E+03  0.42854307539E+03  0.12508935324E+03 0.  0.
         23    2    1    2    0    0 -0.43537465804E+02 -0.63135035777E+02  0.18739068354E+03  0.22208035039E+03  0.91229765318E+02 0.  0.
          5    1    3    3  502    0  0.64365341415E+02  0.61078141134E+02  0.39650795929E+03  0.40633664699E+03  0.41800000000E+01 0.  1.
         -5    1    3    3    0  502 -0.20827875611E+02  0.20568946434E+01  0.61336648623E+01  0.22206428409E+02  0.41800000000E+01 0.  1.
        -11    1    4    4    0    0  0.10973775814E+02 -0.48220121501E+02  0.38029328469E+02  0.62384562970E+02  0.00000000000E+00 0.  1.
         11    1    4    4    0    0 -0.54511241618E+02 -0.14914914277E+02  0.14936135507E+03  0.15969578742E+03  0.00000000000E+00 0. -1.
</event>
<event>
 8    1  0.6906553E-009  0.2673416E+03  0.7561462E-02  0.1102811E+00
          2   -1    0    0  501    0  0.00000000000E+00  0.00000000000E+00  0.15014802676E+04  0.15014802676E+04  0.00000000000E+00 0. -1.
         -2   -1    0    0    0  501 -0.00000000000E+00 -0.00000000000E+00 -0.53847736857E+02  0.53847736857E+02  0.00000000000E+00 0.  1.
         25    2    1    2    0    0  0.24547575344E+03 -0.51875195575E+02  0.52574890536E+03  0.59582663805E+03  0.12509232465E+03 0.  0.
         23    2    1    2    0    0 -0.24547575344E+03  0.51875195575E+02  0.92188362534E+03  0.95950136636E+03  0.88453784193E+02 0.  0.
          5    1    3    3  502    0  0.10445803933E+03 -0.79545483653E+02  0.30863154281E+03  0.33542490600E+03  0.41800000000E+01 0. -1.
         -5    1    3    3    0  502  0.14101771410E+03  0.27670288078E+02  0.21711736255E+03  0.26040173205E+03  0.41800000000E+01 0. -1.
        -11    1    4    4    0    0 -0.18089460368E+03  0.72256371325E+01  0.73137446196E+03  0.75344785558E+03  0.00000000000E+00 0. -1.
         11    1    4    4    0    0 -0.64581149760E+02  0.44649558443E+02  0.19050916338E+03  0.20605351078E+03  0.00000000000E+00 0.  1.
</event>
<event>
 8    1  0.6906553E-009  0.1107100E+03  0.7561462E-02  0.1259261E+00
          2   -1    0    0  501    0  0.00000000000E+00  0.00000000000E+00  0.46127099205E+02  0.46127099205E+02  0.00000000000E+00 0. -1.
         -2   -1    0    0    0  501 -0.00000000000E+00 -0.00000000000E+00 -0.29135426447E+03  0.29135426447E+03  0.00000000000E+00 0.  1.
         25    2    1    2    0    0  0.14804927768E+01 -0.23454212677E+02 -0.96628066573E+02  0.15980229390E+03  0.12508995937E+03 0.  0.
         23    2    1    2    0    0 -0.14804927768E+01  0.23454212677E+02 -0.14859909869E+03  0.17767906977E+03  0.94529718886E+02 0.  0.
          5    1    3    3  502    0  0.54546477118E+02  0.17079060174E+02 -0.62130166323E+02  0.84525986713E+02  0.41800000000E+01 0. -1.
         -5    1    3    3    0  502 -0.53065984341E+02 -0.40533272851E+02 -0.34497900249E+02  0.75276307187E+02  0.41800000000E+01 0. -1.
        -11    1    4    4    0    0  0.41369725660E+02 -0.10326441647E+02 -0.70921775262E+02  0.82752569776E+02  0.00000000000E+00 0. -1.
         11    1    4    4    0    0 -0.42850218437E+02  0.33780654324E+02 -0.77677323431E+02  0.94926499999E+02  0.00000000000E+00 0.  1.
</event>
<event>
 8    1  0.6906553E-009  0.1584463E+03  0.7561462E-02  0.1190462E+00
          2   -1    0    0  501    0  0.00000000000E+00  0.00000000000E+00  0.17941546362E+03  0.17941546362E+03  0.00000000000E+00 0. -1.
         -2   -1    0    0    0  501 -0.00000000000E+00 -0.00000000000E+00 -0.24537801076E+03  0.24537801076E+03  0.00000000000E+00 0.  1.
         25    2    1    2    0    0 -0.11648292367E+03 -0.82405176016E+01 -0.17176615863E+03  0.24246029203E+03  0.12508877776E+03 0.  0.
         23    2    1    2    0    0  0.11648292367E+03  0.82405176016E+01  0.10580361149E+03  0.18233318235E+03  0.91732260105E+02 0.  0.
          5    1    3    3  502    0  0.97193982159E+01 -0.38952626751E+02 -0.51152764664E+02  0.65160199242E+02  0.41800000000E+01 0.  1.
         -5    1    3    3    0  502 -0.12620232188E+03  0.30712109149E+02 -0.12061339397E+03  0.17730009279E+03  0.41800000000E+01 0.  1.
        -11    1    4    4    0    0 -0.44272660092E+01 -0.21590829300E+02  0.62863727125E+01  0.22919054869E+02  0.00000000000E+00 0. -1.
         11    1    4    4    0    0  0.12091018968E+03  0.29831346902E+02  0.99517238782E+02  0.15941412748E+03  0.00000000000E+00 0.  1.
</event>
<event>
 8    1  0.6906553E-009  0.2952414E+03  0.7561462E-02  0.1087644E+00
          2   -1    0    0  501    0  0.00000000000E+00  0.00000000000E+00  0.17149963822E+04  0.17149963822E+04  0.00000000000E+00 0. -1.
         -2   -1    0    0    0  501 -0.00000000000E+00 -0.00000000000E+00 -0.53095273172E+02  0.53095273172E+02  0.00000000000E+00 0.  1.
         25    2    1    2    0    0  0.16909311332E+03 -0.21514999340E+03  0.66648987314E+03  0.73125817890E+03  0.12509105717E+03 0.  0.
         23    2    1    2    0    0 -0.16909311332E+03  0.21514999340E+03  0.99541123590E+03  0.10368334765E+04  0.96426805212E+02 0.  0.
          5    1    3    3  502    0  0.18568385937E+03 -0.16736109538E+03  0.54640723252E+03  0.60088814935E+03  0.41800000000E+01 0.  1.
         -5    1    3    3    0  502 -0.16590746047E+02 -0.47788898019E+02  0.12008264062E+03  0.13037002955E+03  0.41800000000E+01 0.  1.
        -11    1    4    4    0    0 -0.87580754040E+02  0.39512029379E+02  0.30416644156E+03  0.31898089773E+03  0.00000000000E+00 0.  1.
         11    1    4    4    0    0 -0.81512359280E+02  0.17563796402E+03  0.69124479434E+03  0.71785257876E+03  0.00000000000E+00 0. -1.
</event>
<event>
 8    1  0.6906553E-009  0.1108808E+03  0.7561462E-02  0.1258947E+00
          2   -1    0    0  501    0  0.00000000000E+00  0.00000000000E+00  0.13230894654E+04  0.13230894654E+04  0.00000000000E+00 0. -1.
         -2   -1    0    0    0  501 -0.00000000000E+00 -0.00000000000E+00 -0.20538144469E+02  0.20538144469E+02  0.00000000000E+00 0.  1.
         25    2    1    2    0    0  0.60589702265E+02 -0.54362515752E+02  0.10697196507E+04  0.10800797953E+04  0.12508332398E+03 0.  0.
         23    2    1    2    0    0 -0.60589702265E+02  0.54362515752E+02  0.23283167015E+03  0.26354781451E+03  0.92846479569E+02 0.  0.
          5    1    3    3  502    0  0.77461990484E+02 -0.71102054873E+02  0.10128511845E+04  0.10183029297E+04  0.41800000000E+01 0. -1.
         -5    1    3    3    0  502 -0.16872288219E+02  0.16739539120E+02  0.56868466180E+02  0.61776865617E+02  0.41800000000E+01 0. -1.
        -11    1    4    4    0    0  0.48454004991E+01  0.15622265587E+02 -0.22155441146E+01  0.16505808789E+02  0.00000000000E+00 0.  1.
         11    1    4    4    0    0 -0.65435102764E+02  0.38740250166E+02  0.23504721427E+03  0.24704200572E+03  0.00000000000E+00 0. -1.
</event>
<event>
 8    1  0.6906553E-009  0.6438022E+02  0.7561462E-02  0.1380318E+00
          1   -1    0    0  501    0  0.00000000000E+00  0.00000000000E+00  0.67612866890E+02  0.67612866890E+02  0.00000000000E+00 0. -1.
         -1   -1    0    0    0  501 -0.00000000000E+00 -0.00000000000E+00 -0.22305581697E+03  0.22305581697E+03  0.00000000000E+00 0.  1.
         25    2    1    2    0    0 -0.54007111425E+01 -0.17740689814E+02 -0.23240169730E+02  0.12857682171E+03  0.12509194153E+03 0.  0.
         23    2    1    2    0    0  0.54007111425E+01  0.17740689814E+02 -0.13220278035E+03  0.16209186215E+03  0.91936374125E+02 0.  0.
          5    1    3    3  502    0  0.10452385537E+02  0.69470785243E+00 -0.72559624645E+02  0.73430964252E+02  0.41800000000E+01 0.  1.
         -5    1    3    3    0  502 -0.15853096680E+02 -0.18435397666E+02  0.49319454915E+02  0.55145857456E+02  0.41800000000E+01 0.  1.
        -11    1    4    4    0    0  0.32956256416E+02  0.43847646164E+02 -0.66405364476E+02  0.86130153502E+02  0.00000000000E+00 0.  1.
         11    1    4    4    0    0 -0.27555545274E+02 -0.26106956350E+02 -0.65797415871E+02  0.75961708646E+02  0.00000000000E+00 0. -1.
</event>
<event>
 8    1  0.6906553E-009  0.1054996E+03  0.7561462E-02  0.1269138E+00
         -1   -1    0    0    0  501 -0.00000000000E+00  0.00000000000E+00  0.51268529138E+03  0.51268529138E+03  0.00000000000E+00 0.  1.
          1   -1    0    0  501    0  0.00000000000E+00 -0.00000000000E+00 -0.39414035142E+02  0.39414035142E+02  0.00000000000E+00 0. -1.
         25    2    1    2    0    0 -0.30347142297E+02  0.29049638204E+02  0.41105168581E+03  0.43171273416E+03  0.12509023104E+03 0.  0.
         23    2    1    2    0    0  0.30347142297E+02 -0.29049638204E+02  0.62219570423E+02  0.12038659236E+03  0.94110712200E+02 0.  0.
          5    1    3    3  502    0  0.21961702762E+02  0.53048126932E+02  0.10027276920E+03  0.11562231966E+03  0.41800000000E+01 0.  1.
         -5    1    3    3    0  502 -0.52308845059E+02 -0.23998488728E+02  0.31077891661E+03  0.31609041450E+03  0.41800000000E+01 0.  1.
        -11    1    4    4    0    0 -0.27435896964E+02 -0.26106611541E+02  0.47379875434E+02  0.60655883511E+02  0.00000000000E+00 0.  1.
         11    1    4    4    0    0  0.57783039260E+02 -0.29430266631E+01  0.14839694989E+02  0.59730708848E+02  0.00000000000E+00 0. -1.
</event>
<event>
 8    1  0.6906553E-009  0.1486768E+03  0.7561462E-02  0.1202108E+00
         -3   -1    0    0    0  501 -0.00000000000E+00  0.00000000000E+00  0.37057371749E+03  0.37057371749E+03  0.00000000000E+00 0.  1.
          3   -1    0    0  501    0  0.00000000000E+00 -0.00000000000E+00 -0.61115977682E+02  0.61115977682E+02  0.00000000000E+00 0. -1.
         25    2    1    2    0    0 -0.12113098960E+02  0.10141911177E+03  0.19861812635E+03  0.25598716025E+03  0.12509077783E+03 0.  0.
         23    2    1    2    0    0  0.12113098960E+02 -0.10141911177E+03  0.11083961346E+03  0.17570253493E+03  0.90296165305E+02 0.  0.
          5    1    3    3  502    0  0.19538427395E+02 -0.24479332803E+02  0.37636672941E+02  0.49142440208E+02  0.41800000000E+01 0. -1.
         -5    1    3    3    0  502 -0.31651526354E+02  0.12589844457E+03  0.16098145341E+03  0.20684472004E+03  0.41800000000E+01 0. -1.
        -11    1    4    4    0    0  0.32284345132E+02  0.18489364437E+00  0.20396139105E+02  0.38187898825E+02  0.00000000000E+00 0.  1.
         11    1    4    4    0    0 -0.20171246173E+02 -0.10160400542E+03  0.90443474354E+02  0.13751463610E+03  0.00000000000E+00 0. -1.
</event>
<event>
 8    1  0.6906553E-009  0.2034106E+03  0.7561462E-02  0.1146893E+00
          2   -1    0    0  501    0  0.00000000000E+00  0.00000000000E+00  0.13104265011E+03  0.13104265011E+03  0.00000000000E+00 0. -1.
         -2   -1    0    0    0  501 -0.00000000000E+00 -0.00000000000E+00 -0.38739053826E+03  0.38739053826E+03  0.00000000000E+00 0.  1.
         25    2    1    2    0    0  0.83481801967E+02 -0.16793751655E+03 -0.20351277028E+03  0.30370645097E+03  0.12509172621E+03 0.  0.
         23    2    1    2    0    0 -0.83481801967E+02  0.16793751655E+03 -0.52835117871E+02  0.21472673740E+03  0.90243012733E+02 0.  0.
          5    1    3    3  502    0  0.39750684058E+02 -0.15695725763E+03 -0.20130125073E+03  0.25837059344E+03  0.41800000000E+01 0. -1.
         -5    1    3    3    0  502  0.43731117909E+02 -0.10980258919E+02 -0.22115195531E+01  0.45335857533E+02  0.41800000000E+01 0. -1.
        -11    1    4    4    0    0 -0.93479620104E+02  0.12860636347E+03 -0.15779023586E+02  0.15977175496E+03  0.00000000000E+00 0.  1.
         11    1    4    4    0    0  0.99978181369E+01  0.39331153084E+02 -0.37056094284E+02  0.54954982431E+02  0.00000000000E+00 0. -1.
</event>
<event>
 8    1  0.6906553E-009  0.1858226E+03  0.7561462E-02  0.1162284E+00
         -1   -1    0    0    0  501 -0.00000000000E+00  0.00000000000E+00  0.23848155414E+02  0.23848155414E+02  0.00000000000E+00 0.  1.
          1   -1    0    0  501    0  0.00000000000E+00 -0.00000000000E+00 -0.15026199711E+04  0.15026199711E+04  0.00000000000E+00 0. -1.
         25    2    1    2    0    0 -0.48759196456E+02 -0.14104024648E+03 -0.91058103187E+03  0.93116853721E+03  0.12508884334E+03 0.  0.
         23    2    1    2    0    0  0.48759196456E+02  0.14104024648E+03 -0.56819078386E+03  0.59529958935E+03  0.96286156034E+02 0.  0.
          5    1    3    3  502    0 -0.70989204046E+02 -0.24071766033E+02 -0.31969220908E+03  0.32838924763E+03  0.41800000000E+01 0.  1.
         -5    1    3    3    0  502  0.22230007590E+02 -0.11696848045E+03 -0.59088882279E+03  0.60277928958E+03  0.41800000000E+01 0.  1.
        -11    1    4    4    0    0  0.71672217906E+02  0.60802368163E+02 -0.31369495008E+03  0.32747268054E+03  0.00000000000E+00 0.  1.
         11    1    4    4    0    0 -0.22913021450E+02  0.80237878318E+02 -0.25449583378E+03  0.26782690881E+03  0.00000000000E+00 0. -1.
</event>
<event>
 8    1  0.6906553E-009  0.1449540E+03  0.7561462E-02  0.1206814E+00
         -1   -1    0    0    0  501 -0.00000000000E+00  0.00000000000E+00  0.40447852058E+02  0.40447852058E+02  0.00000000000E+00 0.  1.
          1   -1    0    0  501    0  0.00000000000E+00 -0.00000000000E+00 -0.66985857661E+03  0.66985857661E+03  0.00000000000E+00 0. -1.
         25    2    1    2    0    0 -0.73758543248E+02 -0.88366518945E+02 -0.44680196014E+03  0.47804507209E+03  0.12508451141E+03 0.  0.
         23    2    1    2    0    0  0.73758543248E+02  0.88366518945E+02 -0.18260876442E+03  0.23226135658E+03  0.85734546980E+02 0.  0.
          5    1    3    3  502    0 -0.34860269476E+01  0.30656021144E+02 -0.98205803202E+02  0.10302327989E+03  0.41800000000E+01 0. -1.
         -5    1    3    3    0  502 -0.70272516300E+02 -0.11902254009E+03 -0.34859615694E+03  0.37502179220E+03  0.41800000000E+01 0. -1.
        -11    1    4    4    0    0  0.65333958347E+02  0.52982858931E+02 -0.17630867631E+03  0.19534702146E+03  0.00000000000E+00 0.  1.
         11    1    4    4    0    0  0.84245849011E+01  0.35383660014E+02 -0.63000881083E+01  0.36914335114E+02  0.00000000000E+00 0. -1.
</event>
<event>
 8    1  0.6906553E-009  0.7106297E+02  0.7561462E-02  0.1356515E+00
          1   -1    0    0  501    0  0.00000000000E+00  0.00000000000E+00  0.60453479853E+03  0.60453479853E+03  0.00000000000E+00 0. -1.
         -1   -1    0    0    0  501 -0.00000000000E+00 -0.00000000000E+00 -0.21114771150E+02  0.21114771150E+02  0.00000000000E+00 0.  1.
         25    2    1    2    0    0  0.14080690396E+02  0.20425520779E+02  0.27472117341E+03  0.30287935656E+03  0.12509481912E+03 0.  0.
         23    2    1    2    0    0 -0.14080690396E+02 -0.20425520779E+02  0.30869885397E+03  0.32277021312E+03  0.90940421671E+02 0.  0.
          5    1    3    3  502    0  0.26832834041E+02  0.29405496939E+02  0.28224236516E+03  0.28506649983E+03  0.41800000000E+01 0.  1.
         -5    1    3    3    0  502 -0.12752143645E+02 -0.89799761599E+01 -0.75211917557E+01  0.17812856728E+02  0.41800000000E+01 0.  1.
        -11    1    4    4    0    0  0.28176631289E+02 -0.31504348444E+02  0.21848467818E+03  0.22253539296E+03  0.00000000000E+00 0.  1.
         11    1    4    4    0    0 -0.42257321685E+02  0.11078827665E+02  0.90214175793E+02  0.10023482016E+03  0.00000000000E+00 0. -1.
</event>
<event>
 8    1  0.6906553E-009  0.1180389E+03  0.7561462E-02  0.1246368E+00
         -2   -1    0    0    0  501 -0.00000000000E+00  0.00000000000E+00  0.11312324286E+03  0.11312324286E+03  0.00000000000E+00 0.  1.
          2   -1    0    0  501    0  0.00000000000E+00 -0.00000000000E+00 -0.28375319553E+03  0.28375319553E+03  0.00000000000E+00 0. -1.
         25    2    1    2    0    0  0.21666050174E+02  0.50907465895E+02  0.54741317390E+02  0.14731644259E+03  0.12507811405E+03 0.  0.
         23    2    1    2    0    0 -0.21666050174E+02 -0.50907465895E+02 -0.22537127006E+03  0.24955999580E+03  0.91798661872E+02 0.  0.
          5    1    3    3  502    0  0.26921305826E+00  0.89418170040E+02  0.21755619737E+02  0.92121989769E+02  0.41800000000E+01 0. -1.
         -5    1    3    3    0  502  0.21396837115E+02 -0.38510704145E+02  0.32985697653E+02  0.55194452818E+02  0.41800000000E+01 0. -1.
        -11    1    4    4    0    0  0.27305531755E+02  0.52409836701E+01 -0.32336781395E+02  0.42646540367E+02  0.00000000000E+00 0.  1.
         11    1    4    4    0    0 -0.48971581929E+02 -0.56148449565E+02 -0.19303448867E+03  0.20691345544E+03  0.00000000000E+00 0. -1.
</event>
<event>
 8    1  0.6906553E-009  0.8739379E+02  0.7561462E-02  0.1309289E+00
         -1   -1    0    0    0  501 -0.00000000000E+00  0.00000000000E+00  0.15159610332E+03  0.15159610332E+03  0.00000000000E+00 0.  1.
          1   -1    0    0  501    0  0.00000000000E+00 -0.00000000000E+00 -0.87854873954E+02  0.87854873954E+02  0.00000000000E+00 0. -1.
         25    2    1    2    0    0  0.76687889925E+01  0.16308320770E+02  0.75062717263E+02  0.14699841448E+03  0.12509736482E+03 0.  0.
         23    2    1    2    0    0 -0.76687889925E+01 -0.16308320770E+02 -0.11321487898E+02  0.92452562797E+02  0.89969598357E+02 0.  0.
          5    1    3    3  502    0  0.56826491397E+02 -0.16568070022E+02  0.62908587705E+02  0.86479557560E+02  0.41800000000E+01 0.  1.
         -5    1    3    3    0  502 -0.49157702404E+02  0.32876390792E+02  0.12154129559E+02  0.60518856917E+02  0.41800000000E+01 0.  1.
        -11    1    4    4    0    0 -0.17058989389E+01  0.19644238838E+02 -0.40972527700E+02  0.45470366579E+02  0.00000000000E+00 0. -1.
         11    1    4    4    0    0 -0.59628900535E+01 -0.35952559608E+02  0.29651039802E+02  0.46982196218E+02  0.00000000000E+00 0.  1.
</event>
<event>
 8    1  0.6906553E-009  0.1214125E+03  0.7561462E-02  0.1240785E+00
         -2   -1    0    0    0  501 -0.00000000000E+00  0.00000000000E+00  0.65905657693E+02  0.65905657693E+02  0.00000000000E+00 0. -1.
          2   -1    0    0  501    0  0.00000000000E+00 -0.00000000000E+00 -0.23055784858E+03  0.23055784858E+03  0.00000000000E+00 0.  1.
         25    2    1    2    0    0 -0.19880144813E+01  0.54179645557E+02 -0.80620545696E+02  0.15837752901E+03  0.12507750842E+03 0.  0.
         23    2    1    2    0    0  0.19880144813E+01 -0.54179645557E+02 -0.84031645187E+02  0.13808597726E+03  0.95220972110E+02 0.  0.
          5    1    3    3  502    0 -0.61665295443E+02  0.21155483780E+02 -0.23870156038E+02  0.69551562925E+02  0.41800000000E+01 0. -1.
         -5    1    3    3    0  502  0.59677280961E+02  0.33024161777E+02 -0.56750389658E+02  0.88825966081E+02  0.41800000000E+01 0. -1.
        -11    1    4    4    0    0  0.47850355512E+02 -0.35782268828E+02 -0.51899780981E+02  0.79143000644E+02  0.00000000000E+00 0. -1.
         11    1    4    4    0    0 -0.45862341031E+02 -0.18397376729E+02 -0.32131864206E+02  0.58942976619E+02  0.00000000000E+00 0.  1.
</event>
<event>
 8    1  0.6906553E-009  0.1341619E+03  0.7561462E-02  0.1221408E+00
          1   -1    0    0  501    0  0.00000000000E+00  0.00000000000E+00  0.25825049650E+03  0.25825049650E+03  0.00000000000E+00 0. -1.
         -1   -1    0    0    0  501 -0.00000000000E+00 -0.00000000000E+00 -0.11159267583E+03  0.11159267583E+03  0.00000000000E+00 0.  1.
         25    2    1    2    0    0 -0.10311772668E+03  0.25639276763E+02  0.16235956064E+03  0.23086559927E+03  0.12509060687E+03 0.  0.
         23    2    1    2    0    0  0.10311772668E+03 -0.25639276763E+02 -0.15701739970E+02  0.13897757306E+03  0.88190606685E+02 0.  0.
          5    1    3    3  502    0 -0.11934158243E+03 -0.12834400209E+02  0.10329732718E+03  0.15841384197E+03  0.41800000000E+01 0. -1.
         -5    1    3    3    0  502  0.16223855750E+02  0.38473676972E+02  0.59062233451E+02  0.72451757297E+02  0.41800000000E+01 0. -1.
        -11    1    4    4    0    0  0.11940561835E+02 -0.30885313493E+01 -0.40085123907E+02  0.41939637594E+02  0.00000000000E+00 0. -1.
         11    1    4    4    0    0  0.91177164842E+02 -0.22550745414E+02  0.24383383937E+02  0.97037935466E+02  0.00000000000E+00 0.  1.
</event>
<event>
 8    1  0.6906553E-009  0.3574185E+03  0.7561462E-02  0.1059611E+00
         -2   -1    0    0    0  501 -0.00000000000E+00  0.00000000000E+00  0.59197601165E+02  0.59197601165E+02  0.00000000000E+00 0.  1.
          2   -1    0    0  501    0  0.00000000000E+00 -0.00000000000E+00 -0.23093509031E+04  0.23093509031E+04  0.00000000000E+00 0. -1.
         25    2    1    2    0    0 -0.26961916946E+03 -0.21062516625E+03 -0.14290331600E+04  0.14747341242E+04  0.12508999747E+03 0.  0.
         23    2    1    2    0    0  0.26961916946E+03  0.21062516625E+03 -0.82112014188E+03  0.89381438002E+03  0.87226150557E+02 0.  0.
          5    1    3    3  502    0 -0.45940876973E+02 -0.10937733073E+03 -0.45887954052E+03  0.47398509446E+03  0.41800000000E+01 0. -1.
         -5    1    3    3    0  502 -0.22367829248E+03 -0.10124783552E+03 -0.97015361951E+03  0.10007490298E+04  0.41800000000E+01 0. -1.
        -11    1    4    4    0    0  0.66169578346E+02  0.14006627188E+02 -0.11981400083E+03  0.13758631290E+03  0.00000000000E+00 0. -1.
         11    1    4    4    0    0  0.20344959111E+03  0.19661853906E+03 -0.70130614105E+03  0.75622806712E+03  0.00000000000E+00 0.  1.
</event>
<event>
 8    1  0.6906553E-009  0.8946112E+02  0.7561462E-02  0.1304162E+00
          1   -1    0    0  501    0  0.00000000000E+00  0.00000000000E+00  0.97833975522E+02  0.97833975522E+02  0.00000000000E+00 0. -1.
         -1   -1    0    0    0  501 -0.00000000000E+00 -0.00000000000E+00 -0.19275641104E+03  0.19275641104E+03  0.00000000000E+00 0.  1.
         25    2    1    2    0    0 -0.85892585705E+01 -0.10694729728E+02  0.35882281591E+02  0.13085489689E+03  0.12508922136E+03 0.  0.
         23    2    1    2    0    0  0.85892585705E+01  0.10694729728E+02 -0.13080471711E+03  0.15973548967E+03  0.90649876098E+02 0.  0.
          5    1    3    3  502    0  0.57890591030E+02 -0.28707507849E+01  0.23334662044E+02  0.62622205268E+02  0.41800000000E+01 0. -1.
         -5    1    3    3    0  502 -0.66479849600E+02 -0.78239789428E+01  0.12547619547E+02  0.68232691620E+02  0.41800000000E+01 0. -1.
        -11    1    4    4    0    0 -0.21706474934E+02  0.86821680902E+01 -0.12700195186E+03  0.12913576914E+03  0.00000000000E+00 0.  1.
         11    1    4    4    0    0  0.30295733504E+02  0.20125616375E+01 -0.38027652508E+01  0.30599720529E+02  0.00000000000E+00 0. -1.
</event>
<event>
 8    1  0.6906553E-009  0.1341072E+03  0.7561462E-02  0.1221486E+00
          2   -1    0    0  501    0  0.00000000000E+00  0.00000000000E+00  0.70271959374E+02  0.70271959374E+02  0.00000000000E+00 0. -1.
         -2   -1    0    0    0  501 -0.00000000000E+00 -0.00000000000E+00 -0.33874292888E+03  0.33874292888E+03  0.00000000000E+00 0.  1.
         25    2    1    2    0    0 -0.98534055703E+02  0.65230264552E+00 -0.20852603296E+03  0.26237452546E+03  0.12509156470E+03 0.  0.
         23    2    1    2    0    0  0.98534055703E+02 -0.65230264552E+00 -0.59944936548E+02  0.14664036279E+03  0.90557246813E+02 0.  0.
          5    1    3    3  502    0 -0.31048078440E+02  0.51910908329E+02 -0.37052640411E+02  0.71056992194E+02  0.41800000000E+01 0. -1.
         -5    1    3    3    0  502 -0.67485977263E+02 -0.51258605683E+02 -0.17147339255E+03  0.19131753327E+03  0.41800000000E+01 0. -1.
        -11    1    4    4    0    0  0.43039815372E+00 -0.22272259926E+02 -0.37637327308E+02  0.43735651495E+02  0.00000000000E+00 0.  1.
         11    1    4    4    0    0  0.98103657549E+02  0.21619957281E+02 -0.22307609240E+02  0.10290471130E+03  0.00000000000E+00 0. -1.
</event>
<event>
 8    1  0.6906553E-009  0.1292706E+03  0.7561462E-02  0.1228542E+00
         -2   -1    0    0    0  501 -0.00000000000E+00  0.00000000000E+00  0.62253675458E+02  0.62253675458E+02  0.00000000000E+00 0.  1.
          2   -1    0    0  501    0  0.00000000000E+00 -0.00000000000E+00 -0.40755719440E+03  0.40755719440E+03  0.00000000000E+00 0. -1.
         25    2    1    2    0    0 -0.11363999215E+01  0.94389238985E+02 -0.84080819876E+02  0.17783936142E+03  0.12508650749E+03 0.  0.
         23    2    1    2    0    0  0.11363999215E+01 -0.94389238985E+02 -0.26122269907E+03  0.29197150845E+03  0.89996907687E+02 0.  0.
          5    1    3    3  502    0 -0.20084607188E+02  0.11927030214E+03 -0.82065217078E+02  0.14622232618E+03  0.41800000000E+01 0. -1.
         -5    1    3    3    0  502  0.18948207266E+02 -0.24881063159E+02 -0.20156027981E+01  0.31617035236E+02  0.41800000000E+01 0. -1.
        -11    1    4    4    0    0  0.20097386956E+02 -0.17106898131E+02 -0.96292764183E+01  0.28094018767E+02  0.00000000000E+00 0.  1.
         11    1    4    4    0    0 -0.18960987035E+02 -0.77282340855E+02 -0.25159342265E+03  0.26387748968E+03  0.00000000000E+00 0. -1.
</event>
<event>
 8    1  0.6906553E-009  0.1437454E+03  0.7561462E-02  0.1208376E+00
         -1   -1    0    0    0  501 -0.00000000000E+00  0.00000000000E+00  0.12203771639E+03  0.12203771639E+03  0.00000000000E+00 0.  1.
          1   -1    0    0  501    0  0.00000000000E+00 -0.00000000000E+00 -0.19834519155E+03  0.19834519155E+03  0.00000000000E+00 0. -1.
         25    2    1    2    0    0 -0.24554897311E+02  0.93179051630E+02  0.15676925496E+02  0.15867674171E+03  0.12508902318E+03 0.  0.
         23    2    1    2    0    0  0.24554897311E+02 -0.93179051630E+02 -0.91984400653E+02  0.16170616623E+03  0.91665018352E+02 0.  0.
          5    1    3    3  502    0  0.75986872717E+01  0.11608871106E+03  0.11996756212E+01  0.11641838560E+03  0.41800000000E+01 0. -1.
         -5    1    3    3    0  502 -0.32153584583E+02 -0.22909659431E+02  0.14477249874E+02  0.42258356105E+02  0.41800000000E+01 0. -1.
        -11    1    4    4    0    0 -0.14778725205E+02  0.12030059835E+02 -0.23095070664E+02  0.29941866129E+02  0.00000000000E+00 0. -1.
         11    1    4    4    0    0  0.39333622516E+02 -0.10520911147E+03 -0.68889329989E+02  0.13176430010E+03  0.00000000000E+00 0.  1.
</event>
<event>
 8    1  0.6906553E-009  0.8045939E+02  0.7561462E-02  0.1327753E+00
          2   -1    0    0  501    0  0.00000000000E+00  0.00000000000E+00  0.19324445966E+02  0.19324445966E+02  0.00000000000E+00 0. -1.
         -2   -1    0    0    0  501 -0.00000000000E+00 -0.00000000000E+00 -0.72733087448E+03  0.72733087448E+03  0.00000000000E+00 0.  1.
         25    2    1    2    0    0  0.21432316624E+02  0.11301982545E+02 -0.53064981443E+03  0.54573395345E+03  0.12509693596E+03 0.  0.
         23    2    1    2    0    0 -0.21432316624E+02 -0.11301982545E+02 -0.17735661408E+03  0.20092136700E+03  0.91252113134E+02 0.  0.
          5    1    3    3  502    0  0.93474015089E+01  0.37509085950E+02 -0.50616803212E+03  0.50765919137E+03  0.41800000000E+01 0. -1.
         -5    1    3    3    0  502  0.12084915115E+02 -0.26207103405E+02 -0.24481782310E+02  0.38074762078E+02  0.41800000000E+01 0. -1.
        -11    1    4    4    0    0 -0.55924285150E+02  0.18693147367E+01 -0.12394966218E+03  0.13599462769E+03  0.00000000000E+00 0. -1.
         11    1    4    4    0    0  0.34491968526E+02 -0.13171297282E+02 -0.53406951906E+02  0.64926739305E+02  0.00000000000E+00 0.  1.
</event>
<event>
 8    1  0.6906553E-009  0.9614182E+02  0.7561462E-02  0.1288625E+00
         -2   -1    0    0    0  501 -0.00000000000E+00  0.00000000000E+00  0.79349942730E+02  0.79349942730E+02  0.00000000000E+00 0. -1.
          2   -1    0    0  501    0  0.00000000000E+00 -0.00000000000E+00 -0.19265495696E+03  0.19265495696E+03  0.00000000000E+00 0.  1.
         25    2    1    2    0    0 -0.37134062933E+02 -0.32056068851E+02 -0.29425300768E+02  0.13755571789E+03  0.12509675063E+03 0.  0.
         23    2    1    2    0    0  0.37134062933E+02  0.32056068851E+02 -0.83879713466E+02  0.13444918181E+03  0.92920643438E+02 0.  0.
          5    1    3    3  502    0 -0.53787871780E+02  0.29884920899E+02  0.95143579456E+01  0.62403838462E+02  0.41800000000E+01 0. -1.
         -5    1    3    3    0  502  0.16653808847E+02 -0.61940989750E+02 -0.38939658713E+02  0.75151879425E+02  0.41800000000E+01 0. -1.
        -11    1    4    4    0    0 -0.21082086864E+01  0.26634205462E+02 -0.90431750817E+02  0.94295954315E+02  0.00000000000E+00 0.  1.
         11    1    4    4    0    0  0.39242271619E+02  0.54218633891E+01  0.65520373506E+01  0.40153227490E+02  0.00000000000E+00 0. -1.
</event>
<event>
 8    1  0.6906553E-009  0.1236819E+03  0.7561462E-02  0.1237144E+00
         -2   -1    0    0    0  501 -0.00000000000E+00  0.00000000000E+00  0.29564094827E+03  0.29564094827E+03  0.00000000000E+00 0.  1.
          2   -1    0    0  501    0  0.00000000000E+00 -0.00000000000E+00 -0.87094747833E+02  0.87094747833E+02  0.00000000000E+00 0. -1.
         25    2    1    2    0    0  0.75633921482E+02  0.75743934218E+02  0.16999840448E+03  0.23665238098E+03  0.12508900129E+03 0.  0.
         23    2    1    2    0    0 -0.75633921482E+02 -0.75743934218E+02  0.38547795953E+02  0.14608331513E+03  0.91633884215E+02 0.  0.
          5    1    3    3  502    0  0.31588799559E+02  0.44411558624E+02 -0.36069579845E+01  0.54778840285E+02  0.41800000000E+01 0. -1.
         -5    1    3    3    0  502  0.44045121923E+02  0.31332375594E+02  0.17360536247E+03  0.18187354069E+03  0.41800000000E+01 0. -1.
        -11    1    4    4    0    0 -0.17900016250E+02  0.19903448382E+02 -0.28917490167E+01  0.26924339390E+02  0.00000000000E+00 0. -1.
         11    1    4    4    0    0 -0.57733905232E+02 -0.95647382600E+02  0.41439544970E+02  0.11915897574E+03  0.00000000000E+00 0.  1.
</event>
<event>
 8    1  0.6906553E-009  0.1627606E+03  0.7561462E-02  0.1185615E+00
         -2   -1    0    0    0  501 -0.00000000000E+00  0.00000000000E+00  0.18443749919E+03  0.18443749919E+03  0.00000000000E+00 0. -1.
          2   -1    0    0  501    0  0.00000000000E+00 -0.00000000000E+00 -0.15375120807E+03  0.15375120807E+03  0.00000000000E+00 0.  1.
         25    2    1    2    0    0  0.75234122124E+02 -0.10243438994E+03  0.32529388880E+02  0.18127096752E+03  0.12509206669E+03 0.  0.
         23    2    1    2    0    0 -0.75234122124E+02  0.10243438994E+03 -0.18430977682E+01  0.15691773974E+03  0.92015230592E+02 0.  0.
          5    1    3    3  502    0 -0.66847156465E+01 -0.91214709092E+02 -0.19827821634E+01  0.91576265501E+02  0.41800000000E+01 0.  1.
         -5    1    3    3    0  502  0.81918837771E+02 -0.11219680853E+02  0.34512171043E+02  0.89694702019E+02  0.41800000000E+01 0.  1.
        -11    1    4    4    0    0  0.12681253680E+02  0.43562666864E+02 -0.19967268513E+02  0.49570272857E+02  0.00000000000E+00 0. -1.
         11    1    4    4    0    0 -0.87915375804E+02  0.58871723081E+02  0.18124170745E+02  0.10734746688E+03  0.00000000000E+00 0.  1.
</event>
<event>
 8    1  0.6906553E-009  0.7027160E+02  0.7561462E-02  0.1359172E+00
         -1   -1    0    0    0  501 -0.00000000000E+00  0.00000000000E+00  0.23183209267E+03  0.23183209267E+03  0.00000000000E+00 0.  1.
          1   -1    0    0  501    0  0.00000000000E+00 -0.00000000000E+00 -0.62732238051E+02  0.62732238051E+02  0.00000000000E+00 0. -1.
         25    2    1    2    0    0 -0.36252972601E+02 -0.11743601787E+02  0.13904623498E+03  0.19087527272E+03  0.12508926441E+03 0.  0.
         23    2    1    2    0    0  0.36252972601E+02  0.11743601787E+02  0.30053619633E+02  0.10368905799E+03  0.91629746746E+02 0.  0.
          5    1    3    3  502    0 -0.22633875764E+02 -0.34619535608E+02 -0.71786170174E+01  0.42187788756E+02  0.41800000000E+01 0.  1.
         -5    1    3    3    0  502 -0.13619096836E+02  0.22875933821E+02  0.14622485200E+03  0.14868748397E+03  0.41800000000E+01 0.  1.
        -11    1    4    4    0    0  0.48063657072E+02  0.25074546360E+02 -0.14154146992E+02  0.56028456014E+02  0.00000000000E+00 0. -1.
         11    1    4    4    0    0 -0.11810684471E+02 -0.13330944573E+02  0.44207766625E+02  0.47660601977E+02  0.00000000000E+00 0.  1.
</event>
<event>
 8    1  0.6906553E-009  0.1063146E+03  0.7561462E-02  0.1267551E+00
         -2   -1    0    0    0  501 -0.00000000000E+00  0.00000000000E+00  0.70747211141E+02  0.70747211141E+02  0.00000000000E+00 0. -1.
          2   -1    0    0  501    0  0.00000000000E+00 -0.00000000000E+00 -0.24795120879E+03  0.24795120879E+03  0.00000000000E+00 0.  1.
         25    2    1    2    0    0  0.43720320255E+02  0.54349990977E+02 -0.62180214806E+02  0.15613972918E+03  0.12509135859E+03 0.  0.
         23    2    1    2    0    0 -0.43720320255E+02 -0.54349990977E+02 -0.11502378284E+03  0.16255869075E+03  0.91265926810E+02 0.  0.
          5    1    3    3  502    0 -0.19303303811E+02  0.73487663775E+02 -0.43032975208E+02  0.87420613246E+02  0.41800000000E+01 0.  1.
         -5    1    3    3    0  502  0.63023624066E+02 -0.19137672797E+02 -0.19147239598E+02  0.68719115934E+02  0.41800000000E+01 0.  1.
        -11    1    4    4    0    0 -0.38283180416E+02 -0.40864681306E+02 -0.13008448172E+03  0.14162449105E+03  0.00000000000E+00 0.  1.
         11    1    4    4    0    0 -0.54371398395E+01 -0.13485309671E+02  0.15060698875E+02  0.20934199702E+02  0.00000000000E+00 0. -1.
</event>
<event>
 8    1  0.6906553E-009  0.8888456E+02  0.7561462E-02  0.1305576E+00
          1   -1    0    0  501    0  0.00000000000E+00  0.00000000000E+00  0.22612737260E+03  0.22612737260E+03  0.00000000000E+00 0. -1.
         -1   -1    0    0    0  501 -0.00000000000E+00 -0.00000000000E+00 -0.63640229506E+02  0.63640229506E+02  0.00000000000E+00 0.  1.
         25    2    1    2    0    0 -0.24410849611E+02 -0.31642127344E+02  0.13411685268E+03  0.18770019311E+03  0.12508764336E+03 0.  0.
         23    2    1    2    0    0  0.24410849611E+02  0.31642127344E+02  0.28370290408E+02  0.10206740899E+03  0.89530825966E+02 0.  0.
          5    1    3    3  502    0 -0.87499744360E+01 -0.54534421269E+02  0.50489847478E+01  0.55619509192E+02  0.41800000000E+01 0. -1.
         -5    1    3    3    0  502 -0.15660875175E+02  0.22892293925E+02  0.12906786793E+03  0.13208068392E+03  0.41800000000E+01 0. -1.
        -11    1    4    4    0    0  0.25635093324E+02  0.60363839175E+02  0.32209527459E+02  0.73064387692E+02  0.00000000000E+00 0.  1.
         11    1    4    4    0    0 -0.12242437130E+01 -0.28721711831E+02 -0.38392370507E+01  0.29003021296E+02  0.00000000000E+00 0. -1.
</event>
<event>
 8    1  0.6906553E-009  0.1350125E+03  0.7561462E-02  0.1220202E+00
         -2   -1    0    0    0  501 -0.00000000000E+00  0.00000000000E+00  0.54451378025E+02  0.54451378025E+02  0.00000000000E+00 0.  1.
          2   -1    0    0  501    0  0.00000000000E+00 -0.00000000000E+00 -0.54392595923E+03  0.54392595923E+03  0.00000000000E+00 0. -1.
         25    2    1    2    0    0  0.52277922658E+02  0.11654169590E+03 -0.18746079856E+03  0.25904468926E+03  0.12509057501E+03 0.  0.
         23    2    1    2    0    0 -0.52277922658E+02 -0.11654169590E+03 -0.30201378265E+03  0.33933264800E+03  0.87289019975E+02 0.  0.
          5    1    3    3  502    0  0.21911351223E+02  0.10816626723E+03 -0.19701808123E+03  0.22586200524E+03  0.41800000000E+01 0. -1.
         -5    1    3    3    0  502  0.30366571434E+02  0.83754286691E+01  0.95572826778E+01  0.33182684012E+02  0.41800000000E+01 0. -1.
        -11    1    4    4    0    0 -0.30943586467E+02 -0.63623469668E+02 -0.66816019556E+02  0.97313061329E+02  0.00000000000E+00 0.  1.
         11    1    4    4    0    0 -0.21334336191E+02 -0.52918226233E+02 -0.23519776309E+03  0.24201958667E+03  0.00000000000E+00 0. -1.
</event>
<event>
 8    1  0.6906553E-009  0.8526288E+02  0.7561462E-02  0.1314746E+00
          2   -1    0    0  501    0  0.00000000000E+00  0.00000000000E+00  0.59082071500E+03  0.59082071500E+03  0.00000000000E+00 0. -1.
         -2   -1    0    0    0  501 -0.00000000000E+00 -0.00000000000E+00 -0.37024585385E+02  0.37024585385E+02  0.00000000000E+00 0.  1.
         25    2    1    2    0    0  0.37958895705E+02  0.11673659001E+02  0.49442891139E+03  0.51154823450E+03  0.12507795860E+03 0.  0.
         23    2    1    2    0    0 -0.37958895705E+02 -0.11673659001E+02  0.59367218228E+02  0.11629706588E+03  0.91779021871E+02 0.  0.
          5    1    3    3  502    0  0.11563151849E+02  0.67662668846E+02  0.23942309475E+03  0.24910406246E+03  0.41800000000E+01 0.  1.
         -5    1    3    3    0  502  0.26395743856E+02 -0.55989009845E+02  0.25500581664E+03  0.26244417204E+03  0.41800000000E+01 0.  1.
        -11    1    4    4    0    0 -0.14354913085E+02 -0.45910019958E+01 -0.24566089139E+02  0.28820714158E+02  0.00000000000E+00 0.  1.
         11    1    4    4    0    0 -0.23603982620E+02 -0.70826570049E+01  0.83933307367E+02  0.87476351726E+02  0.00000000000E+00 0. -1.
</event>
<event>
 8    1  0.6906553E-009  0.1055068E+03  0.7561462E-02  0.1269124E+00
         -1   -1    0    0    0  501 -0.00000000000E+00  0.00000000000E+00  0.10569255270E+02  0.10569255270E+02  0.00000000000E+00 0. -1.
          1   -1    0    0  501    0  0.00000000000E+00 -0.00000000000E+00 -0.13187280841E+04  0.13187280841E+04  0.00000000000E+00 0.  1.
         25    2    1    2    0    0  0.46032011906E+02 -0.12664453858E+02 -0.73424635979E+03  0.74635757736E+03  0.12511027898E+03 0.  0.
         23    2    1    2    0    0 -0.46032011906E+02  0.12664453858E+02 -0.57391246903E+03  0.58293976200E+03  0.90354355188E+02 0.  0.
          5    1    3    3  502    0 -0.56999843644E+01 -0.46470976346E+02 -0.11817560371E+03  0.12718092300E+03  0.41800000000E+01 0.  1.
         -5    1    3    3    0  502  0.51731996271E+02  0.33806522489E+02 -0.61607075608E+03  0.61917665436E+03  0.41800000000E+01 0.  1.
        -11    1    4    4    0    0  0.12903245164E+02  0.36334303690E+02 -0.23088743771E+03  0.23408478005E+03  0.00000000000E+00 0. -1.
         11    1    4    4    0    0 -0.58935257071E+02 -0.23669849833E+02 -0.34302503132E+03  0.34885498194E+03  0.00000000000E+00 0.  1.
</event>
<event>
 8    1  0.6906553E-009  0.1086524E+03  0.7561462E-02  0.1263086E+00
         -1   -1    0    0    0  501 -0.00000000000E+00  0.00000000000E+00  0.39145644339E+03  0.39145644339E+03  0.00000000000E+00 0.  1.
          1   -1    0    0  501    0  0.00000000000E+00 -0.00000000000E+00 -0.35327285848E+02  0.35327285848E+02  0.00000000000E+00 0. -1.
         25    2    1    2    0    0 -0.22690805161E+02 -0.32411262691E+02  0.15710298200E+03  0.20468296802E+03  0.12509359639E+03 0.  0.
         23    2    1    2    0    0  0.22690805161E+02  0.32411262691E+02  0.19902617555E+03  0.22210076122E+03  0.90288243927E+02 0.  0.
          5    1    3    3  502    0 -0.81997987705E+01  0.44303625912E+02  0.93583032486E+02  0.10394856583E+03  0.41800000000E+01 0. -1.
         -5    1    3    3    0  502 -0.14491006391E+02 -0.76714888603E+02  0.63519949511E+02  0.10073440219E+03  0.41800000000E+01 0. -1.
        -11    1    4    4    0    0  0.10384376095E+02 -0.29227035683E+02  0.10098767946E+03  0.10564358136E+03  0.00000000000E+00 0.  1.
         11    1    4    4    0    0  0.12306429066E+02  0.61638298375E+02  0.98038496092E+02  0.11645717985E+03  0.00000000000E+00 0. -1.
</event>
<event>
 8    1  0.6906553E-009  0.9621638E+02  0.7561462E-02  0.1288460E+00
         -2   -1    0    0    0  501 -0.00000000000E+00  0.00000000000E+00  0.55679433532E+02  0.55679433532E+02  0.00000000000E+00 0.  1.
          2   -1    0    0  501    0  0.00000000000E+00 -0.00000000000E+00 -0.23350652892E+03  0.23350652892E+03  0.00000000000E+00 0. -1.
         25    2    1    2    0    0  0.24621239225E+02 -0.16628534348E+02 -0.12393092715E+03  0.17857425641E+03  0.12508867564E+03 0.  0.
         23    2    1    2    0    0 -0.24621239225E+02  0.16628534348E+02 -0.53896168237E+02  0.11061170604E+03  0.91909950426E+02 0.  0.
          5    1    3    3  502    0  0.16653602330E+02  0.44544191330E+02 -0.97462820114E+01  0.48723606854E+02  0.41800000000E+01 0. -1.
         -5    1    3    3    0  502  0.79676368949E+01 -0.61172725679E+02 -0.11418464514E+03  0.12985064955E+03  0.41800000000E+01 0. -1.
        -11    1    4    4    0    0 -0.43542108058E+02 -0.14960813866E+02 -0.57445372050E+02  0.73618692569E+02  0.00000000000E+00 0.  1.
         11    1    4    4    0    0  0.18920868833E+02  0.31589348214E+02  0.35492038136E+01  0.36993013472E+02  0.00000000000E+00 0. -1.
</event>
<event>
 8    1  0.6906553E-009  0.1090723E+03  0.7561462E-02  0.1262297E+00
          2   -1    0    0  501    0  0.00000000000E+00  0.00000000000E+00  0.15329467428E+03  0.15329467428E+03  0.00000000000E+00 0. -1.
         -2   -1    0    0    0  501 -0.00000000000E+00 -0.00000000000E+00 -0.11308594615E+03  0.11308594615E+03  0.00000000000E+00 0.  1.
         25    2    1    2    0    0  0.34075351442E+02 -0.26516797618E+02 -0.41055048067E+02  0.13855693532E+03  0.12509291435E+03 0.  0.
         23    2    1    2    0    0 -0.34075351442E+02  0.26516797618E+02  0.81263776192E+02  0.12782368511E+03  0.88717659019E+02 0.  0.
          5    1    3    3  502    0 -0.47389485918E+02 -0.65868293618E+01 -0.19715190886E+02  0.51916383236E+02  0.41800000000E+01 0.  1.
         -5    1    3    3    0  502  0.81464837360E+02 -0.19929968257E+02 -0.21339857181E+02  0.86640552083E+02  0.41800000000E+01 0.  1.
        -11    1    4    4    0    0 -0.34981437481E+02  0.50891350651E+02  0.82904799863E+02  0.10337715599E+03  0.00000000000E+00 0. -1.
         11    1    4    4    0    0  0.90608603917E+00 -0.24374553033E+02 -0.16410236706E+01  0.24446529123E+02  0.00000000000E+00 0.  1.
</event>
<event>
 8    1  0.6906553E-009  0.1195859E+03  0.7561462E-02  0.1243782E+00
          2   -1    0    0  501    0  0.00000000000E+00  0.00000000000E+00  0.20616624206E+03  0.20616624206E+03  0.00000000000E+00 0. -1.
         -2   -1    0    0    0  501 -0.00000000000E+00 -0.00000000000E+00 -0.11712894427E+03  0.11712894427E+03  0.00000000000E+00 0.  1.
         25    2    1    2    0    0  0.53639877451E+02 -0.73763497172E+02  0.11458989927E+03  0.19260767092E+03  0.12509428410E+03 0.  0.
         23    2    1    2    0    0 -0.53639877451E+02  0.73763497172E+02 -0.25552601474E+02  0.13068751540E+03  0.90044440542E+02 0.  0.
          5    1    3    3  502    0  0.86565307867E+02 -0.31109682933E+02  0.10141189316E+03  0.13697886469E+03  0.41800000000E+01 0.  1.
         -5    1    3    3    0  502 -0.32925430415E+02 -0.42653814239E+02  0.13178006105E+02  0.55628806225E+02  0.41800000000E+01 0.  1.
        -11    1    4    4    0    0 -0.17796930552E+02  0.40106091478E+02  0.32505915769E+02  0.54606445322E+02  0.00000000000E+00 0. -1.
         11    1    4    4    0    0 -0.35842946899E+02  0.33657405693E+02 -0.58058517243E+02  0.76081070083E+02  0.00000000000E+00 0.  1.
</event>
<event>
 8    1  0.6906553E-009  0.1209228E+03  0.7561462E-02  0.1241582E+00
          3   -1    0    0  501    0  0.00000000000E+00  0.00000000000E+00  0.45904974841E+03  0.45904974841E+03  0.00000000000E+00 0. -1.
         -3   -1    0    0    0  501 -0.00000000000E+00 -0.00000000000E+00 -0.39105696401E+02  0.39105696401E+02  0.00000000000E+00 0.  1.
         25    2    1    2    0    0  0.56492806357E+02 -0.53022021072E+02  0.21360880662E+03  0.25937963824E+03  0.12508518128E+03 0.  0.
         23    2    1    2    0    0 -0.56492806357E+02  0.53022021072E+02  0.20633524539E+03  0.23877580658E+03  0.91852492773E+02 0.  0.
          5    1    3    3  502    0  0.63049423844E+02  0.18300899336E+02  0.56705748927E+02  0.86851408307E+02  0.41800000000E+01 0. -1.
         -5    1    3    3    0  502 -0.65566174865E+01 -0.71322920408E+02  0.15690305770E+03  0.17252822993E+03  0.41800000000E+01 0. -1.
        -11    1    4    4    0    0 -0.72907269333E+02  0.38757420696E+02  0.97388102447E+02  0.12767948182E+03  0.00000000000E+00 0.  1.
         11    1    4    4    0    0  0.16414462976E+02  0.14264600377E+02  0.10894714294E+03  0.11109632476E+03  0.00000000000E+00 0. -1.
</event>
<event>
 8    1  0.6906553E-009  0.1401525E+03  0.7561462E-02  0.1213124E+00
         -1   -1    0    0    0  501 -0.00000000000E+00  0.00000000000E+00  0.47279856137E+02  0.47279856137E+02  0.00000000000E+00 0.  1.
          1   -1    0    0  501    0  0.00000000000E+00 -0.00000000000E+00 -0.44429115882E+03  0.44429115882E+03  0.00000000000E+00 0. -1.
         25    2    1    2    0    0 -0.55409882018E+02  0.77813879799E+02 -0.20085893729E+03  0.25518054029E+03  0.12509012966E+03 0.  0.
         23    2    1    2    0    0  0.55409882018E+02 -0.77813879799E+02 -0.19615236540E+03  0.23639047467E+03  0.90991489437E+02 0.  0.
          5    1    3    3  502    0 -0.30776139694E+02  0.10689909835E+03 -0.17969984027E+03  0.21138612300E+03  0.41800000000E+01 0. -1.
         -5    1    3    3    0  502 -0.24633742325E+02 -0.29085218553E+02 -0.21159097017E+02  0.43794417290E+02  0.41800000000E+01 0. -1.
        -11    1    4    4    0    0  0.61307437809E+02 -0.94589917881E+01 -0.10967263040E+03  0.12600063617E+03  0.00000000000E+00 0. -1.
         11    1    4    4    0    0 -0.58975557914E+01 -0.68354888011E+02 -0.86479735000E+02  0.11038983850E+03  0.00000000000E+00 0.  1.
</event>
<event>
 8    1  0.6906553E-009  0.8546696E+02  0.7561462E-02  0.1314216E+00
          2   -1    0    0  501    0  0.00000000000E+00  0.00000000000E+00  0.26733187310E+02  0.26733187310E+02  0.00000000000E+00 0. -1.
         -2   -1    0    0    0  501 -0.00000000000E+00 -0.00000000000E+00 -0.79444975785E+03  0.79444975785E+03  0.00000000000E+00 0.  1.
         25    2    1    2    0    0 -0.26703679266E+02  0.54971202240E+02 -0.64647240592E+03  0.66129328734E+03  0.12508925096E+03 0.  0.
         23    2    1    2    0    0  0.26703679266E+02 -0.54971202240E+02 -0.12124416462E+03  0.15988965782E+03  0.84437169901E+02 0.  0.
          5    1    3    3  502    0  0.81797787632E+00  0.55894612083E+02 -0.10433137125E+03  0.11843725838E+03  0.41800000000E+01 0. -1.
         -5    1    3    3    0  502 -0.27521657143E+02 -0.92340984345E+00 -0.54214103467E+03  0.54285602896E+03  0.41800000000E+01 0. -1.
        -11    1    4    4    0    0  0.25146454623E+02 -0.68725994438E+02 -0.12561108397E+03  0.14537451946E+03  0.00000000000E+00 0.  1.
         11    1    4    4    0    0  0.15572246431E+01  0.13754792199E+02  0.43669193493E+01  0.14515138360E+02  0.00000000000E+00 0. -1.
</event>
<event>
 8    1  0.6906553E-009  0.1297947E+03  0.7561462E-02  0.1227761E+00
         -1   -1    0    0    0  501 -0.00000000000E+00  0.00000000000E+00  0.76178580595E+02  0.76178580595E+02  0.00000000000E+00 0.  1.
          1   -1    0    0  501    0  0.00000000000E+00 -0.00000000000E+00 -0.24898610543E+03  0.24898610543E+03  0.00000000000E+00 0. -1.
         25    2    1    2    0    0  0.54876896593E+02 -0.50328535302E+02 -0.47149661233E+02  0.15301666157E+03  0.12508626191E+03 0.  0.
         23    2    1    2    0    0 -0.54876896593E+02  0.50328535302E+02 -0.12565786360E+03  0.17214802445E+03  0.91107674723E+02 0.  0.
          5    1    3    3  502    0 -0.37868875339E+02 -0.22871281891E+01 -0.26495018760E+02  0.46462254507E+02  0.41800000000E+01 0.  1.
         -5    1    3    3    0  502  0.92745771932E+02 -0.48041407113E+02 -0.20654642473E+02  0.10655440706E+03  0.41800000000E+01 0.  1.
        -11    1    4    4    0    0  0.12779585037E+02  0.47482535977E+02 -0.62740714892E+02  0.79713902938E+02  0.00000000000E+00 0.  1.
         11    1    4    4    0    0 -0.67656481630E+02  0.28459993249E+01 -0.62917148708E+02  0.92434121515E+02  0.00000000000E+00 0. -1.
</event>
<event>
 8    1  0.6906553E-009  0.8864986E+02  0.7561462E-02  0.1306155E+00
         -1   -1    0    0    0  501 -0.00000000000E+00  0.00000000000E+00  0.14127056443E+03  0.14127056443E+03  0.00000000000E+00 0.  1.
          1   -1    0    0  501    0  0.00000000000E+00 -0.00000000000E+00 -0.10314969354E+03  0.10314969354E+03  0.00000000000E+00 0. -1.
         25    2    1    2    0    0  0.24633412776E+01 -0.47592789884E+02  0.26866801912E+02  0.13652966763E+03  0.12508950155E+03 0.  0.
         23    2    1    2    0    0 -0.24633412776E+01  0.47592789884E+02  0.11254068981E+02  0.10789059034E+03  0.96138357153E+02 0.  0.
          5    1    3    3  502    0  0.45355240084E+02 -0.98695361454E+00 -0.27275533448E+02  0.53098954843E+02  0.41800000000E+01 0.  1.
         -5    1    3    3    0  502 -0.42891898806E+02 -0.46605836269E+02  0.54142335360E+02  0.83430712785E+02  0.41800000000E+01 0.  1.
        -11    1    4    4    0    0  0.16013342755E+01  0.57517651910E+02  0.44639141105E+02  0.72825115663E+02  0.00000000000E+00 0.  1.
         11    1    4    4    0    0 -0.40646755532E+01 -0.99248620264E+01 -0.33385072124E+02  0.35065474677E+02  0.00000000000E+00 0. -1.
</event>
<event>
 8    1  0.6906553E-009  0.2266779E+03  0.7561462E-02  0.1129000E+00
         -1   -1    0    0    0  501 -0.00000000000E+00  0.00000000000E+00  0.97903006727E+02  0.97903006727E+02  0.00000000000E+00 0.  1.
          1   -1    0    0  501    0  0.00000000000E+00 -0.00000000000E+00 -0.77391023508E+03  0.77391023508E+03  0.00000000000E+00 0. -1.
         25    2    1    2    0    0 -0.84687467675E+02  0.20053018264E+03 -0.14310526263E+03  0.28898329735E+03  0.12509160093E+03 0.  0.
         23    2    1    2    0    0  0.84687467675E+02 -0.20053018264E+03 -0.53290196572E+03  0.58282994446E+03  0.91224545829E+02 0.  0.
          5    1    3    3  502    0 -0.78837775438E+02  0.17268080821E+03 -0.57064231909E+02  0.19826208746E+03  0.41800000000E+01 0. -1.
         -5    1    3    3    0  502 -0.58496922369E+01  0.27849374422E+02 -0.86041030724E+02  0.90721209885E+02  0.41800000000E+01 0. -1.
        -11    1    4    4    0    0  0.69567172192E+01 -0.12868533765E+03 -0.26189572665E+03  0.29188642256E+03  0.00000000000E+00 0. -1.
         11    1    4    4    0    0  0.77730750456E+02 -0.71844844986E+02 -0.27100623907E+03  0.29094352190E+03  0.00000000000E+00 0.  1.
</event>
<event>
 8    1  0.6906553E-009  0.1621476E+03  0.7561462E-02  0.1186293E+00
          1   -1    0    0  501    0  0.00000000000E+00  0.00000000000E+00  0.35605051842E+03  0.35605051842E+03  0.00000000000E+00 0. -1.
         -1   -1    0    0    0  501 -0.00000000000E+00 -0.00000000000E+00 -0.10920892595E+03  0.10920892595E+03  0.00000000000E+00 0.  1.
         25    2    1    2    0    0  0.11876710731E+03 -0.52545303471E+02  0.24818461776E+03  0.30677070731E+03  0.12508408242E+03 0.  0.
         23    2    1    2    0    0 -0.11876710731E+03  0.52545303471E+02 -0.13430252930E+01  0.15848873705E+03  0.90830839242E+02 0.  0.
          5    1    3    3  502    0 -0.62569163715E+00 -0.55809435337E+02  0.48523274318E+02  0.74074726548E+02  0.41800000000E+01 0.  1.
         -5    1    3    3    0  502  0.11939279895E+03  0.32641318656E+01  0.19966134345E+03  0.23269598077E+03  0.41800000000E+01 0.  1.
        -11    1    4    4    0    0 -0.23703309789E+02  0.48128704744E+02  0.25795661234E+02  0.59528440714E+02  0.00000000000E+00 0. -1.
         11    1    4    4    0    0 -0.95063797524E+02  0.44165987266E+01 -0.27138686527E+02  0.98960296333E+02  0.00000000000E+00 0.  1.
</event>
<event>
 8    1  0.6906553E-009  0.1075510E+03  0.7561462E-02  0.1265173E+00
          1   -1    0    0  501    0  0.00000000000E+00  0.00000000000E+00  0.66542279765E+02  0.66542279765E+02  0.00000000000E+00 0. -1.
         -1   -1    0    0    0  501 -0.00000000000E+00 -0.00000000000E+00 -0.33371461512E+03  0.33371461512E+03  0.00000000000E+00 0.  1.
         25    2    1    2    0    0  0.31694323382E+02 -0.57009798623E+02 -0.24835385081E+03  0.28562939758E+03  0.12509944156E+03 0.  0.
         23    2    1    2    0    0 -0.31694323382E+02  0.57009798623E+02 -0.18818484550E+02  0.11462749731E+03  0.92361683096E+02 0.  0.
          5    1    3    3  502    0  0.33529780199E+02 -0.75859787868E+02 -0.77217034569E+02  0.11339707405E+03  0.41800000000E+01 0.  1.
         -5    1    3    3    0  502 -0.18354568178E+01  0.18849989245E+02 -0.17113681624E+03  0.17223232353E+03  0.41800000000E+01 0.  1.
        -11    1    4    4    0    0 -0.63760875460E+02  0.28841006668E+02 -0.69408385456E+01  0.70323738132E+02  0.00000000000E+00 0. -1.
         11    1    4    4    0    0  0.32066552079E+02  0.28168791956E+02 -0.11877646005E+02  0.44303759175E+02  0.00000000000E+00 0.  1.
</event>
<event>
 8    1  0.6906553E-009  0.7630406E+02  0.7561462E-02  0.1339880E+00
         -2   -1    0    0    0  501 -0.00000000000E+00  0.00000000000E+00  0.56239801357E+02  0.56239801357E+02  0.00000000000E+00 0.  1.
          2   -1    0    0  501    0  0.00000000000E+00 -0.00000000000E+00 -0.20844289722E+03  0.20844289722E+03  0.00000000000E+00 0. -1.
         25    2    1    2    0    0 -0.10653274141E+02  0.17254312573E+02 -0.11205872727E+03  0.16915438040E+03  0.12507934481E+03 0.  0.
         23    2    1    2    0    0  0.10653274141E+02 -0.17254312573E+02 -0.40144368587E+02  0.95528318171E+02  0.84278619418E+02 0.  0.
          5    1    3    3  502    0 -0.54571531255E+02  0.17072781756E+02 -0.10308742760E+02  0.58251819523E+02  0.41800000000E+01 0. -1.
         -5    1    3    3    0  502  0.43918257115E+02  0.18153081774E+00 -0.10174998451E+03  0.11090256088E+03  0.41800000000E+01 0. -1.
        -11    1    4    4    0    0 -0.17581005473E+02 -0.14502298312E+02  0.19168971384E+02  0.29780159061E+02  0.00000000000E+00 0.  1.
         11    1    4    4    0    0  0.28234279614E+02 -0.27520142614E+01 -0.59313339971E+02  0.65748159110E+02  0.00000000000E+00 0. -1.
</event>
<event>
 8    1  0.6906553E-009  0.1467523E+03  0.7561462E-02  0.1204522E+00
         -2   -1    0    0    0  501 -0.00000000000E+00  0.00000000000E+00  0.26242214824E+02  0.26242214824E+02  0.00000000000E+00 0.  1.
          2   -1    0    0  501    0  0.00000000000E+00 -0.00000000000E+00 -0.13436982449E+04  0.13436982449E+04  0.00000000000E+00 0. -1.
         25    2    1    2    0    0 -0.11511426535E+03  0.68303058957E+02 -0.95813843379E+03  0.97549731117E+03  0.12509653810E+03 0.  0.
         23    2    1    2    0    0  0.11511426535E+03 -0.68303058957E+02 -0.35931759629E+03  0.39444314856E+03  0.92518433253E+02 0.  0.
          5    1    3    3  502    0 -0.47449454518E+02 -0.20698415330E+01 -0.66072178835E+03  0.66243980026E+03  0.41800000000E+01 0. -1.
         -5    1    3    3    0  502 -0.67664810828E+02  0.70372900490E+02 -0.29741664544E+03  0.31305751090E+03  0.41800000000E+01 0. -1.
        -11    1    4    4    0    0  0.92095832935E+02 -0.19479904103E+02 -0.14087921219E+03  0.16943453466E+03  0.00000000000E+00 0.  1.
         11    1    4    4    0    0  0.23018432411E+02 -0.48823154854E+02 -0.21843838410E+03  0.22500861390E+03  0.00000000000E+00 0. -1.
</event>
<event>
 8    1  0.6906553E-009  0.2320916E+03  0.7561462E-02  0.1125176E+00
         -2   -1    0    0    0  501 -0.00000000000E+00  0.00000000000E+00  0.13480133857E+03  0.13480133857E+03  0.00000000000E+00 0.  1.
          2   -1    0    0  501    0  0.00000000000E+00 -0.00000000000E+00 -0.46922740856E+03  0.46922740856E+03  0.00000000000E+00 0. -1.
         25    2    1    2    0    0  0.12922024447E+03  0.18471652822E+03 -0.15782237809E+03  0.30227931687E+03  0.12508722958E+03 0.  0.
         23    2    1    2    0    0 -0.12922024447E+03 -0.18471652822E+03 -0.17660369189E+03  0.30174943026E+03  0.95109343881E+02 0.  0.
          5    1    3    3  502    0  0.88778408416E+02  0.82805814174E+02 -0.14894524950E+03  0.19219929347E+03  0.41800000000E+01 0. -1.
         -5    1    3    3    0  502  0.40441836054E+02  0.10191071404E+03 -0.88771285913E+01  0.11008002340E+03  0.41800000000E+01 0. -1.
        -11    1    4    4    0    0 -0.78598834711E+02 -0.15626557596E+03 -0.16893153600E+03  0.24317600807E+03  0.00000000000E+00 0.  1.
         11    1    4    4    0    0 -0.50621409760E+02 -0.28450952260E+02 -0.76721558938E+01  0.58573422186E+02  0.00000000000E+00 0. -1.
</event>
