<event>
 7    1  0.1254976E-005  0.1414669E+03  0.7546771E-02  0.1228170E+00
          2   -1    0    0  501    0  0.00000000000E+00  0.00000000000E+00  0.39766788585E+03  0.39766788585E+03  0.00000000000E+00 0. -1.
         -2   -1    0    0    0  501 -0.00000000000E+00 -0.00000000000E+00 -0.37402352187E+02  0.37402352187E+02  0.00000000000E+00 0.  1.
         23    2    1    2    0    0  0.33219270469E+02 -0.57311616283E+02  0.18323887201E+03  0.20846192777E+03  0.74106341329E+02 0.  0.
          5    1    1    2  502    0  0.42072851692E+02 -0.36274145714E+01  0.37382782842E+02  0.56593687272E+02  0.47000000000E+01 0. -1.
         -5    1    1    2    0  502 -0.75292122161E+02  0.60939030854E+02  0.13964387882E+03  0.17001462299E+03  0.47000000000E+01 0. -1.
        -11    1    3    3    0    0  0.54856857554E+02 -0.26902061885E+02  0.99161388120E+02  0.11647307263E+03  0.00000000000E+00 0.  1.
         11    1    3    3    0    0 -0.21637587085E+02 -0.30409554398E+02  0.84077483886E+02  0.91988855141E+02  0.00000000000E+00 0. -1.
<mgrwt>
<rscale>  0 0.12951951E+03</rscale>
<asrwt>0</asrwt>
<pdfrwt beam="1">  1        2 0.61179672E-01 0.14146691E+03</pdfrwt>
<pdfrwt beam="2">  1       -2 0.57542083E-02 0.14146691E+03</pdfrwt>
<totfact> 0.12037849E+04</totfact>
</mgrwt>
</event>
<event>
 7    1  0.1254976E-005  0.3334992E+03  0.7546771E-02  0.1071408E+00
          1   -1    0    0  501    0  0.00000000000E+00  0.00000000000E+00  0.81739166697E+03  0.81739166697E+03  0.00000000000E+00 0. -1.
         -1   -1    0    0    0  501 -0.00000000000E+00 -0.00000000000E+00 -0.18938121693E+03  0.18938121693E+03  0.00000000000E+00 0.  1.
         23    2    1    2    0    0 -0.28270298419E+03  0.12521284596E+03  0.59152786187E+03  0.67128419046E+03  0.71540330764E+02 0.  0.
          5    1    1    2  502    0  0.25116159333E+02 -0.26751581931E+02  0.46600714954E+02  0.59499455710E+02  0.47000000000E+01 0.  1.
         -5    1    1    2    0  502  0.25758682486E+03 -0.98461264030E+02 -0.10118126777E+02  0.27598923773E+03  0.47000000000E+01 0.  1.
        -11    1    3    3    0    0 -0.72246815906E+02 -0.29501102300E+00  0.12870590447E+03  0.14759708427E+03  0.00000000000E+00 0. -1.
         11    1    3    3    0    0 -0.21045616828E+03  0.12550785698E+03  0.46282195740E+03  0.52368710618E+03  0.00000000000E+00 0.  1.
<mgrwt>
<rscale>  0 0.32938896E+03</rscale>
<asrwt>0</asrwt>
<pdfrwt beam="1">  1        1 0.12575256E+00 0.33349915E+03</pdfrwt>
<pdfrwt beam="2">  1       -1 0.29135572E-01 0.33349915E+03</pdfrwt>
<totfact> 0.23969073E+02</totfact>
</mgrwt>
</event>
<event>
 7    1  0.1254976E-005  0.2946343E+03  0.7546771E-02  0.1089612E+00
         -1   -1    0    0    0  501 -0.00000000000E+00  0.00000000000E+00  0.38183161354E+03  0.38183161354E+03  0.00000000000E+00 0.  1.
          1   -1    0    0  501    0  0.00000000000E+00 -0.00000000000E+00 -0.23613060900E+03  0.23613060900E+03  0.00000000000E+00 0. -1.
         23    2    1    2    0    0 -0.11312491160E+03 -0.24163342353E+03 -0.14969998511E+02  0.28236640318E+03  0.91228985507E+02 0.  0.
          5    1    1    2  502    0  0.64191177002E+02  0.12569097142E+03  0.13435411946E+02  0.14184966618E+03  0.47000000000E+01 0.  1.
         -5    1    1    2    0  502  0.48933734598E+02  0.11594245212E+03  0.14723559110E+03  0.19374615318E+03  0.47000000000E+01 0.  1.
        -11    1    3    3    0    0  0.14291974190E+02 -0.25376205703E+02  0.83105543977E+01  0.30286592026E+02  0.00000000000E+00 0.  1.
         11    1    3    3    0    0 -0.12741688579E+03 -0.21625721783E+03 -0.23280552908E+02  0.25207981115E+03  0.00000000000E+00 0. -1.
<mgrwt>
<rscale>  0 0.29141571E+03</rscale>
<asrwt>0</asrwt>
<pdfrwt beam="2">  1        1 0.36327786E-01 0.29463432E+03</pdfrwt>
<pdfrwt beam="1">  1       -1 0.58743325E-01 0.29463432E+03</pdfrwt>
<totfact> 0.36103387E+02</totfact>
</mgrwt>
</event>
<event>
 7    1  0.1254976E-005  0.1506961E+03  0.7546771E-02  0.1208698E+00
          1   -1    0    0  501    0  0.00000000000E+00  0.00000000000E+00  0.37734429768E+02  0.37734429768E+02  0.00000000000E+00 0. -1.
         -1   -1    0    0    0  501 -0.00000000000E+00 -0.00000000000E+00 -0.62187598142E+03  0.62187598142E+03  0.00000000000E+00 0.  1.
         23    2    1    2    0    0  0.72897692281E+01  0.84106738898E+02 -0.12347674599E+03  0.17492351365E+03  0.90689826142E+02 0.  0.
          5    1    1    2  502    0 -0.18336426624E+02 -0.11479166642E+03 -0.32911089859E+03  0.34906936960E+03  0.47000000000E+01 0.  1.
         -5    1    1    2    0  502  0.11046657396E+02  0.30684927524E+02 -0.13155390707E+03  0.13561752793E+03  0.47000000000E+01 0.  1.
        -11    1    3    3    0    0  0.89214043700E+01  0.10681726843E+02  0.13570084162E+02  0.19438053617E+02  0.00000000000E+00 0. -1.
         11    1    3    3    0    0 -0.16316351420E+01  0.73425012055E+02 -0.13704683015E+03  0.15548546003E+03  0.00000000000E+00 0.  1.
<mgrwt>
<rscale>  0 0.14349813E+03</rscale>
<asrwt>0</asrwt>
<pdfrwt beam="1">  1        1 0.58052979E-02 0.15069614E+03</pdfrwt>
<pdfrwt beam="2">  1       -1 0.95673211E-01 0.15069614E+03</pdfrwt>
<totfact> 0.14748246E+03</totfact>
</mgrwt>
</event>
<event>
 7    1  0.1254976E-005  0.1532040E+03  0.7546771E-02  0.1204996E+00
          2   -1    0    0  501    0  0.00000000000E+00  0.00000000000E+00  0.25442579442E+03  0.25442579442E+03  0.00000000000E+00 0. -1.
         -2   -1    0    0    0  501 -0.00000000000E+00 -0.00000000000E+00 -0.80965170543E+02  0.80965170543E+02  0.00000000000E+00 0.  1.
         23    2    1    2    0    0 -0.18180663630E+02 -0.86702551770E+02  0.11364879936E+03  0.17092539379E+03  0.91932429724E+02 0.  0.
          5    1    1    2  502    0  0.17093622422E+02  0.13512044359E+01  0.75487207015E+02  0.77552731118E+02  0.47000000000E+01 0.  1.
         -5    1    1    2    0  502  0.10870412083E+01  0.85351347334E+02 -0.15675382490E+02  0.86912840055E+02  0.47000000000E+01 0.  1.
        -11    1    3    3    0    0  0.10356085613E+01 -0.33532016590E+02  0.10917389417E+03  0.11421211753E+03  0.00000000000E+00 0. -1.
         11    1    3    3    0    0 -0.19216272191E+02 -0.53170535179E+02  0.44749051826E+01  0.56713276264E+02  0.00000000000E+00 0.  1.
<mgrwt>
<rscale>  0 0.14637746E+03</rscale>
<asrwt>0</asrwt>
<pdfrwt beam="1">  1        2 0.39142430E-01 0.15320401E+03</pdfrwt>
<pdfrwt beam="2">  1       -2 0.12456180E-01 0.15320401E+03</pdfrwt>
<totfact> 0.58544752E+03</totfact>
</mgrwt>
</event>
<event>
 7    1  0.1254976E-005  0.1400579E+03  0.7546771E-02  0.1223455E+00
          2   -1    0    0  501    0  0.00000000000E+00  0.00000000000E+00  0.47979474514E+03  0.47979474514E+03  0.00000000000E+00 0. -1.
         -2   -1    0    0    0  501 -0.00000000000E+00 -0.00000000000E+00 -0.33699096859E+02  0.33699096859E+02  0.00000000000E+00 0.  1.
         23    2    1    2    0    0  0.57978871396E+02  0.25107086484E+02  0.22494087847E+03  0.25171981731E+03  0.93661904204E+02 0.  0.
          5    1    1    2  502    0 -0.66083141295E+02  0.35664524621E+02  0.92946963807E+02  0.11958330971E+03  0.47000000000E+01 0. -1.
         -5    1    1    2    0  502  0.81042698993E+01 -0.60771611104E+02  0.12820780600E+03  0.14219071498E+03  0.47000000000E+01 0. -1.
        -11    1    3    3    0    0 -0.24748047865E+02 -0.40589920377E+01  0.44247812926E+02  0.50860694433E+02  0.00000000000E+00 0. -1.
         11    1    3    3    0    0  0.82726919261E+02  0.29166078521E+02  0.18069306555E+03  0.20085912288E+03  0.00000000000E+00 0.  1.
<mgrwt>
<rscale>  0 0.13273363E+03</rscale>
<asrwt>0</asrwt>
<pdfrwt beam="1">  1        2 0.73814571E-01 0.14005787E+03</pdfrwt>
<pdfrwt beam="2">  1       -2 0.51844768E-02 0.14005787E+03</pdfrwt>
<totfact> 0.11495744E+04</totfact>
</mgrwt>
</event>
<event>
 7    1  0.1254976E-005  0.1675070E+03  0.7546771E-02  0.1187096E+00
          3   -1    0    0  501    0  0.00000000000E+00  0.00000000000E+00  0.16806650303E+03  0.16806650303E+03  0.00000000000E+00 0. -1.
         -3   -1    0    0    0  501 -0.00000000000E+00 -0.00000000000E+00 -0.15626084147E+03  0.15626084147E+03  0.00000000000E+00 0.  1.
         23    2    1    2    0    0 -0.51342243094E+02  0.98984626667E+02  0.49336666824E+02  0.15266727210E+03  0.91865156811E+02 0.  0.
          5    1    1    2  502    0 -0.27573046005E+02 -0.17347711033E+02  0.25566741218E+02  0.41676902483E+02  0.47000000000E+01 0.  1.
         -5    1    1    2    0  502  0.78915289098E+02 -0.81636915634E+02 -0.63097746488E+02  0.12998316991E+03  0.47000000000E+01 0.  1.
        -11    1    3    3    0    0 -0.55003958570E+02  0.53321608810E+02 -0.10484162133E+02  0.77321064918E+02  0.00000000000E+00 0.  1.
         11    1    3    3    0    0  0.36617154760E+01  0.45663017857E+02  0.59820828957E+02  0.75346207185E+02  0.00000000000E+00 0. -1.
<mgrwt>
<rscale>  0 0.16142596E+03</rscale>
<asrwt>0</asrwt>
<pdfrwt beam="1">  1        3 0.25856385E-01 0.16750703E+03</pdfrwt>
<pdfrwt beam="2">  1       -3 0.24040130E-01 0.16750703E+03</pdfrwt>
<totfact> 0.54392318E+02</totfact>
</mgrwt>
</event>
<event>
 7    1  0.1254976E-005  0.1321391E+03  0.7546771E-02  0.1237124E+00
          1   -1    0    0  501    0  0.00000000000E+00  0.00000000000E+00  0.15758403724E+03  0.15758403724E+03  0.00000000000E+00 0. -1.
         -1   -1    0    0    0  501 -0.00000000000E+00 -0.00000000000E+00 -0.89434047563E+02  0.89434047563E+02  0.00000000000E+00 0.  1.
         23    2    1    2    0    0  0.15729396806E+02  0.39868682264E+02  0.51650346813E+02  0.11385286159E+03  0.91966243895E+02 0.  0.
          5    1    1    2  502    0 -0.25414500173E+02 -0.79059799411E+02  0.32752338951E+02  0.89393257065E+02  0.47000000000E+01 0.  1.
         -5    1    1    2    0  502  0.96851033671E+01  0.39191117147E+02 -0.16252696089E+02  0.43771966150E+02  0.47000000000E+01 0.  1.
        -11    1    3    3    0    0  0.42691176684E+02  0.10571940388E+02 -0.53701872712E+01  0.44307351552E+02  0.00000000000E+00 0.  1.
         11    1    3    3    0    0 -0.26961779878E+02  0.29296741876E+02  0.57020534084E+02  0.69545510035E+02  0.00000000000E+00 0. -1.
<mgrwt>
<rscale>  0 0.12369447E+03</rscale>
<asrwt>0</asrwt>
<pdfrwt beam="1">  1        1 0.24243698E-01 0.13213909E+03</pdfrwt>
<pdfrwt beam="2">  1       -1 0.13759084E-01 0.13213909E+03</pdfrwt>
<totfact> 0.69519077E+03</totfact>
</mgrwt>
</event>
<event>
 7    1  0.1254976E-005  0.1521399E+03  0.7546771E-02  0.1206381E+00
         -2   -1    0    0    0  501 -0.00000000000E+00  0.00000000000E+00  0.78802301688E+02  0.78802301688E+02  0.00000000000E+00 0.  1.
          2   -1    0    0  501    0  0.00000000000E+00 -0.00000000000E+00 -0.35944118915E+03  0.35944118915E+03  0.00000000000E+00 0. -1.
         23    2    1    2    0    0  0.67902054958E+02  0.53954092006E+02 -0.25401821056E+03  0.28379215068E+03  0.92146624352E+02 0.  0.
          5    1    1    2  502    0 -0.67315804696E+02 -0.83364269818E+02 -0.48282085367E+02  0.11761916855E+03  0.47000000000E+01 0. -1.
         -5    1    1    2    0  502 -0.58625026237E+00  0.29410177812E+02  0.21661408466E+02  0.36832171603E+02  0.47000000000E+01 0. -1.
        -11    1    3    3    0    0  0.71906827299E+02  0.16774112333E+02 -0.22394875345E+03  0.23580713905E+03  0.00000000000E+00 0. -1.
         11    1    3    3    0    0 -0.40047723407E+01  0.37179979674E+02 -0.30069457116E+02  0.47985011632E+02  0.00000000000E+00 0.  1.
<mgrwt>
<rscale>  0 0.14529162E+03</rscale>
<asrwt>0</asrwt>
<pdfrwt beam="2">  1        2 0.55298645E-01 0.15213992E+03</pdfrwt>
<pdfrwt beam="1">  1       -2 0.12123431E-01 0.15213992E+03</pdfrwt>
<totfact> 0.42304954E+03</totfact>
</mgrwt>
</event>
<event>
 7    1  0.1254976E-005  0.1327234E+03  0.7546771E-02  0.1236298E+00
         -2   -1    0    0    0  501 -0.00000000000E+00  0.00000000000E+00  0.10808055910E+03  0.10808055910E+03  0.00000000000E+00 0.  1.
          2   -1    0    0  501    0  0.00000000000E+00 -0.00000000000E+00 -0.14154455462E+03  0.14154455462E+03  0.00000000000E+00 0. -1.
         23    2    1    2    0    0 -0.13437144516E+02 -0.42625917240E+02 -0.54093814576E+02  0.11530802082E+03  0.91500126871E+02 0.  0.
          5    1    1    2  502    0 -0.10456423212E+01 -0.88830582970E+01 -0.46931204724E+02  0.48006562775E+02  0.47000000000E+01 0.  1.
         -5    1    1    2    0  502  0.14482786838E+02  0.51508975537E+02  0.67561023786E+02  0.86310530125E+02  0.47000000000E+01 0.  1.
        -11    1    3    3    0    0 -0.24772125904E+02 -0.74496547664E+01 -0.70333718816E+02  0.74939893118E+02  0.00000000000E+00 0. -1.
         11    1    3    3    0    0  0.11334981388E+02 -0.35176262474E+02  0.16239904240E+02  0.40368127705E+02  0.00000000000E+00 0.  1.
<mgrwt>
<rscale>  0 0.12421723E+03</rscale>
<asrwt>0</asrwt>
<pdfrwt beam="2">  1        2 0.21776085E-01 0.13272337E+03</pdfrwt>
<pdfrwt beam="1">  1       -2 0.16627778E-01 0.13272337E+03</pdfrwt>
<totfact> 0.68644415E+03</totfact>
</mgrwt>
</event>
<event>
 7    1  0.1254976E-005  0.1678571E+03  0.7546771E-02  0.1187224E+00
          3   -1    0    0  501    0  0.00000000000E+00  0.00000000000E+00  0.30817663555E+02  0.30817663555E+02  0.00000000000E+00 0. -1.
         -3   -1    0    0    0  501 -0.00000000000E+00 -0.00000000000E+00 -0.89121457381E+03  0.89121457381E+03  0.00000000000E+00 0.  1.
         23    2    1    2    0    0  0.88617772825E+02  0.68543255989E+02 -0.24121780434E+03  0.28050377889E+03  0.89135028149E+02 0.  0.
          5    1    1    2  502    0 -0.44600050417E+02 -0.58124285129E+02 -0.12280974714E+03  0.14308012095E+03  0.47000000000E+01 0. -1.
         -5    1    1    2    0  502 -0.44017722408E+02 -0.10418970860E+02 -0.49636935878E+03  0.49844833752E+03  0.47000000000E+01 0. -1.
        -11    1    3    3    0    0  0.74154879881E+01  0.31614986845E+02 -0.14784111490E+03  0.15136542574E+03  0.00000000000E+00 0.  1.
         11    1    3    3    0    0  0.81202284837E+02  0.36928269144E+02 -0.93376689436E+02  0.12913835315E+03  0.00000000000E+00 0. -1.
<mgrwt>
<rscale>  0 0.16131111E+03</rscale>
<asrwt>0</asrwt>
<pdfrwt beam="1">  1        3 0.47411791E-02 0.16785708E+03</pdfrwt>
<pdfrwt beam="2">  1       -3 0.13710993E+00 0.16785708E+03</pdfrwt>
<totfact> 0.25471923E+02</totfact>
</mgrwt>
</event>
<event>
 7    1  0.1254976E-005  0.1639143E+03  0.7546771E-02  0.1191953E+00
         -2   -1    0    0    0  501 -0.00000000000E+00  0.00000000000E+00  0.43635458456E+02  0.43635458456E+02  0.00000000000E+00 0.  1.
          2   -1    0    0  501    0  0.00000000000E+00 -0.00000000000E+00 -0.54380611658E+03  0.54380611658E+03  0.00000000000E+00 0. -1.
         23    2    1    2    0    0  0.10384933805E+03  0.21400500633E+02 -0.28580256136E+03  0.31758684190E+03  0.89082162217E+02 0.  0.
          5    1    1    2  502    0  0.19391042060E+02  0.50163195924E+01  0.63909233417E+00  0.20583352823E+02  0.47000000000E+01 0.  1.
         -5    1    1    2    0  502 -0.12324038011E+03 -0.26416820225E+02 -0.21500718910E+03  0.24927138032E+03  0.47000000000E+01 0.  1.
        -11    1    3    3    0    0  0.93814273330E+02 -0.19342183820E+02 -0.21323255250E+03  0.23375919105E+03  0.00000000000E+00 0.  1.
         11    1    3    3    0    0  0.10035064722E+02  0.40742684453E+02 -0.72570008859E+02  0.83827650846E+02  0.00000000000E+00 0. -1.
<mgrwt>
<rscale>  0 0.15714982E+03</rscale>
<asrwt>0</asrwt>
<pdfrwt beam="2">  1        2 0.83662483E-01 0.16391429E+03</pdfrwt>
<pdfrwt beam="1">  1       -2 0.67131472E-02 0.16391429E+03</pdfrwt>
<totfact> 0.68260512E+03</totfact>
</mgrwt>
</event>
<event>
 7    1  0.1254976E-005  0.1794330E+03  0.7546771E-02  0.1173441E+00
         -2   -1    0    0    0  501 -0.00000000000E+00  0.00000000000E+00  0.19395320415E+03  0.19395320415E+03  0.00000000000E+00 0.  1.
          2   -1    0    0  501    0  0.00000000000E+00 -0.00000000000E+00 -0.17552648010E+03  0.17552648010E+03  0.00000000000E+00 0. -1.
         23    2    1    2    0    0 -0.29870184132E+02 -0.12521698853E+03 -0.63909543102E+02  0.17205767298E+03  0.94593292662E+02 0.  0.
          5    1    1    2  502    0  0.64670494746E+02  0.12125173058E+03  0.85541851198E+02  0.16193749833E+03  0.47000000000E+01 0.  1.
         -5    1    1    2    0  502 -0.34800310613E+02  0.39652579484E+01 -0.32055840410E+01  0.35484512938E+02  0.47000000000E+01 0.  1.
        -11    1    3    3    0    0  0.25630169612E+02 -0.22066819454E+02  0.78109645749E+01  0.34711111805E+02  0.00000000000E+00 0.  1.
         11    1    3    3    0    0 -0.55500353745E+02 -0.10315016908E+03 -0.71720507677E+02  0.13734656118E+03  0.00000000000E+00 0. -1.
<mgrwt>
<rscale>  0 0.17429523E+03</rscale>
<asrwt>0</asrwt>
<pdfrwt beam="2">  1        2 0.27004074E-01 0.17943297E+03</pdfrwt>
<pdfrwt beam="1">  1       -2 0.29838955E-01 0.17943297E+03</pdfrwt>
<totfact> 0.20036385E+03</totfact>
</mgrwt>
</event>
<event>
 7    1  0.1254976E-005  0.1747639E+03  0.7546771E-02  0.1177479E+00
         -1   -1    0    0    0  501 -0.00000000000E+00  0.00000000000E+00  0.10675933288E+04  0.10675933288E+04  0.00000000000E+00 0.  1.
          1   -1    0    0  501    0  0.00000000000E+00 -0.00000000000E+00 -0.26905720058E+02  0.26905720058E+02  0.00000000000E+00 0. -1.
         23    2    1    2    0    0 -0.12256416687E+02  0.12152264484E+03  0.38889041990E+03  0.41967908695E+03  0.99883954515E+02 0.  0.
          5    1    1    2  502    0  0.15960843837E+02 -0.14649032448E+03  0.51754840379E+03  0.53813809006E+03  0.47000000000E+01 0.  1.
         -5    1    1    2    0  502 -0.37044271502E+01  0.24967679642E+02  0.13424878500E+03  0.13668187181E+03  0.47000000000E+01 0.  1.
        -11    1    3    3    0    0 -0.55881148471E+02  0.57375947034E+02  0.20550909612E+03  0.22056448182E+03  0.00000000000E+00 0.  1.
         11    1    3    3    0    0  0.43624731784E+02  0.64146697801E+02  0.18338132378E+03  0.19911460512E+03  0.00000000000E+00 0. -1.
<mgrwt>
<rscale>  0 0.17035396E+03</rscale>
<asrwt>0</asrwt>
<pdfrwt beam="2">  1        1 0.41393424E-02 0.17476386E+03</pdfrwt>
<pdfrwt beam="1">  1       -1 0.16424509E+00 0.17476386E+03</pdfrwt>
<totfact> 0.63824903E+02</totfact>
</mgrwt>
</event>
<event>
 7    1  0.1254976E-005  0.1532829E+03  0.7546771E-02  0.1205278E+00
         -2   -1    0    0    0  501 -0.00000000000E+00  0.00000000000E+00  0.26775989898E+02  0.26775989898E+02  0.00000000000E+00 0.  1.
          2   -1    0    0  501    0  0.00000000000E+00 -0.00000000000E+00 -0.80153701787E+03  0.80153701787E+03  0.00000000000E+00 0. -1.
         23    2    1    2    0    0 -0.18449729480E+02  0.86772348872E+02 -0.47535100619E+03  0.49194711260E+03  0.90462972882E+02 0.  0.
          5    1    1    2  502    0 -0.52487411362E+02 -0.49878390171E+02 -0.12718812983E+03  0.14642982117E+03  0.47000000000E+01 0.  1.
         -5    1    1    2    0  502  0.70937140842E+02 -0.36893958701E+02 -0.17222189195E+03  0.18993607400E+03  0.47000000000E+01 0.  1.
        -11    1    3    3    0    0 -0.48064582420E+02  0.34779451912E+02 -0.15320286544E+03  0.16428917292E+03  0.00000000000E+00 0.  1.
         11    1    3    3    0    0  0.29614852940E+02  0.51992896961E+02 -0.32214814075E+03  0.32765793969E+03  0.00000000000E+00 0. -1.
<mgrwt>
<rscale>  0 0.14615583E+03</rscale>
<asrwt>0</asrwt>
<pdfrwt beam="2">  1        2 0.12331339E+00 0.15328292E+03</pdfrwt>
<pdfrwt beam="1">  1       -2 0.41193831E-02 0.15328292E+03</pdfrwt>
<totfact> 0.90099186E+03</totfact>
</mgrwt>
</event>
<event>
 7    1  0.1254976E-005  0.1745047E+03  0.7546771E-02  0.1179573E+00
          3   -1    0    0  501    0  0.00000000000E+00  0.00000000000E+00  0.91377490439E+03  0.91377490439E+03  0.00000000000E+00 0. -1.
         -3   -1    0    0    0  501 -0.00000000000E+00 -0.00000000000E+00 -0.30410376184E+02  0.30410376184E+02  0.00000000000E+00 0.  1.
         23    2    1    2    0    0 -0.91476666164E+01  0.12142415168E+03  0.51219479848E+03  0.53404035825E+03  0.89599599535E+02 0.  0.
          5    1    1    2  502    0 -0.46483385363E+02 -0.17595944072E+02  0.16789361854E+03  0.17515901207E+03  0.47000000000E+01 0. -1.
         -5    1    1    2    0  502  0.55631051979E+02 -0.10382820761E+03  0.20327611120E+03  0.23498591026E+03  0.47000000000E+01 0. -1.
        -11    1    3    3    0    0  0.35520572645E+02  0.62457793985E+02  0.32305313601E+03  0.33094714955E+03  0.00000000000E+00 0.  1.
         11    1    3    3    0    0 -0.44668239262E+02  0.58966357693E+02  0.18914166247E+03  0.20309320870E+03  0.00000000000E+00 0. -1.
<mgrwt>
<rscale>  0 0.16835631E+03</rscale>
<asrwt>0</asrwt>
<pdfrwt beam="1">  1        3 0.14058073E+00 0.17450470E+03</pdfrwt>
<pdfrwt beam="2">  1       -3 0.46785201E-02 0.17450470E+03</pdfrwt>
<totfact> 0.24658553E+02</totfact>
</mgrwt>
</event>
<event>
 7    1  0.1254976E-005  0.1476829E+03  0.7546771E-02  0.1213613E+00
          2   -1    0    0  501    0  0.00000000000E+00  0.00000000000E+00  0.21870082786E+03  0.21870082786E+03  0.00000000000E+00 0. -1.
         -2   -1    0    0    0  501 -0.00000000000E+00 -0.00000000000E+00 -0.82048219446E+02  0.82048219446E+02  0.00000000000E+00 0.  1.
         23    2    1    2    0    0 -0.73651347483E+02 -0.27583297736E+02  0.77638427291E+02  0.14171159697E+03  0.88707902831E+02 0.  0.
          5    1    1    2  502    0  0.23643551347E+02 -0.48886846691E+02  0.10605932631E+02  0.55529425593E+02  0.47000000000E+01 0. -1.
         -5    1    1    2    0  502  0.50007796136E+02  0.76470144427E+02  0.48408248489E+02  0.10350802474E+03  0.47000000000E+01 0. -1.
        -11    1    3    3    0    0 -0.83837073650E+01 -0.11318010047E+02  0.72936047995E+02  0.74283584982E+02  0.00000000000E+00 0. -1.
         11    1    3    3    0    0 -0.65267640118E+02 -0.16265287689E+02  0.47023792959E+01  0.67428011992E+02  0.00000000000E+00 0.  1.
<mgrwt>
<rscale>  0 0.13978945E+03</rscale>
<asrwt>0</asrwt>
<pdfrwt beam="1">  1        2 0.33646281E-01 0.14768289E+03</pdfrwt>
<pdfrwt beam="2">  1       -2 0.12622803E-01 0.14768289E+03</pdfrwt>
<totfact> 0.67247973E+03</totfact>
</mgrwt>
</event>
<event>
 7    1  0.1254976E-005  0.1321634E+03  0.7546771E-02  0.1239028E+00
          1   -1    0    0  501    0  0.00000000000E+00  0.00000000000E+00  0.54469874245E+03  0.54469874245E+03  0.00000000000E+00 0. -1.
         -1   -1    0    0    0  501 -0.00000000000E+00 -0.00000000000E+00 -0.24486871718E+02  0.24486871718E+02  0.00000000000E+00 0.  1.
         23    2    1    2    0    0  0.10040295415E+02  0.41736972471E+02  0.19189645432E+03  0.21526730924E+03  0.87595564061E+02 0.  0.
          5    1    1    2  502    0  0.34401850035E+02 -0.70635315912E+02  0.20613356042E+03  0.22064897432E+03  0.47000000000E+01 0.  1.
         -5    1    1    2    0  502 -0.44442145450E+02  0.28898343441E+02  0.12218185600E+03  0.13326933061E+03  0.47000000000E+01 0.  1.
        -11    1    3    3    0    0 -0.26709229624E+02  0.51795107768E+02  0.99282821196E+02  0.11512252047E+03  0.00000000000E+00 0.  1.
         11    1    3    3    0    0  0.36749525038E+02 -0.10058135297E+02  0.92613633124E+02  0.10014478876E+03  0.00000000000E+00 0. -1.
<mgrwt>
<rscale>  0 0.12250076E+03</rscale>
<asrwt>0</asrwt>
<pdfrwt beam="1">  1        1 0.83799798E-01 0.13216336E+03</pdfrwt>
<pdfrwt beam="2">  1       -1 0.37672114E-02 0.13216336E+03</pdfrwt>
<totfact> 0.10288899E+04</totfact>
</mgrwt>
</event>
<event>
 7    1  0.1254976E-005  0.1355744E+03  0.7546771E-02  0.1231910E+00
          1   -1    0    0  501    0  0.00000000000E+00  0.00000000000E+00  0.44185825830E+03  0.44185825830E+03  0.00000000000E+00 0. -1.
         -1   -1    0    0    0  501 -0.00000000000E+00 -0.00000000000E+00 -0.36449317433E+02  0.36449317433E+02  0.00000000000E+00 0.  1.
         23    2    1    2    0    0  0.26687561925E+02  0.45198160767E+02  0.25618879523E+03  0.27669638873E+03  0.90405160461E+02 0.  0.
          5    1    1    2  502    0 -0.48812094164E+02 -0.37825244640E+02  0.16282567615E+03  0.17420579922E+03  0.47000000000E+01 0.  1.
         -5    1    1    2    0  502  0.22124532239E+02 -0.73729161272E+01 -0.13605530510E+02  0.27405387782E+02  0.47000000000E+01 0.  1.
        -11    1    3    3    0    0  0.11015809673E+02 -0.26251738508E+02  0.10423342545E+03  0.10805141748E+03  0.00000000000E+00 0. -1.
         11    1    3    3    0    0  0.15671752252E+02  0.71449899275E+02  0.15195536977E+03  0.16864497125E+03  0.00000000000E+00 0.  1.
<mgrwt>
<rscale>  0 0.12704332E+03</rscale>
<asrwt>0</asrwt>
<pdfrwt beam="1">  1        1 0.67978190E-01 0.13557440E+03</pdfrwt>
<pdfrwt beam="2">  1       -1 0.56075876E-02 0.13557440E+03</pdfrwt>
<totfact> 0.75242867E+03</totfact>
</mgrwt>
</event>
<event>
 7    1  0.1254976E-005  0.1502352E+03  0.7546771E-02  0.1209134E+00
          3   -1    0    0  501    0  0.00000000000E+00  0.00000000000E+00  0.13139088807E+03  0.13139088807E+03  0.00000000000E+00 0. -1.
         -3   -1    0    0    0  501 -0.00000000000E+00 -0.00000000000E+00 -0.15626995970E+03  0.15626995970E+03  0.00000000000E+00 0.  1.
         23    2    1    2    0    0  0.74835567591E+01  0.82998273054E+02  0.30428979954E+02  0.12756842605E+03  0.91668225416E+02 0.  0.
          5    1    1    2  502    0  0.37898560092E+02 -0.95552937116E+02 -0.38855188648E+02  0.10999309221E+03  0.47000000000E+01 0.  1.
         -5    1    1    2    0  502 -0.45382116851E+02  0.12554664062E+02 -0.16452862927E+02  0.50099329517E+02  0.47000000000E+01 0.  1.
        -11    1    3    3    0    0  0.41016577564E+02  0.80357157079E+02  0.23397503132E+02  0.93204482090E+02  0.00000000000E+00 0. -1.
         11    1    3    3    0    0 -0.33533020805E+02  0.26411159750E+01  0.70314768216E+01  0.34363943955E+02  0.00000000000E+00 0.  1.
<mgrwt>
<rscale>  0 0.14316418E+03</rscale>
<asrwt>0</asrwt>
<pdfrwt beam="1">  1        3 0.20213983E-01 0.15023516E+03</pdfrwt>
<pdfrwt beam="2">  1       -3 0.24041532E-01 0.15023516E+03</pdfrwt>
<totfact> 0.83298533E+02</totfact>
</mgrwt>
</event>
<event>
 7    1  0.1254976E-005  0.1329501E+03  0.7546771E-02  0.1235356E+00
          2   -1    0    0  501    0  0.00000000000E+00  0.00000000000E+00  0.35205413127E+02  0.35205413127E+02  0.00000000000E+00 0. -1.
         -2   -1    0    0    0  501 -0.00000000000E+00 -0.00000000000E+00 -0.39979071757E+03  0.39979071757E+03  0.00000000000E+00 0.  1.
         23    2    1    2    0    0  0.36007584176E+02 -0.27467923654E+02 -0.17981213551E+03  0.20736299886E+03  0.92822283256E+02 0.  0.
          5    1    1    2  502    0 -0.32232256200E+02 -0.16067096589E+02 -0.17976597776E+03  0.18339838247E+03  0.47000000000E+01 0.  1.
         -5    1    1    2    0  502 -0.37753279754E+01  0.43535020243E+02 -0.50071911755E+01  0.44234749376E+02  0.47000000000E+01 0.  1.
        -11    1    3    3    0    0  0.39887498644E+02 -0.52395738742E+02 -0.76142019461E+02  0.10066743820E+03  0.00000000000E+00 0. -1.
         11    1    3    3    0    0 -0.38799144682E+01  0.24927815087E+02 -0.10367011605E+03  0.10669556065E+03  0.00000000000E+00 0.  1.
<mgrwt>
<rscale>  0 0.12481643E+03</rscale>
<asrwt>0</asrwt>
<pdfrwt beam="1">  1        2 0.54162171E-02 0.13295006E+03</pdfrwt>
<pdfrwt beam="2">  1       -2 0.61506267E-01 0.13295006E+03</pdfrwt>
<totfact> 0.33832472E+03</totfact>
</mgrwt>
</event>
<event>
 7    1  0.1254976E-005  0.2179584E+03  0.7546771E-02  0.1139127E+00
          1   -1    0    0  501    0  0.00000000000E+00  0.00000000000E+00  0.12194003901E+03  0.12194003901E+03  0.00000000000E+00 0. -1.
         -1   -1    0    0    0  501 -0.00000000000E+00 -0.00000000000E+00 -0.35961313284E+03  0.35961313284E+03  0.00000000000E+00 0.  1.
         23    2    1    2    0    0 -0.55944006920E+02  0.16959712305E+03 -0.13488190643E+03  0.24057210617E+03  0.88254708247E+02 0.  0.
          5    1    1    2  502    0  0.22821237758E+02 -0.16657175401E+03 -0.44954965594E+02  0.17409766529E+03  0.47000000000E+01 0.  1.
         -5    1    1    2    0  502  0.33122769162E+02 -0.30253690353E+01 -0.57836221805E+02  0.66883400388E+02  0.47000000000E+01 0.  1.
        -11    1    3    3    0    0 -0.53906164658E+02  0.55715357270E+02 -0.88331693314E+02  0.11752686360E+03  0.00000000000E+00 0.  1.
         11    1    3    3    0    0 -0.20378422618E+01  0.11388176578E+03 -0.46550213120E+02  0.12304524257E+03  0.00000000000E+00 0. -1.
<mgrwt>
<rscale>  0 0.21311012E+03</rscale>
<asrwt>0</asrwt>
<pdfrwt beam="1">  1        1 0.18760006E-01 0.21795836E+03</pdfrwt>
<pdfrwt beam="2">  1       -1 0.55325097E-01 0.21795836E+03</pdfrwt>
<totfact> 0.94053631E+02</totfact>
</mgrwt>
</event>
<event>
 7    1  0.1254976E-005  0.1282386E+03  0.7546771E-02  0.1245727E+00
         -1   -1    0    0    0  501 -0.00000000000E+00  0.00000000000E+00  0.62250998115E+02  0.62250998115E+02  0.00000000000E+00 0.  1.
          1   -1    0    0  501    0  0.00000000000E+00 -0.00000000000E+00 -0.25830025127E+03  0.25830025127E+03  0.00000000000E+00 0. -1.
         23    2    1    2    0    0  0.23393541352E+02  0.16539723468E+02 -0.16353879388E+03  0.18825586434E+03  0.88738453483E+02 0.  0.
          5    1    1    2  502    0 -0.69988270428E+02 -0.23519958218E+02  0.14978344716E+01  0.73999188781E+02  0.47000000000E+01 0. -1.
         -5    1    1    2    0  502  0.46594729076E+02  0.69802347501E+01 -0.34008293744E+02  0.58296196258E+02  0.47000000000E+01 0. -1.
        -11    1    3    3    0    0  0.34848233591E+01 -0.32838504360E+02 -0.30474072819E+02  0.44935292106E+02  0.00000000000E+00 0.  1.
         11    1    3    3    0    0  0.19908717993E+02  0.49378227828E+02 -0.13306472106E+03  0.14332057224E+03  0.00000000000E+00 0. -1.
<mgrwt>
<rscale>  0 0.11841995E+03</rscale>
<asrwt>0</asrwt>
<pdfrwt beam="2">  1        1 0.39738499E-01 0.12823860E+03</pdfrwt>
<pdfrwt beam="1">  1       -1 0.95770769E-02 0.12823860E+03</pdfrwt>
<totfact> 0.65536779E+03</totfact>
</mgrwt>
</event>
<event>
 7    1  0.1331989E-005  0.3391610E+03  0.7546771E-02  0.1068314E+00
          2   -1    0    0  501    0  0.00000000000E+00  0.00000000000E+00  0.24183819923E+04  0.24183819923E+04  0.00000000000E+00 0. -1.
         -2   -1    0    0    0  501 -0.00000000000E+00 -0.00000000000E+00 -0.50042811415E+02  0.50042811415E+02  0.00000000000E+00 0.  1.
         23    2    1    2    0    0 -0.16895661023E+03  0.26618965264E+03  0.81943020632E+03  0.88281792167E+03  0.92186509281E+02 0.  0.
          5    1    1    2  502    0  0.81515244811E+02 -0.20586483675E+03  0.12199304594E+04  0.12398699456E+04  0.47000000000E+01 0.  1.
         -5    1    1    2    0  502  0.87441365422E+02 -0.60324815890E+02  0.32897851519E+03  0.34573693649E+03  0.47000000000E+01 0.  1.
        -11    1    3    3    0    0 -0.71638000779E+02  0.11824541297E+03  0.24045662528E+03  0.27736865267E+03  0.00000000000E+00 0.  1.
         11    1    3    3    0    0 -0.97318609454E+02  0.14794423967E+03  0.57897358104E+03  0.60544926900E+03  0.00000000000E+00 0. -1.
<mgrwt>
<rscale>  0 0.33645959E+03</rscale>
<asrwt>0</asrwt>
<pdfrwt beam="1">  1        2 0.37205868E+00 0.33916098E+03</pdfrwt>
<pdfrwt beam="2">  1       -2 0.76988960E-02 0.33916098E+03</pdfrwt>
<totfact> 0.44086813E+02</totfact>
</mgrwt>
</event>
<event>
 7    1  0.1254976E-005  0.1494766E+03  0.7546771E-02  0.1210368E+00
          2   -1    0    0  501    0  0.00000000000E+00  0.00000000000E+00  0.30411559841E+02  0.30411559841E+02  0.00000000000E+00 0. -1.
         -2   -1    0    0    0  501 -0.00000000000E+00 -0.00000000000E+00 -0.79710571577E+03  0.79710571577E+03  0.00000000000E+00 0.  1.
         23    2    1    2    0    0  0.60289406601E+02 -0.55546417657E+02 -0.15363610798E+03  0.19649950418E+03  0.91037269328E+02 0.  0.
          5    1    1    2  502    0 -0.73960919764E+02  0.80188064412E+02 -0.56201203444E+03  0.57252070721E+03  0.47000000000E+01 0.  1.
         -5    1    1    2    0  502  0.13671513163E+02 -0.24641646754E+02 -0.51046013507E+02  0.58497064216E+02  0.47000000000E+01 0.  1.
        -11    1    3    3    0    0  0.71423873058E+02 -0.45738861251E+02 -0.65603407739E+02  0.10722509118E+03  0.00000000000E+00 0. -1.
         11    1    3    3    0    0 -0.11134466457E+02 -0.98075564066E+01 -0.88032700241E+02  0.89274413007E+02  0.00000000000E+00 0.  1.
<mgrwt>
<rscale>  0 0.14222315E+03</rscale>
<asrwt>0</asrwt>
<pdfrwt beam="1">  1        2 0.46787014E-02 0.14947661E+03</pdfrwt>
<pdfrwt beam="2">  1       -2 0.12263165E+00 0.14947661E+03</pdfrwt>
<totfact> 0.88292476E+02</totfact>
</mgrwt>
</event>
<event>
 7    1  0.1254976E-005  0.1614366E+03  0.7546771E-02  0.1199551E+00
          2   -1    0    0  501    0  0.00000000000E+00  0.00000000000E+00  0.27790357178E+03  0.27790357178E+03  0.00000000000E+00 0. -1.
         -2   -1    0    0    0  501 -0.00000000000E+00 -0.00000000000E+00 -0.92615209553E+02  0.92615209553E+02  0.00000000000E+00 0.  1.
         23    2    1    2    0    0 -0.80194902258E+02  0.63301767054E+02  0.16812406601E+03  0.20817225099E+03  0.68056215366E+02 0.  0.
          5    1    1    2  502    0  0.72178927358E+02 -0.87489814133E+02  0.46970618052E+02  0.12285191937E+03  0.47000000000E+01 0. -1.
         -5    1    1    2    0  502  0.80159748999E+01  0.24188047079E+02 -0.29806321834E+02  0.39494610979E+02  0.47000000000E+01 0. -1.
        -11    1    3    3    0    0 -0.72980706251E+02  0.17892654830E+02  0.87298175995E+02  0.11518377539E+03  0.00000000000E+00 0.  1.
         11    1    3    3    0    0 -0.72141960068E+01  0.45409112224E+02  0.80825890013E+02  0.92988475594E+02  0.00000000000E+00 0. -1.
<mgrwt>
<rscale>  0 0.15075289E+03</rscale>
<asrwt>0</asrwt>
<pdfrwt beam="1">  1        2 0.42754395E-01 0.16143662E+03</pdfrwt>
<pdfrwt beam="2">  1       -2 0.14248494E-01 0.16143662E+03</pdfrwt>
<totfact> 0.42987616E+03</totfact>
</mgrwt>
</event>
<event>
 7    1  0.1254976E-005  0.3688508E+03  0.7546771E-02  0.1055133E+00
         -2   -1    0    0    0  501 -0.00000000000E+00  0.00000000000E+00  0.12767099655E+03  0.12767099655E+03  0.00000000000E+00 0.  1.
          2   -1    0    0  501    0  0.00000000000E+00 -0.00000000000E+00 -0.26640925698E+03  0.26640925698E+03  0.00000000000E+00 0. -1.
         23    2    1    2    0    0  0.12291692994E+02  0.63940988656E+00 -0.94580801425E+02  0.12449974856E+03  0.80019777746E+02 0.  0.
          5    1    1    2  502    0  0.36923568024E+02 -0.13726539949E+02 -0.14832337143E+03  0.15353722769E+03  0.47000000000E+01 0. -1.
         -5    1    1    2    0  502 -0.49215261017E+02  0.13087130062E+02  0.10416591243E+03  0.11604327728E+03  0.47000000000E+01 0.  1.
        -11    1    3    3    0    0 -0.33306198227E+02  0.18312465097E+01 -0.26745185998E+02  0.42754663818E+02  0.00000000000E+00 0. -1.
         11    1    3    3    0    0  0.45597891221E+02 -0.11918366232E+01 -0.67835615427E+02  0.81745084737E+02  0.00000000000E+00 0.  1.
<mgrwt>
<rscale>  0 0.36885084E+03</rscale>
<asrwt>0</asrwt>
<pdfrwt beam="2">  1        2 0.40986039E-01 0.36885084E+03</pdfrwt>
<pdfrwt beam="1">  1       -2 0.19641692E-01 0.36885084E+03</pdfrwt>
<totfact> 0.27119437E+03</totfact>
</mgrwt>
</event>
<event>
 7    1  0.1254976E-005  0.1323631E+03  0.7546771E-02  0.1234842E+00
         -2   -1    0    0    0  501 -0.00000000000E+00  0.00000000000E+00  0.14256848136E+03  0.14256848136E+03  0.00000000000E+00 0. -1.
          2   -1    0    0  501    0  0.00000000000E+00 -0.00000000000E+00 -0.10029232650E+03  0.10029232650E+03  0.00000000000E+00 0.  1.
         23    2    1    2    0    0  0.11046380879E+02 -0.42100845370E+02  0.76666874717E+01  0.10604774424E+03  0.96399389268E+02 0.  0.
          5    1    1    2  502    0  0.40081244734E+02 -0.18599608330E+02 -0.10144907909E+02  0.45579170308E+02  0.47000000000E+01 0. -1.
         -5    1    1    2    0  502 -0.51127625613E+02  0.60700453700E+02  0.44754375296E+02  0.91233893309E+02  0.47000000000E+01 0. -1.
        -11    1    3    3    0    0 -0.32258310540E+02 -0.13926034803E+02 -0.26586183978E+02  0.44060846823E+02  0.00000000000E+00 0.  1.
         11    1    3    3    0    0  0.43304691419E+02 -0.28174810567E+02  0.34252871450E+02  0.61986897421E+02  0.00000000000E+00 0. -1.
<mgrwt>
<rscale>  0 0.12514577E+03</rscale>
<asrwt>0</asrwt>
<pdfrwt beam="2">  1        2 0.15429589E-01 0.13236313E+03</pdfrwt>
<pdfrwt beam="1">  1       -2 0.21933613E-01 0.13236313E+03</pdfrwt>
<totfact> 0.63850640E+03</totfact>
</mgrwt>
</event>
<event>
 7    1  0.1254976E-005  0.2010003E+03  0.7546771E-02  0.1152838E+00
         -2   -1    0    0    0  501 -0.00000000000E+00  0.00000000000E+00  0.29322989685E+03  0.29322989685E+03  0.00000000000E+00 0.  1.
          2   -1    0    0  501    0  0.00000000000E+00 -0.00000000000E+00 -0.17362584391E+03  0.17362584391E+03  0.00000000000E+00 0. -1.
         23    2    1    2    0    0 -0.87109625047E+02 -0.13111073726E+03 -0.64642468725E+02  0.19418763237E+03  0.93552528560E+02 0.  0.
          5    1    1    2  502    0  0.49070642444E+02  0.14356390099E+03  0.10756017067E+03  0.18603709827E+03  0.47000000000E+01 0.  1.
         -5    1    1    2    0  502  0.38038982603E+02 -0.12453163730E+02  0.76686351000E+02  0.86631010118E+02  0.47000000000E+01 0.  1.
        -11    1    3    3    0    0 -0.41136015799E+02 -0.12847873732E+02  0.13512633921E+02  0.45164487495E+02  0.00000000000E+00 0.  1.
         11    1    3    3    0    0 -0.45973609248E+02 -0.11826286353E+03 -0.78155102646E+02  0.14902314487E+03  0.00000000000E+00 0. -1.
<mgrwt>
<rscale>  0 0.19637085E+03</rscale>
<asrwt>0</asrwt>
<pdfrwt beam="2">  1        2 0.26711668E-01 0.20100029E+03</pdfrwt>
<pdfrwt beam="1">  1       -2 0.45112292E-01 0.20100029E+03</pdfrwt>
<totfact> 0.93676871E+02</totfact>
</mgrwt>
</event>
<event>
 7    1  0.1254976E-005  0.1271716E+03  0.7546771E-02  0.1243399E+00
          2   -1    0    0  501    0  0.00000000000E+00  0.00000000000E+00  0.25561489715E+03  0.25561489715E+03  0.00000000000E+00 0. -1.
         -2   -1    0    0    0  501 -0.00000000000E+00 -0.00000000000E+00 -0.54587748813E+02  0.54587748813E+02  0.00000000000E+00 0.  1.
         23    2    1    2    0    0 -0.10743036721E+02  0.20804314301E+02  0.13129609413E+03  0.16516808045E+03  0.97435097032E+02 0.  0.
          5    1    1    2  502    0 -0.15879446522E+02 -0.67553117861E+02  0.56047396424E+02  0.89325143160E+02  0.47000000000E+01 0. -1.
         -5    1    1    2    0  502  0.26622483243E+02  0.46748803560E+02  0.13683657778E+02  0.55709422349E+02  0.47000000000E+01 0. -1.
        -11    1    3    3    0    0  0.38692787150E+02  0.59839907521E+01  0.92988844293E+02  0.10089531746E+03  0.00000000000E+00 0. -1.
         11    1    3    3    0    0 -0.49435823871E+02  0.14820323549E+02  0.38307249840E+02  0.64272762989E+02  0.00000000000E+00 0.  1.
<mgrwt>
<rscale>  0 0.11981718E+03</rscale>
<asrwt>0</asrwt>
<pdfrwt beam="1">  1        2 0.39325368E-01 0.12717156E+03</pdfrwt>
<pdfrwt beam="2">  1       -2 0.83981154E-02 0.12717156E+03</pdfrwt>
<totfact> 0.10702652E+04</totfact>
</mgrwt>
</event>
<event>
 7    1  0.1254976E-005  0.2270429E+03  0.7546771E-02  0.1128739E+00
          1   -1    0    0  501    0  0.00000000000E+00  0.00000000000E+00  0.86089914739E+03  0.86089914739E+03  0.00000000000E+00 0. -1.
         -1   -1    0    0    0  501 -0.00000000000E+00 -0.00000000000E+00 -0.14969368855E+02  0.14969368855E+02  0.00000000000E+00 0.  1.
         23    2    1    2    0    0  0.27558415045E+02 -0.23906470162E+02  0.42962101441E+03  0.43967370498E+03  0.86068375606E+02 0.  0.
          5    1    1    2  502    0 -0.76492439128E+02  0.19661372086E+02  0.22049979485E+03  0.23426462030E+03  0.47000000000E+01 0.  1.
         -5    1    1    2    0  502  0.48934024083E+02  0.42450980755E+01  0.19580896928E+03  0.20193019096E+03  0.47000000000E+01 0.  1.
        -11    1    3    3    0    0  0.54044105864E+02  0.46474264050E+01  0.23274205127E+03  0.23897955223E+03  0.00000000000E+00 0.  1.
         11    1    3    3    0    0 -0.26485690819E+02 -0.28553896567E+02  0.19687896313E+03  0.20069415276E+03  0.00000000000E+00 0. -1.
<mgrwt>
<rscale>  0 0.22704288E+03</rscale>
<asrwt>0</asrwt>
<pdfrwt beam="1">  1        1 0.13244598E+00 0.22704288E+03</pdfrwt>
<pdfrwt beam="2">  1       -1 0.23029805E-02 0.22704288E+03</pdfrwt>
<totfact> 0.11312781E+04</totfact>
</mgrwt>
</event>
<event>
 7    1  0.1254976E-005  0.1424318E+03  0.7546771E-02  0.1220580E+00
         -1   -1    0    0    0  501 -0.00000000000E+00  0.00000000000E+00  0.33641081741E+03  0.33641081741E+03  0.00000000000E+00 0.  1.
          1   -1    0    0  501    0  0.00000000000E+00 -0.00000000000E+00 -0.66799872668E+02  0.66799872668E+02  0.00000000000E+00 0. -1.
         23    2    1    2    0    0 -0.54874240139E+01 -0.68055949705E+02  0.20005059017E+02  0.11582605362E+03  0.91398841343E+02 0.  0.
          5    1    1    2  502    0  0.49209432022E+02  0.65038934184E+02  0.88861522032E+02  0.12070663303E+03  0.47000000000E+01 0.  1.
         -5    1    1    2    0  502 -0.43722008008E+02  0.30170155210E+01  0.16074436370E+03  0.16667800343E+03  0.47000000000E+01 0.  1.
        -11    1    3    3    0    0 -0.29789243473E+02 -0.21447412630E+02 -0.26795768152E+02  0.45446713039E+02  0.00000000000E+00 0. -1.
         11    1    3    3    0    0  0.24301819459E+02 -0.46608537075E+02  0.46800827169E+02  0.70379340583E+02  0.00000000000E+00 0.  1.
<mgrwt>
<rscale>  0 0.13474505E+03</rscale>
<asrwt>0</asrwt>
<pdfrwt beam="2">  1        1 0.10276904E-01 0.14243185E+03</pdfrwt>
<pdfrwt beam="1">  1       -1 0.51755509E-01 0.14243185E+03</pdfrwt>
<totfact> 0.23140254E+03</totfact>
</mgrwt>
</event>
<event>
 7    1  0.1254976E-005  0.1370959E+03  0.7546771E-02  0.1233384E+00
         -1   -1    0    0    0  501 -0.00000000000E+00  0.00000000000E+00  0.33037858119E+03  0.33037858119E+03  0.00000000000E+00 0.  1.
          1   -1    0    0  501    0  0.00000000000E+00 -0.00000000000E+00 -0.12519332839E+03  0.12519332839E+03  0.00000000000E+00 0. -1.
         23    2    1    2    0    0 -0.26980339690E+02 -0.78690219119E-01 -0.88093040134E+02  0.13183211598E+03  0.94294104603E+02 0.  0.
          5    1    1    2  502    0 -0.49274460860E+01  0.64076441186E+02  0.11953977760E+03  0.13580102529E+03  0.47000000000E+01 0. -1.
         -5    1    1    2    0  502  0.31907785776E+02 -0.63997750967E+02  0.17373851533E+03  0.18793876831E+03  0.47000000000E+01 0.  1.
        -11    1    3    3    0    0  0.29916403713E+02  0.28273758362E+01 -0.40819054887E+01  0.30325685773E+02  0.00000000000E+00 0.  1.
         11    1    3    3    0    0 -0.56896743403E+02 -0.29060660553E+01 -0.84011134645E+02  0.10150643021E+03  0.00000000000E+00 0. -1.
<mgrwt>
<rscale>  0 0.12608444E+03</rscale>
<asrwt>0</asrwt>
<pdfrwt beam="2">  1        1 0.19260512E-01 0.13709594E+03</pdfrwt>
<pdfrwt beam="1">  1       -1 0.50827474E-01 0.13709594E+03</pdfrwt>
<totfact> 0.10555300E+03</totfact>
</mgrwt>
</event>
<event>
 7    1  0.1254976E-005  0.1319520E+03  0.7546771E-02  0.1238245E+00
          2   -1    0    0  501    0  0.00000000000E+00  0.00000000000E+00  0.28103387658E+03  0.28103387658E+03  0.00000000000E+00 0. -1.
         -2   -1    0    0    0  501 -0.00000000000E+00 -0.00000000000E+00 -0.47917697713E+02  0.47917697713E+02  0.00000000000E+00 0.  1.
         23    2    1    2    0    0 -0.36890109474E+02  0.20636347769E+02  0.89185798513E+02  0.13368948186E+03  0.90177779285E+02 0.  0.
          5    1    1    2  502    0  0.44391782463E+02 -0.35708948820E+02  0.16098945397E+03  0.17083750661E+03  0.47000000000E+01 0. -1.
         -5    1    1    2    0  502 -0.75016729891E+01  0.15072601051E+02 -0.17059073613E+02  0.24424585823E+02  0.47000000000E+01 0. -1.
        -11    1    3    3    0    0 -0.31577153035E+02  0.48346497492E+02  0.23765884610E+02  0.62444516851E+02  0.00000000000E+00 0.  1.
         11    1    3    3    0    0 -0.53129564397E+01 -0.27710149723E+02  0.65419913903E+02  0.71244965007E+02  0.00000000000E+00 0. -1.
<mgrwt>
<rscale>  0 0.12298983E+03</rscale>
<asrwt>0</asrwt>
<pdfrwt beam="1">  1        2 0.43235980E-01 0.13195200E+03</pdfrwt>
<pdfrwt beam="2">  1       -2 0.73719537E-02 0.13195200E+03</pdfrwt>
<totfact> 0.11867693E+04</totfact>
</mgrwt>
</event>
<event>
 7    1  0.1254976E-005  0.1662659E+03  0.7546771E-02  0.1188469E+00
          2   -1    0    0  501    0  0.00000000000E+00  0.00000000000E+00  0.80101462196E+03  0.80101462196E+03  0.00000000000E+00 0. -1.
         -2   -1    0    0    0  501 -0.00000000000E+00 -0.00000000000E+00 -0.29922930796E+02  0.29922930796E+02  0.00000000000E+00 0.  1.
         23    2    1    2    0    0 -0.43642847807E+01  0.10954277160E+03  0.36557881487E+03  0.39266248015E+03  0.92289152385E+02 0.  0.
          5    1    1    2  502    0  0.44410324096E+02  0.24382437849E+01  0.14754758418E+03  0.15417717573E+03  0.47000000000E+01 0.  1.
         -5    1    1    2    0  502 -0.40046039315E+02 -0.11198101538E+03  0.25796529212E+03  0.28409789688E+03  0.47000000000E+01 0.  1.
        -11    1    3    3    0    0 -0.37589656989E+02  0.27298760363E+02  0.19431602424E+03  0.19979219681E+03  0.00000000000E+00 0. -1.
         11    1    3    3    0    0  0.33225372208E+02  0.82244011236E+02  0.17126279062E+03  0.19287028334E+03  0.00000000000E+00 0.  1.
<mgrwt>
<rscale>  0 0.16020156E+03</rscale>
<asrwt>0</asrwt>
<pdfrwt beam="1">  1        2 0.12323300E+00 0.16626589E+03</pdfrwt>
<pdfrwt beam="2">  1       -2 0.46035284E-02 0.16626589E+03</pdfrwt>
<totfact> 0.76672036E+03</totfact>
</mgrwt>
</event>
<event>
 7    1  0.1254976E-005  0.1882065E+03  0.7546771E-02  0.1165316E+00
         -1   -1    0    0    0  501 -0.00000000000E+00  0.00000000000E+00  0.37318150231E+03  0.37318150231E+03  0.00000000000E+00 0.  1.
          1   -1    0    0  501    0  0.00000000000E+00 -0.00000000000E+00 -0.97614760459E+02  0.97614760459E+02  0.00000000000E+00 0. -1.
         23    2    1    2    0    0 -0.13816204533E+03 -0.26626269934E+02  0.44104248091E+02  0.17247330269E+03  0.89465895285E+02 0.  0.
          5    1    1    2  502    0  0.35815814983E+02  0.50725151922E+02  0.15839403378E+03  0.17019569201E+03  0.47000000000E+01 0.  1.
         -5    1    1    2    0  502  0.10234623035E+03 -0.24098881989E+02  0.73068459984E+02  0.12812726808E+03  0.47000000000E+01 0.  1.
        -11    1    3    3    0    0 -0.38947960313E+02  0.32714576614E+02  0.89962778687E+01  0.51653849335E+02  0.00000000000E+00 0.  1.
         11    1    3    3    0    0 -0.99214085021E+02 -0.59340846548E+02  0.35107970222E+02  0.12081945335E+03  0.00000000000E+00 0. -1.
<mgrwt>
<rscale>  0 0.18259348E+03</rscale>
<asrwt>0</asrwt>
<pdfrwt beam="2">  1        1 0.15017656E-01 0.18820654E+03</pdfrwt>
<pdfrwt beam="1">  1       -1 0.57412538E-01 0.18820654E+03</pdfrwt>
<totfact> 0.11680831E+03</totfact>
</mgrwt>
</event>
<event>
 7    1  0.1254976E-005  0.1531080E+03  0.7546771E-02  0.1205515E+00
          2   -1    0    0  501    0  0.00000000000E+00  0.00000000000E+00  0.53111550633E+02  0.53111550633E+02  0.00000000000E+00 0.  1.
         -2   -1    0    0    0  501 -0.00000000000E+00 -0.00000000000E+00 -0.42594266242E+03  0.42594266242E+03  0.00000000000E+00 0. -1.
         23    2    1    2    0    0 -0.34162678117E+02  0.81548405322E+02 -0.83065012496E+02  0.15132495872E+03  0.90455601503E+02 0.  0.
          5    1    1    2  502    0  0.38013911396E+02  0.28784185326E+00 -0.15281243150E+02  0.41240110387E+02  0.47000000000E+01 0. -1.
         -5    1    1    2    0  502 -0.38512332787E+01 -0.81836247175E+02 -0.27448485614E+03  0.28648914395E+03  0.47000000000E+01 0. -1.
        -11    1    3    3    0    0  0.25993503968E+02  0.11506680479E+02 -0.40937797103E+02  0.49839433943E+02  0.00000000000E+00 0. -1.
         11    1    3    3    0    0 -0.60156182085E+02  0.70041724843E+02 -0.42127215393E+02  0.10148552477E+03  0.00000000000E+00 0.  1.
<mgrwt>
<rscale>  0 0.14596933E+03</rscale>
<asrwt>0</asrwt>
<pdfrwt beam="1">  1        2 0.81710080E-02 0.15310804E+03</pdfrwt>
<pdfrwt beam="2">  1       -2 0.65529638E-01 0.15310804E+03</pdfrwt>
<totfact> 0.17681089E+03</totfact>
</mgrwt>
</event>
<event>
 7    1  0.1254976E-005  0.1528713E+03  0.7546771E-02  0.1205627E+00
         -2   -1    0    0    0  501 -0.00000000000E+00  0.00000000000E+00  0.36749278903E+02  0.36749278903E+02  0.00000000000E+00 0.  1.
          2   -1    0    0  501    0  0.00000000000E+00 -0.00000000000E+00 -0.57467325650E+03  0.57467325650E+03  0.00000000000E+00 0. -1.
         23    2    1    2    0    0 -0.17923882500E+02  0.86163492572E+02 -0.16273673473E+03  0.20628664334E+03  0.91244295027E+02 0.  0.
          5    1    1    2  502    0  0.49750861710E+02 -0.50169238287E+01 -0.23252074656E+03  0.23788296565E+03  0.47000000000E+01 0. -1.
         -5    1    1    2    0  502 -0.31826979210E+02 -0.81146568743E+02 -0.14266649630E+03  0.16725292641E+03  0.47000000000E+01 0. -1.
        -11    1    3    3    0    0  0.16157866611E+02  0.74638345576E+02 -0.14963827914E+03  0.16799873174E+03  0.00000000000E+00 0. -1.
         11    1    3    3    0    0 -0.34081749111E+02  0.11525146996E+02 -0.13098455590E+02  0.38287911598E+02  0.00000000000E+00 0.  1.
<mgrwt>
<rscale>  0 0.14588127E+03</rscale>
<asrwt>0</asrwt>
<pdfrwt beam="2">  1        2 0.88411269E-01 0.15287127E+03</pdfrwt>
<pdfrwt beam="1">  1       -2 0.56537353E-02 0.15287127E+03</pdfrwt>
<totfact> 0.83012600E+03</totfact>
</mgrwt>
</event>
<event>
 7    1  0.1254976E-005  0.1534870E+03  0.7546771E-02  0.1205062E+00
          2   -1    0    0  501    0  0.00000000000E+00  0.00000000000E+00  0.14798926449E+04  0.14798926449E+04  0.00000000000E+00 0. -1.
         -2   -1    0    0    0  501 -0.00000000000E+00 -0.00000000000E+00 -0.13680815238E+02  0.13680815238E+02  0.00000000000E+00 0.  1.
         23    2    1    2    0    0  0.47695735558E+02  0.75217639317E+02  0.53652507480E+03  0.55130187868E+03  0.90233192847E+02 0.  0.
          5    1    1    2  502    0 -0.37761195645E+02 -0.49272247001E+02  0.15447797920E+03  0.16655088796E+03  0.47000000000E+01 0.  1.
         -5    1    1    2    0  502 -0.99345399131E+01 -0.25945392316E+02  0.77520877567E+03  0.77572069352E+03  0.47000000000E+01 0.  1.
        -11    1    3    3    0    0  0.64899758716E+02  0.63748273897E+02  0.50794224907E+03  0.51602436909E+03  0.00000000000E+00 0. -1.
         11    1    3    3    0    0 -0.17204023157E+02  0.11469365420E+02  0.28582825725E+02  0.35277509583E+02  0.00000000000E+00 0.  1.
<mgrwt>
<rscale>  0 0.14632594E+03</rscale>
<asrwt>0</asrwt>
<pdfrwt beam="1">  1        2 0.22767567E+00 0.15348704E+03</pdfrwt>
<pdfrwt beam="2">  1       -2 0.21047420E-02 0.15348704E+03</pdfrwt>
<totfact> 0.98281746E+03</totfact>
</mgrwt>
</event>
<event>
 7    1  0.1254976E-005  0.1352742E+03  0.7546771E-02  0.1231621E+00
          2   -1    0    0  501    0  0.00000000000E+00  0.00000000000E+00  0.44787492497E+03  0.44787492497E+03  0.00000000000E+00 0. -1.
         -2   -1    0    0    0  501 -0.00000000000E+00 -0.00000000000E+00 -0.89759345415E+02  0.89759345415E+02  0.00000000000E+00 0.  1.
         23    2    1    2    0    0  0.49165362457E+02 -0.15900012029E+02  0.38536600702E+03  0.39964257667E+03  0.92396896462E+02 0.  0.
          5    1    1    2  502    0 -0.75308014322E+02  0.41091791799E+02  0.91039628178E+01  0.86399100189E+02  0.47000000000E+01 0.  1.
         -5    1    1    2    0  502  0.26142651865E+02 -0.25191779770E+02 -0.36354390278E+02  0.51592593528E+02  0.47000000000E+01 0.  1.
        -11    1    3    3    0    0 -0.11015130083E+02 -0.39661220828E+02  0.15026755104E+03  0.15580334535E+03  0.00000000000E+00 0. -1.
         11    1    3    3    0    0  0.60180492540E+02  0.23761208799E+02  0.23509845598E+03  0.24383923132E+03  0.00000000000E+00 0.  1.
<mgrwt>
<rscale>  0 0.12723267E+03</rscale>
<asrwt>0</asrwt>
<pdfrwt beam="1">  1        2 0.68903833E-01 0.13527425E+03</pdfrwt>
<pdfrwt beam="2">  1       -2 0.13809130E-01 0.13527425E+03</pdfrwt>
<totfact> 0.26956793E+03</totfact>
</mgrwt>
</event>
<event>
 7    1  0.1254976E-005  0.2096401E+03  0.7546771E-02  0.1145560E+00
          1   -1    0    0  501    0  0.00000000000E+00  0.00000000000E+00  0.11075551464E+04  0.11075551464E+04  0.00000000000E+00 0. -1.
         -1   -1    0    0    0  501 -0.00000000000E+00 -0.00000000000E+00 -0.36444779330E+02  0.36444779330E+02  0.00000000000E+00 0.  1.
         23    2    1    2    0    0 -0.41206793851E+02 -0.16316038260E+03  0.48741424244E+03  0.52379823892E+03  0.92046950280E+02 0.  0.
          5    1    1    2  502    0 -0.31202797606E+02  0.12876528810E+02  0.18292444286E+03  0.18607219396E+03  0.47000000000E+01 0. -1.
         -5    1    1    2    0  502  0.72409591457E+02  0.15028385379E+03  0.40077168180E+03  0.43412949287E+03  0.47000000000E+01 0. -1.
        -11    1    3    3    0    0 -0.41789398448E+02 -0.70173739058E+02  0.33867297272E+03  0.34838210334E+03  0.00000000000E+00 0. -1.
         11    1    3    3    0    0  0.58260459700E+00 -0.92986643541E+02  0.14874126972E+03  0.17541613558E+03  0.00000000000E+00 0.  1.
<mgrwt>
<rscale>  0 0.20503351E+03</rscale>
<asrwt>0</asrwt>
<pdfrwt beam="1">  1        1 0.17039307E+00 0.20964009E+03</pdfrwt>
<pdfrwt beam="2">  1       -1 0.56068900E-02 0.20964009E+03</pdfrwt>
<totfact> 0.19693898E+03</totfact>
</mgrwt>
</event>
<event>
 7    1  0.1254976E-005  0.1356210E+03  0.7546771E-02  0.1231553E+00
          2   -1    0    0  501    0  0.00000000000E+00  0.00000000000E+00  0.24045901040E+03  0.24045901040E+03  0.00000000000E+00 0.  1.
         -2   -1    0    0    0  501 -0.00000000000E+00 -0.00000000000E+00 -0.64314334377E+02  0.64314334377E+02  0.00000000000E+00 0. -1.
         23    2    1    2    0    0  0.38299918819E+02  0.36043988427E+02  0.39837210547E+02  0.11249024021E+03  0.91109812401E+02 0.  0.
          5    1    1    2  502    0 -0.75689146974E+02 -0.10562306785E+02  0.41414252728E+02  0.87049638847E+02  0.47000000000E+01 0.  1.
         -5    1    1    2    0  502  0.37389228155E+02 -0.25481681642E+02  0.94893212752E+02  0.10523346572E+03  0.47000000000E+01 0.  1.
        -11    1    3    3    0    0  0.59644717279E+01  0.52414437378E+02  0.52183127667E+02  0.74201933814E+02  0.00000000000E+00 0.  1.
         11    1    3    3    0    0  0.32335447091E+02 -0.16370448951E+02 -0.12345917119E+02  0.38288306399E+02  0.00000000000E+00 0. -1.
<mgrwt>
<rscale>  0 0.12727681E+03</rscale>
<asrwt>0</asrwt>
<pdfrwt beam="1">  1        2 0.36993693E-01 0.13562104E+03</pdfrwt>
<pdfrwt beam="2">  1       -2 0.98945131E-02 0.13562104E+03</pdfrwt>
<totfact> 0.88907803E+03</totfact>
</mgrwt>
</event>
<event>
 7    1  0.1254976E-005  0.1631584E+03  0.7546771E-02  0.1189619E+00
          1   -1    0    0  501    0  0.00000000000E+00  0.00000000000E+00  0.64305350410E+03  0.64305350410E+03  0.00000000000E+00 0. -1.
         -1   -1    0    0    0  501 -0.00000000000E+00 -0.00000000000E+00 -0.40234076622E+02  0.40234076622E+02  0.00000000000E+00 0.  1.
         23    2    1    2    0    0 -0.70287810070E+02  0.91872476851E+02  0.37482450428E+03  0.40292645838E+03  0.92061900939E+02 0.  0.
          5    1    1    2  502    0 -0.17119737009E+02  0.14554291481E+02  0.17915797513E+02  0.29120072051E+02  0.47000000000E+01 0. -1.
         -5    1    1    2    0  502  0.87407547078E+02 -0.10642676833E+03  0.21007912569E+03  0.25124105029E+03  0.47000000000E+01 0.  1.
        -11    1    3    3    0    0 -0.13084450149E+02  0.32281148111E+02  0.23491487762E+02  0.42013394963E+02  0.00000000000E+00 0.  1.
         11    1    3    3    0    0 -0.57203359920E+02  0.59591328740E+02  0.35133301652E+03  0.36091306342E+03  0.00000000000E+00 0. -1.
<mgrwt>
<rscale>  0 0.15918578E+03</rscale>
<asrwt>0</asrwt>
<pdfrwt beam="1">  1        1 0.98931301E-01 0.16315843E+03</pdfrwt>
<pdfrwt beam="2">  1       -1 0.61898584E-02 0.16315843E+03</pdfrwt>
<totfact> 0.39798905E+03</totfact>
</mgrwt>
</event>
<event>
 7    1  0.1254976E-005  0.1526247E+03  0.7546771E-02  0.1205507E+00
          1   -1    0    0  501    0  0.00000000000E+00  0.00000000000E+00  0.78102833567E+02  0.78102833567E+02  0.00000000000E+00 0. -1.
         -1   -1    0    0    0  501 -0.00000000000E+00 -0.00000000000E+00 -0.25312567888E+03  0.25312567888E+03  0.00000000000E+00 0.  1.
         23    2    1    2    0    0  0.12728520737E+02  0.86648452658E+02 -0.66827134092E+02  0.14414402802E+03  0.92960558166E+02 0.  0.
          5    1    1    2  502    0 -0.49873911557E+02 -0.47547731311E+02 -0.11331696656E+03  0.13270651347E+03  0.47000000000E+01 0. -1.
         -5    1    1    2    0  502  0.37145390820E+02 -0.39100721348E+02  0.51212553414E+01  0.54377970957E+02  0.47000000000E+01 0. -1.
        -11    1    3    3    0    0 -0.95312800639E+01  0.78985801418E+02 -0.83471192612E+02  0.11531280120E+03  0.00000000000E+00 0.  1.
         11    1    3    3    0    0  0.22259800800E+02  0.76626512399E+01  0.16644058520E+02  0.28831226816E+02  0.00000000000E+00 0. -1.
<mgrwt>
<rscale>  0 0.14597576E+03</rscale>
<asrwt>0</asrwt>
<pdfrwt beam="1">  1        1 0.12015821E-01 0.15262468E+03</pdfrwt>
<pdfrwt beam="2">  1       -1 0.38942412E-01 0.15262468E+03</pdfrwt>
<totfact> 0.31451911E+03</totfact>
</mgrwt>
</event>
<event>
 7    1  0.1254976E-005  0.2074935E+03  0.7546771E-02  0.1147555E+00
         -2   -1    0    0    0  501 -0.00000000000E+00  0.00000000000E+00  0.82543698290E+02  0.82543698290E+02  0.00000000000E+00 0.  1.
          2   -1    0    0  501    0  0.00000000000E+00 -0.00000000000E+00 -0.50992481848E+03  0.50992481848E+03  0.00000000000E+00 0. -1.
         23    2    1    2    0    0 -0.12479311094E+03 -0.10887460985E+03 -0.28135996241E+03  0.33874474835E+03  0.90319294039E+02 0.  0.
          5    1    1    2  502    0  0.14621305842E+03  0.10495771068E+03 -0.10886012730E+03  0.21039723573E+03  0.47000000000E+01 0.  1.
         -5    1    1    2    0  502 -0.21419947485E+02  0.39168991701E+01 -0.37161030483E+02  0.43326532701E+02  0.47000000000E+01 0.  1.
        -11    1    3    3    0    0 -0.72588418504E+02 -0.92926912883E+02 -0.11930919686E+03  0.16774735198E+03  0.00000000000E+00 0.  1.
         11    1    3    3    0    0 -0.52204692433E+02 -0.15947696972E+02 -0.16205076555E+03  0.17099739637E+03  0.00000000000E+00 0. -1.
<mgrwt>
<rscale>  0 0.20261014E+03</rscale>
<asrwt>0</asrwt>
<pdfrwt beam="2">  1        2 0.78449971E-01 0.20749355E+03</pdfrwt>
<pdfrwt beam="1">  1       -2 0.12699031E-01 0.20749355E+03</pdfrwt>
<totfact> 0.27157900E+03</totfact>
</mgrwt>
</event>
<event>
 7    1  0.1254976E-005  0.1435274E+03  0.7546771E-02  0.1218340E+00
          1   -1    0    0  501    0  0.00000000000E+00  0.00000000000E+00  0.16304068808E+03  0.16304068808E+03  0.00000000000E+00 0. -1.
         -1   -1    0    0    0  501 -0.00000000000E+00 -0.00000000000E+00 -0.15469263676E+03  0.15469263676E+03  0.00000000000E+00 0.  1.
         23    2    1    2    0    0  0.60221357332E+02 -0.36703649412E+02  0.94535346435E+02  0.15031655774E+03  0.93189946052E+02 0.  0.
          5    1    1    2  502    0 -0.59469000576E+02  0.19905583753E+02  0.15067509379E+02  0.64667720950E+02  0.47000000000E+01 0.  1.
         -5    1    1    2    0  502 -0.75235675628E+00  0.16798065659E+02 -0.10125480449E+03  0.10274904614E+03  0.47000000000E+01 0.  1.
        -11    1    3    3    0    0 -0.36471752189E+01 -0.39645559757E+02  0.47534656235E+01  0.40095732079E+02  0.00000000000E+00 0.  1.
         11    1    3    3    0    0  0.63868532551E+02  0.29419103446E+01  0.89781880812E+02  0.11022082566E+03  0.00000000000E+00 0. -1.
<mgrwt>
<rscale>  0 0.13634057E+03</rscale>
<asrwt>0</asrwt>
<pdfrwt beam="1">  1        1 0.25083183E-01 0.14352743E+03</pdfrwt>
<pdfrwt beam="2">  1       -1 0.23798867E-01 0.14352743E+03</pdfrwt>
<totfact> 0.27955444E+03</totfact>
</mgrwt>
</event>
<event>
 7    1  0.1254976E-005  0.1432978E+03  0.7546771E-02  0.1219303E+00
         -1   -1    0    0    0  501 -0.00000000000E+00  0.00000000000E+00  0.24402055864E+02  0.24402055864E+02  0.00000000000E+00 0.  1.
          1   -1    0    0  501    0  0.00000000000E+00 -0.00000000000E+00 -0.68878496220E+03  0.68878496220E+03  0.00000000000E+00 0. -1.
         23    2    1    2    0    0  0.66005379519E+02  0.23508471716E+02 -0.26638545393E+03  0.29017847205E+03  0.91285142317E+02 0.  0.
          5    1    1    2  502    0  0.17358342960E+02  0.12830865919E+02 -0.96141477005E+01  0.24092841812E+02  0.47000000000E+01 0. -1.
         -5    1    1    2    0  502 -0.83363722479E+02 -0.36339337635E+02 -0.38838330471E+03  0.39891570421E+03  0.47000000000E+01 0. -1.
        -11    1    3    3    0    0  0.35440123037E+02  0.24677261829E+02 -0.25322297251E+03  0.25687904425E+03  0.00000000000E+00 0. -1.
         11    1    3    3    0    0  0.30565256482E+02 -0.11687901127E+01 -0.13162481420E+02  0.33299427792E+02  0.00000000000E+00 0.  1.
<mgrwt>
<rscale>  0 0.13565169E+03</rscale>
<asrwt>0</asrwt>
<pdfrwt beam="2">  1        1 0.10596690E+00 0.14329779E+03</pdfrwt>
<pdfrwt beam="1">  1       -1 0.37541631E-02 0.14329779E+03</pdfrwt>
<totfact> 0.75328259E+03</totfact>
</mgrwt>
</event>
<event>
 7    1  0.1254976E-005  0.1585163E+03  0.7546771E-02  0.1198801E+00
          1   -1    0    0  501    0  0.00000000000E+00  0.00000000000E+00  0.53471094496E+03  0.53471094496E+03  0.00000000000E+00 0. -1.
         -1   -1    0    0    0  501 -0.00000000000E+00 -0.00000000000E+00 -0.40216193242E+02  0.40216193242E+02  0.00000000000E+00 0.  1.
         23    2    1    2    0    0  0.22449130910E+02  0.94887685799E+02  0.26556368497E+03  0.29647274145E+03  0.88681335409E+02 0.  0.
          5    1    1    2  502    0 -0.44064160135E+02 -0.11827883815E+03  0.18088984369E+03  0.22062356925E+03  0.47000000000E+01 0.  1.
         -5    1    1    2    0  502  0.21615029225E+02  0.23391152346E+02  0.48041223057E+02  0.57830827500E+02  0.47000000000E+01 0.  1.
        -11    1    3    3    0    0 -0.27968945672E+02  0.23260321177E+02  0.37867228190E+02  0.52509346159E+02  0.00000000000E+00 0.  1.
         11    1    3    3    0    0  0.50418076582E+02  0.71627364622E+02  0.22769645678E+03  0.24396339529E+03  0.00000000000E+00 0. -1.
<mgrwt>
<rscale>  0 0.15136892E+03</rscale>
<asrwt>0</asrwt>
<pdfrwt beam="1">  1        1 0.82263217E-01 0.15851630E+03</pdfrwt>
<pdfrwt beam="2">  1       -1 0.61871070E-02 0.15851630E+03</pdfrwt>
<totfact> 0.51141807E+03</totfact>
</mgrwt>
</event>
<event>
 7    1  0.1254976E-005  0.1478437E+03  0.7546771E-02  0.1215209E+00
          1   -1    0    0  501    0  0.00000000000E+00  0.00000000000E+00  0.34029917749E+03  0.34029917749E+03  0.00000000000E+00 0. -1.
         -1   -1    0    0    0  501 -0.00000000000E+00 -0.00000000000E+00 -0.74733893361E+02  0.74733893361E+02  0.00000000000E+00 0.  1.
         23    2    1    2    0    0 -0.23278456148E+01  0.78908626463E+02  0.23889623045E+03  0.26480325613E+03  0.82567338194E+02 0.  0.
          5    1    1    2  502    0 -0.48516871393E+02 -0.61135234095E+02  0.48403254696E+02  0.91958516314E+02  0.47000000000E+01 0. -1.
         -5    1    1    2    0  502  0.50844717007E+02 -0.17773392368E+02 -0.21734201021E+02  0.58271298406E+02  0.47000000000E+01 0. -1.
        -11    1    3    3    0    0 -0.24488401198E+02  0.70766715088E+02  0.22560902628E+03  0.23771210002E+03  0.00000000000E+00 0. -1.
         11    1    3    3    0    0  0.22160555583E+02  0.81419113753E+01  0.13287204175E+02  0.27091156110E+02  0.00000000000E+00 0.  1.
<mgrwt>
<rscale>  0 0.13861197E+03</rscale>
<asrwt>0</asrwt>
<pdfrwt beam="1">  1        1 0.52353719E-01 0.14784370E+03</pdfrwt>
<pdfrwt beam="2">  1       -1 0.11497522E-01 0.14784370E+03</pdfrwt>
<totfact> 0.35488837E+03</totfact>
</mgrwt>
</event>
<event>
 7    1  0.1254976E-005  0.1413553E+03  0.7546771E-02  0.1221595E+00
         -2   -1    0    0    0  501 -0.00000000000E+00  0.00000000000E+00  0.32949110776E+02  0.32949110776E+02  0.00000000000E+00 0.  1.
          2   -1    0    0  501    0  0.00000000000E+00 -0.00000000000E+00 -0.49584713221E+03  0.49584713221E+03  0.00000000000E+00 0. -1.
         23    2    1    2    0    0 -0.29370225647E+02 -0.59097683978E+02 -0.21073641251E+03  0.23971701926E+03  0.93269863100E+02 0.  0.
          5    1    1    2  502    0  0.59970800621E+02  0.80984311011E+02 -0.20574080203E+03  0.22914258264E+03  0.47000000000E+01 0. -1.
         -5    1    1    2    0  502 -0.30600574974E+02 -0.21886627033E+02 -0.46420806899E+02  0.59936641087E+02  0.47000000000E+01 0. -1.
        -11    1    3    3    0    0  0.10913913085E+02 -0.35409084048E+02 -0.18001917241E+03  0.18379287028E+03  0.00000000000E+00 0. -1.
         11    1    3    3    0    0 -0.40284138732E+02 -0.23688599930E+02 -0.30717240096E+02  0.55924148980E+02  0.00000000000E+00 0.  1.
<mgrwt>
<rscale>  0 0.13403053E+03</rscale>
<asrwt>0</asrwt>
<pdfrwt beam="2">  1        2 0.76284169E-01 0.14135530E+03</pdfrwt>
<pdfrwt beam="1">  1       -2 0.50690943E-02 0.14135530E+03</pdfrwt>
<totfact> 0.11478244E+04</totfact>
</mgrwt>
</event>
<event>
 7    1  0.1254976E-005  0.1900828E+03  0.7546771E-02  0.1162775E+00
         -2   -1    0    0    0  501 -0.00000000000E+00  0.00000000000E+00  0.13537158178E+03  0.13537158178E+03  0.00000000000E+00 0.  1.
          2   -1    0    0  501    0  0.00000000000E+00 -0.00000000000E+00 -0.24633338712E+03  0.24633338712E+03  0.00000000000E+00 0. -1.
         23    2    1    2    0    0 -0.12801961561E+03  0.64166585598E+02 -0.79016308835E+02  0.18895643296E+03  0.94628662709E+02 0.  0.
          5    1    1    2  502    0 -0.65632185346E+01 -0.49741605319E+02  0.91485492021E+01  0.51216101860E+02  0.47000000000E+01 0.  1.
         -5    1    1    2    0  502  0.13458283415E+03 -0.14424980280E+02 -0.41094045711E+02  0.14153243408E+03  0.47000000000E+01 0.  1.
        -11    1    3    3    0    0 -0.12631264644E+03  0.33505780086E+02 -0.87290106294E+02  0.15715306108E+03  0.00000000000E+00 0.  1.
         11    1    3    3    0    0 -0.17069691694E+01  0.30660805512E+02  0.82737974589E+01  0.31803371877E+02  0.00000000000E+00 0. -1.
<mgrwt>
<rscale>  0 0.18529471E+03</rscale>
<asrwt>0</asrwt>
<pdfrwt beam="2">  1        2 0.37897444E-01 0.19008283E+03</pdfrwt>
<pdfrwt beam="1">  1       -2 0.20826397E-01 0.19008283E+03</pdfrwt>
<totfact> 0.26132059E+03</totfact>
</mgrwt>
</event>
<event>
 7    1  0.1254976E-005  0.1481090E+03  0.7546771E-02  0.1212098E+00
         -1   -1    0    0    0  501 -0.00000000000E+00  0.00000000000E+00  0.27308087638E+03  0.27308087638E+03  0.00000000000E+00 0.  1.
          1   -1    0    0  501    0  0.00000000000E+00 -0.00000000000E+00 -0.67924110055E+02  0.67924110055E+02  0.00000000000E+00 0. -1.
         23    2    1    2    0    0  0.60013929975E+02 -0.52052574228E+02  0.67908085169E+02  0.13908056877E+03  0.91764668058E+02 0.  0.
          5    1    1    2  502    0  0.29818967659E+02 -0.16499533418E+02  0.40051365911E+02  0.52797796797E+02  0.47000000000E+01 0.  1.
         -5    1    1    2    0  502 -0.89832897634E+02  0.68552107646E+02  0.97197315240E+02  0.14912662086E+03  0.47000000000E+01 0.  1.
        -11    1    3    3    0    0  0.28460387306E+02  0.85227606691E+01 -0.13654768206E+02  0.32696846787E+02  0.00000000000E+00 0. -1.
         11    1    3    3    0    0  0.31553542669E+02 -0.60575334897E+02  0.81562853374E+02  0.10638372198E+03  0.00000000000E+00 0.  1.
<mgrwt>
<rscale>  0 0.14091862E+03</rscale>
<asrwt>0</asrwt>
<pdfrwt beam="2">  1        1 0.10449863E-01 0.14810898E+03</pdfrwt>
<pdfrwt beam="1">  1       -1 0.42012442E-01 0.14810898E+03</pdfrwt>
<totfact> 0.33041455E+03</totfact>
</mgrwt>
</event>
<event>
 7    1  0.1254976E-005  0.1710702E+03  0.7546771E-02  0.1183022E+00
         -4   -1    0    0    0  501 -0.00000000000E+00  0.00000000000E+00  0.63256590224E+03  0.63256590224E+03  0.00000000000E+00 0. -1.
          4   -1    0    0  501    0  0.00000000000E+00 -0.00000000000E+00 -0.55316102766E+02  0.55316102766E+02  0.00000000000E+00 0.  1.
         23    2    1    2    0    0 -0.94133473495E+02  0.69113206114E+02  0.95299262851E+02  0.17647089927E+03  0.91772995463E+02 0.  0.
          5    1    1    2  502    0  0.44144894974E+02  0.19722184320E+01  0.35333022817E+03  0.35611374803E+03  0.47000000000E+01 0.  1.
         -5    1    1    2    0  502  0.49988578521E+02 -0.71085424546E+02  0.12862030846E+03  0.15529735771E+03  0.47000000000E+01 0.  1.
        -11    1    3    3    0    0 -0.10252229406E+03  0.63135380334E+02  0.50605690921E+02  0.13060563917E+03  0.00000000000E+00 0.  1.
         11    1    3    3    0    0  0.83888205688E+01  0.59778257800E+01  0.44693571930E+02  0.45865260094E+02  0.00000000000E+00 0. -1.
<mgrwt>
<rscale>  0 0.16513208E+03</rscale>
<asrwt>0</asrwt>
<pdfrwt beam="2">  1        4 0.85101701E-02 0.17107016E+03</pdfrwt>
<pdfrwt beam="1">  1       -4 0.97317826E-01 0.17107016E+03</pdfrwt>
<totfact> 0.15765167E+02</totfact>
</mgrwt>
</event>
<event>
 7    1  0.1254976E-005  0.1443416E+03  0.7546771E-02  0.1214988E+00
          2   -1    0    0  501    0  0.00000000000E+00  0.00000000000E+00  0.19063909612E+03  0.19063909612E+03  0.00000000000E+00 0. -1.
         -2   -1    0    0    0  501 -0.00000000000E+00 -0.00000000000E+00 -0.96548927593E+02  0.96548927593E+02  0.00000000000E+00 0.  1.
         23    2    1    2    0    0 -0.34966558360E+01 -0.72098071860E+02  0.66915388322E+02  0.14031060665E+03  0.99995192766E+02 0.  0.
          5    1    1    2  502    0  0.27006609450E+01  0.68048628212E+02 -0.40194327642E+02  0.79218579548E+02  0.47000000000E+01 0.  1.
         -5    1    1    2    0  502  0.79599489103E+00  0.40494436488E+01  0.67369107842E+02  0.67658837510E+02  0.47000000000E+01 0.  1.
        -11    1    3    3    0    0 -0.33875411826E+02 -0.32221552001E+01  0.54155538009E+02  0.63958956430E+02  0.00000000000E+00 0.  1.
         11    1    3    3    0    0  0.30378755990E+02 -0.68875916660E+02  0.12759850313E+02  0.76351650220E+02  0.00000000000E+00 0. -1.
<mgrwt>
<rscale>  0 0.13877387E+03</rscale>
<asrwt>0</asrwt>
<pdfrwt beam="1">  1        2 0.29329092E-01 0.14434163E+03</pdfrwt>
<pdfrwt beam="2">  1       -2 0.14853681E-01 0.14434163E+03</pdfrwt>
<totfact> 0.59836940E+03</totfact>
</mgrwt>
</event>
<event>
 7    1  0.1254976E-005  0.1896323E+03  0.7546771E-02  0.1164752E+00
          1   -1    0    0  501    0  0.00000000000E+00  0.00000000000E+00  0.10062725994E+04  0.10062725994E+04  0.00000000000E+00 0. -1.
         -1   -1    0    0    0  501 -0.00000000000E+00 -0.00000000000E+00 -0.37561880406E+02  0.37561880406E+02  0.00000000000E+00 0.  1.
         23    2    1    2    0    0  0.13359373550E+03 -0.49866110043E+02  0.66970513428E+03  0.68976562803E+03  0.83293094733E+02 0.  0.
          5    1    1    2  502    0 -0.11303788355E+03  0.61396982994E+02  0.30345493297E+03  0.32962727281E+03  0.47000000000E+01 0. -1.
         -5    1    1    2    0  502 -0.20555851951E+02 -0.11530872950E+02 -0.44493482894E+01  0.24441578931E+02  0.47000000000E+01 0. -1.
        -11    1    3    3    0    0  0.11408768545E+03 -0.54283038742E+01  0.41242699443E+03  0.42795033846E+03  0.00000000000E+00 0.  1.
         11    1    3    3    0    0  0.19506050052E+02 -0.44437806169E+02  0.25727813985E+03  0.26181528957E+03  0.00000000000E+00 0. -1.
<mgrwt>
<rscale>  0 0.18318849E+03</rscale>
<asrwt>0</asrwt>
<pdfrwt beam="1">  1        1 0.15481115E+00 0.18963231E+03</pdfrwt>
<pdfrwt beam="2">  1       -1 0.57787516E-02 0.18963231E+03</pdfrwt>
<totfact> 0.22272164E+03</totfact>
</mgrwt>
</event>
<event>
 7    1  0.1254976E-005  0.2192875E+03  0.7546771E-02  0.1138047E+00
         -3   -1    0    0    0  501 -0.00000000000E+00  0.00000000000E+00  0.89860571288E+02  0.89860571288E+02  0.00000000000E+00 0.  1.
          3   -1    0    0  501    0  0.00000000000E+00 -0.00000000000E+00 -0.53023616925E+03  0.53023616925E+03  0.00000000000E+00 0. -1.
         23    2    1    2    0    0 -0.32475995750E+02 -0.17721468760E+03 -0.29556454655E+03  0.35730928595E+03  0.88610320175E+02 0.  0.
          5    1    1    2  502    0  0.39201584004E+02  0.60331004553E+02  0.53742416865E+01  0.72301914031E+02  0.47000000000E+01 0.  1.
         -5    1    1    2    0  502 -0.67255882536E+01  0.11688368305E+03 -0.15018529310E+03  0.19048554056E+03  0.47000000000E+01 0.  1.
        -11    1    3    3    0    0  0.26500922262E+02 -0.81214085536E+02 -0.99178505922E+02  0.13089844387E+03  0.00000000000E+00 0. -1.
         11    1    3    3    0    0 -0.58976918012E+02 -0.96000602069E+02 -0.19638604063E+03  0.22641084208E+03  0.00000000000E+00 0.  1.
<mgrwt>
<rscale>  0 0.21450581E+03</rscale>
<asrwt>0</asrwt>
<pdfrwt beam="2">  1        3 0.81574793E-01 0.21928750E+03</pdfrwt>
<pdfrwt beam="1">  1       -3 0.13824704E-01 0.21928750E+03</pdfrwt>
<totfact> 0.15050450E+02</totfact>
</mgrwt>
</event>
<event>
 7    1  0.1254976E-005  0.1361747E+03  0.7546771E-02  0.1229997E+00
          2   -1    0    0  501    0  0.00000000000E+00  0.00000000000E+00  0.26817263906E+03  0.26817263906E+03  0.00000000000E+00 0. -1.
         -2   -1    0    0    0  501 -0.00000000000E+00 -0.00000000000E+00 -0.67204521409E+02  0.67204521409E+02  0.00000000000E+00 0.  1.
         23    2    1    2    0    0 -0.28201910128E+02  0.46062467163E+02  0.16095066634E+03  0.19344424513E+03  0.92727883419E+02 0.  0.
          5    1    1    2  502    0  0.12096848583E+02  0.41506728197E+02 -0.16409558640E+01  0.43519248240E+02  0.47000000000E+01 0.  1.
         -5    1    1    2    0  502  0.16105061545E+02 -0.87569195360E+02  0.41658407178E+02  0.98413667099E+02  0.47000000000E+01 0.  1.
        -11    1    3    3    0    0 -0.58637222971E+02  0.49048193280E+02  0.12112404070E+03  0.14323087104E+03  0.00000000000E+00 0.  1.
         11    1    3    3    0    0  0.30435312844E+02 -0.29857261168E+01  0.39826625638E+02  0.50213374096E+02  0.00000000000E+00 0. -1.
<mgrwt>
<rscale>  0 0.12830188E+03</rscale>
<asrwt>0</asrwt>
<pdfrwt beam="1">  1        2 0.41257329E-01 0.13617473E+03</pdfrwt>
<pdfrwt beam="2">  1       -2 0.10339157E-01 0.13617473E+03</pdfrwt>
<totfact> 0.73893825E+03</totfact>
</mgrwt>
</event>
<event>
 7    1  0.1254976E-005  0.1722075E+03  0.7546771E-02  0.1181654E+00
          1   -1    0    0  501    0  0.00000000000E+00  0.00000000000E+00  0.34145090193E+02  0.34145090193E+02  0.00000000000E+00 0. -1.
         -1   -1    0    0    0  501 -0.00000000000E+00 -0.00000000000E+00 -0.79764461998E+03  0.79764461998E+03  0.00000000000E+00 0.  1.
         23    2    1    2    0    0  0.11843621924E+03 -0.20257559249E+01 -0.26754826545E+03  0.30679152332E+03  0.92237317396E+02 0.  0.
          5    1    1    2  502    0 -0.97596437280E+01 -0.36024544097E+02 -0.40847309933E+02  0.55530272391E+02  0.47000000000E+01 0.  1.
         -5    1    1    2    0  502 -0.10867657551E+03  0.38050300021E+02 -0.45510395441E+03  0.46946791447E+03  0.47000000000E+01 0.  1.
        -11    1    3    3    0    0  0.23103603628E+02 -0.18989580205E+02 -0.15704077860E+03  0.15986302512E+03  0.00000000000E+00 0.  1.
         11    1    3    3    0    0  0.95332615610E+02  0.16963824280E+02 -0.11050748685E+03  0.14692849820E+03  0.00000000000E+00 0. -1.
<mgrwt>
<rscale>  0 0.16640098E+03</rscale>
<asrwt>0</asrwt>
<pdfrwt beam="1">  1        1 0.52530911E-02 0.17220755E+03</pdfrwt>
<pdfrwt beam="2">  1       -1 0.12271455E+00 0.17220755E+03</pdfrwt>
<totfact> 0.96420142E+02</totfact>
</mgrwt>
</event>
<event>
 7    1  0.1254976E-005  0.1276407E+03  0.7546771E-02  0.1247382E+00
         -2   -1    0    0    0  501 -0.00000000000E+00  0.00000000000E+00  0.47400580251E+02  0.47400580251E+02  0.00000000000E+00 0.  1.
          2   -1    0    0  501    0  0.00000000000E+00 -0.00000000000E+00 -0.33606289329E+03  0.33606289329E+03  0.00000000000E+00 0. -1.
         23    2    1    2    0    0 -0.20214876666E+02 -0.16089829474E+02 -0.22059407027E+03  0.23880722475E+03  0.87747495134E+02 0.  0.
          5    1    1    2  502    0 -0.21409197502E+02  0.25889378067E+02 -0.90135234783E+02  0.96307134646E+02  0.47000000000E+01 0. -1.
         -5    1    1    2    0  502  0.41624074167E+02 -0.97995485922E+01  0.22066992010E+02  0.48349114152E+02  0.47000000000E+01 0. -1.
        -11    1    3    3    0    0 -0.11985055417E+02 -0.36695276376E+02 -0.21122260748E+03  0.21472115585E+03  0.00000000000E+00 0. -1.
         11    1    3    3    0    0 -0.82298212486E+01  0.20605446902E+02 -0.93714627892E+01  0.24086068891E+02  0.00000000000E+00 0.  1.
<mgrwt>
<rscale>  0 0.11743945E+03</rscale>
<asrwt>0</asrwt>
<pdfrwt beam="2">  1        2 0.51701984E-01 0.12764069E+03</pdfrwt>
<pdfrwt beam="1">  1       -2 0.72923969E-02 0.12764069E+03</pdfrwt>
<totfact> 0.99603153E+03</totfact>
</mgrwt>
</event>
<event>
 7    1  0.1254976E-005  0.1782667E+03  0.7546771E-02  0.1175065E+00
          1   -1    0    0  501    0  0.00000000000E+00  0.00000000000E+00  0.32810612385E+03  0.32810612385E+03  0.00000000000E+00 0. -1.
         -1   -1    0    0    0  501 -0.00000000000E+00 -0.00000000000E+00 -0.88881848525E+02  0.88881848525E+02  0.00000000000E+00 0.  1.
         23    2    1    2    0    0  0.25386330310E+02  0.12454289692E+03  0.15198628343E+03  0.21852015334E+03  0.92172816617E+02 0.  0.
          5    1    1    2  502    0  0.21696510654E+01 -0.76115027827E+00  0.70241029465E+02  0.70435636973E+02  0.47000000000E+01 0. -1.
         -5    1    1    2    0  502 -0.27555981375E+02 -0.12378174664E+03  0.16996962426E+02  0.12803218206E+03  0.47000000000E+01 0. -1.
        -11    1    3    3    0    0  0.48911620455E+01  0.77900089727E+02  0.25426136830E+02  0.82090412837E+02  0.00000000000E+00 0.  1.
         11    1    3    3    0    0  0.20495168264E+02  0.46642807196E+02  0.12656014660E+03  0.13642974050E+03  0.00000000000E+00 0. -1.
<mgrwt>
<rscale>  0 0.17269607E+03</rscale>
<asrwt>0</asrwt>
<pdfrwt beam="1">  1        1 0.50477865E-01 0.17826668E+03</pdfrwt>
<pdfrwt beam="2">  1       -1 0.13674131E-01 0.17826668E+03</pdfrwt>
<totfact> 0.28591759E+03</totfact>
</mgrwt>
</event>
<event>
 7    1  0.1254976E-005  0.1410078E+03  0.7546771E-02  0.1228204E+00
         -3   -1    0    0    0  501 -0.00000000000E+00  0.00000000000E+00  0.14818793848E+03  0.14818793848E+03  0.00000000000E+00 0.  1.
          3   -1    0    0  501    0  0.00000000000E+00 -0.00000000000E+00 -0.98412738512E+02  0.98412738512E+02  0.00000000000E+00 0. -1.
         23    2    1    2    0    0  0.40014528503E+02  0.96250691081E+01  0.25830671404E+02  0.10357433890E+03  0.91469206003E+02 0.  0.
          5    1    1    2  502    0 -0.75718056068E+02  0.15980454841E+02 -0.20666710385E+02  0.80235913840E+02  0.47000000000E+01 0. -1.
         -5    1    1    2    0  502  0.35703527565E+02 -0.25605523949E+02  0.44611238953E+02  0.62790424256E+02  0.47000000000E+01 0.  1.
        -11    1    3    3    0    0  0.74562978048E+01  0.47652787404E+02  0.22992392879E+02  0.53432524314E+02  0.00000000000E+00 0.  1.
         11    1    3    3    0    0  0.32558230698E+02 -0.38027718296E+02  0.28382785248E+01  0.50141814586E+02  0.00000000000E+00 0. -1.
<mgrwt>
<rscale>  0 0.12949688E+03</rscale>
<asrwt>0</asrwt>
<pdfrwt beam="2">  1        3 0.15140421E-01 0.14100778E+03</pdfrwt>
<pdfrwt beam="1">  1       -3 0.22798144E-01 0.14100778E+03</pdfrwt>
<totfact> 0.14997446E+03</totfact>
</mgrwt>
</event>
<event>
 7    1  0.1254976E-005  0.1770166E+03  0.7546771E-02  0.1177523E+00
          2   -1    0    0  501    0  0.00000000000E+00  0.00000000000E+00  0.11713225704E+03  0.11713225704E+03  0.00000000000E+00 0. -1.
         -2   -1    0    0    0  501 -0.00000000000E+00 -0.00000000000E+00 -0.23577424150E+03  0.23577424150E+03  0.00000000000E+00 0.  1.
         23    2    1    2    0    0 -0.12344218730E+03  0.21725834920E+02 -0.80905696421E+02  0.17191226379E+03  0.85428971774E+02 0.  0.
          5    1    1    2  502    0  0.14416973195E+03  0.31559530953E+01 -0.29928954231E+02  0.14735231234E+03  0.47000000000E+01 0. -1.
         -5    1    1    2    0  502 -0.20727544653E+02 -0.24881788015E+02 -0.78073338094E+01  0.33641922409E+02  0.47000000000E+01 0. -1.
        -11    1    3    3    0    0 -0.10153681354E+03  0.19727934650E+02 -0.99189651708E+02  0.14330911665E+03  0.00000000000E+00 0.  1.
         11    1    3    3    0    0 -0.21905373765E+02  0.19979002699E+01  0.18283955287E+02  0.28603147138E+02  0.00000000000E+00 0. -1.
<mgrwt>
<rscale>  0 0.17031215E+03</rscale>
<asrwt>0</asrwt>
<pdfrwt beam="1">  1        2 0.18020347E-01 0.17701663E+03</pdfrwt>
<pdfrwt beam="2">  1       -2 0.36272960E-01 0.17701663E+03</pdfrwt>
<totfact> 0.22072837E+03</totfact>
</mgrwt>
</event>
<event>
 7    1  0.1254976E-005  0.1236704E+03  0.7546771E-02  0.1246165E+00
         -2   -1    0    0    0  501 -0.00000000000E+00  0.00000000000E+00  0.39063193803E+02  0.39063193803E+02  0.00000000000E+00 0.  1.
          2   -1    0    0  501    0  0.00000000000E+00 -0.00000000000E+00 -0.32978288293E+03  0.32978288293E+03  0.00000000000E+00 0. -1.
         23    2    1    2    0    0 -0.38618599382E+02 -0.28423478201E+02 -0.12312802569E+03  0.16056424337E+03  0.91219927689E+02 0.  0.
          5    1    1    2  502    0 -0.19565348972E+02  0.29143572550E+02 -0.52996664802E+01  0.35809596007E+02  0.47000000000E+01 0. -1.
         -5    1    1    2    0  502  0.58183948353E+02 -0.72009434986E+00 -0.16229199696E+03  0.17247223736E+03  0.47000000000E+01 0.  1.
        -11    1    3    3    0    0 -0.37110084353E+01 -0.39299217925E+02 -0.86790848622E+01  0.40416910164E+02  0.00000000000E+00 0.  1.
         11    1    3    3    0    0 -0.34907590946E+02  0.10875739725E+02 -0.11444894082E+03  0.12014733320E+03  0.00000000000E+00 0. -1.
<mgrwt>
<rscale>  0 0.11815895E+03</rscale>
<asrwt>0</asrwt>
<pdfrwt beam="2">  1        2 0.50735827E-01 0.12367035E+03</pdfrwt>
<pdfrwt beam="1">  1       -2 0.60097223E-02 0.12367035E+03</pdfrwt>
<totfact> 0.13606240E+04</totfact>
</mgrwt>
</event>
<event>
 7    1  0.1254976E-005  0.1588171E+03  0.7546771E-02  0.1197564E+00
         -1   -1    0    0    0  501 -0.00000000000E+00  0.00000000000E+00  0.43708234833E+03  0.43708234833E+03  0.00000000000E+00 0.  1.
          1   -1    0    0  501    0  0.00000000000E+00 -0.00000000000E+00 -0.15596961886E+03  0.15596961886E+03  0.00000000000E+00 0. -1.
         23    2    1    2    0    0  0.95076607741E+02 -0.17151187970E+02 -0.10811341381E+03  0.17267134354E+03  0.93771840366E+02 0.  0.
          5    1    1    2  502    0 -0.45271361200E+02  0.68544179050E+02  0.25841904233E+03  0.27120157091E+03  0.47000000000E+01 0. -1.
         -5    1    1    2    0  502 -0.49805246541E+02 -0.51392991080E+02  0.13080710096E+03  0.14917905274E+03  0.47000000000E+01 0.  1.
        -11    1    3    3    0    0 -0.90176055691E+01 -0.27890806191E+02 -0.31128597097E+02  0.42757500364E+02  0.00000000000E+00 0.  1.
         11    1    3    3    0    0  0.10409421331E+03  0.10739618220E+02 -0.76984816713E+02  0.12991384317E+03  0.00000000000E+00 0. -1.
<mgrwt>
<rscale>  0 0.15239243E+03</rscale>
<asrwt>0</asrwt>
<pdfrwt beam="2">  1        1 0.23995326E-01 0.15881712E+03</pdfrwt>
<pdfrwt beam="1">  1       -1 0.67243438E-01 0.15881712E+03</pdfrwt>
<totfact> 0.47095597E+02</totfact>
</mgrwt>
</event>
<event>
 7    1  0.1254976E-005  0.1473995E+03  0.7546771E-02  0.1215233E+00
          2   -1    0    0  501    0  0.00000000000E+00  0.00000000000E+00  0.77669440103E+02  0.77669440103E+02  0.00000000000E+00 0. -1.
         -2   -1    0    0    0  501 -0.00000000000E+00 -0.00000000000E+00 -0.26975424510E+03  0.26975424510E+03  0.00000000000E+00 0.  1.
         23    2    1    2    0    0 -0.72746372760E+02 -0.28450315540E+02 -0.13703945421E+02  0.11602286570E+03  0.84687968685E+02 0.  0.
          5    1    1    2  502    0  0.10021708067E+02 -0.45522970941E+02 -0.82888937936E+02  0.95212612337E+02  0.47000000000E+01 0.  1.
         -5    1    1    2    0  502  0.62724664694E+02  0.73973286481E+02 -0.95491921636E+02  0.13618820717E+03  0.47000000000E+01 0.  1.
        -11    1    3    3    0    0 -0.85863103686E+02 -0.34227285466E+02  0.48701433288E+01  0.92561860078E+02  0.00000000000E+00 0. -1.
         11    1    3    3    0    0  0.13116730926E+02  0.57769699262E+01 -0.18574088750E+02  0.23461005618E+02  0.00000000000E+00 0.  1.
<mgrwt>
<rscale>  0 0.13859424E+03</rscale>
<asrwt>0</asrwt>
<pdfrwt beam="1">  1        2 0.11949145E-01 0.14739949E+03</pdfrwt>
<pdfrwt beam="2">  1       -2 0.41500654E-01 0.14739949E+03</pdfrwt>
<totfact> 0.27548863E+03</totfact>
</mgrwt>
</event>
<event>
 7    1  0.1254976E-005  0.1181180E+03  0.7546771E-02  0.1256489E+00
          1   -1    0    0  501    0  0.00000000000E+00  0.00000000000E+00  0.12224241127E+03  0.12224241127E+03  0.00000000000E+00 0. -1.
         -1   -1    0    0    0  501 -0.00000000000E+00 -0.00000000000E+00 -0.11882448670E+03  0.11882448670E+03  0.00000000000E+00 0.  1.
         23    2    1    2    0    0  0.21897768786E+02  0.32584328280E+02  0.56429156421E+02  0.11159851724E+03  0.87913188022E+02 0.  0.
          5    1    1    2  502    0 -0.19391886089E+02  0.64208287846E+01 -0.79370306871E+02  0.82091460586E+02  0.47000000000E+01 0. -1.
         -5    1    1    2    0  502 -0.25058826976E+01 -0.39005157065E+02  0.26359075022E+02  0.47376920138E+02  0.47000000000E+01 0.  1.
        -11    1    3    3    0    0  0.11803240856E+02 -0.29685951671E+02  0.27693182265E+02  0.42278653778E+02  0.00000000000E+00 0.  1.
         11    1    3    3    0    0  0.10094527930E+02  0.62270279952E+02  0.28735974156E+02  0.69319863460E+02  0.00000000000E+00 0. -1.
<mgrwt>
<rscale>  0 0.11223337E+03</rscale>
<asrwt>0</asrwt>
<pdfrwt beam="1">  1        1 0.18806525E-01 0.11811804E+03</pdfrwt>
<pdfrwt beam="2">  1       -1 0.18280690E-01 0.11811804E+03</pdfrwt>
<totfact> 0.60825114E+03</totfact>
</mgrwt>
</event>
<event>
 7    1  0.1254976E-005  0.1607916E+03  0.7546771E-02  0.1195317E+00
         -3   -1    0    0    0  501 -0.00000000000E+00  0.00000000000E+00  0.45692725695E+03  0.45692725695E+03  0.00000000000E+00 0.  1.
          3   -1    0    0  501    0  0.00000000000E+00 -0.00000000000E+00 -0.48917430523E+02  0.48917430523E+02  0.00000000000E+00 0. -1.
         23    2    1    2    0    0 -0.60857743854E+02  0.80785813852E+02  0.21613952469E+03  0.25550863739E+03  0.91314604194E+02 0.  0.
          5    1    1    2  502    0  0.71760935997E+02 -0.92431705440E+02  0.91558666389E+02  0.14865507558E+03  0.47000000000E+01 0.  1.
         -5    1    1    2    0  502 -0.10903192143E+02  0.11645891588E+02  0.10031163535E+03  0.10168097450E+03  0.47000000000E+01 0.  1.
        -11    1    3    3    0    0 -0.24023674532E+02  0.81934516681E+02  0.89837846161E+02  0.12394047186E+03  0.00000000000E+00 0. -1.
         11    1    3    3    0    0 -0.36834069322E+02 -0.11487028295E+01  0.12630167853E+03  0.13156816553E+03  0.00000000000E+00 0.  1.
<mgrwt>
<rscale>  0 0.15427450E+03</rscale>
<asrwt>0</asrwt>
<pdfrwt beam="2">  1        3 0.75257589E-02 0.16079156E+03</pdfrwt>
<pdfrwt beam="1">  1       -3 0.70296498E-01 0.16079156E+03</pdfrwt>
<totfact> 0.55192401E+02</totfact>
</mgrwt>
</event>
<event>
 7    1  0.1254976E-005  0.1348646E+03  0.7546771E-02  0.1232119E+00
         -1   -1    0    0    0  501 -0.00000000000E+00  0.00000000000E+00  0.60148850965E+03  0.60148850965E+03  0.00000000000E+00 0.  1.
          1   -1    0    0  501    0  0.00000000000E+00 -0.00000000000E+00 -0.28645505141E+02  0.28645505141E+02  0.00000000000E+00 0. -1.
         23    2    1    2    0    0 -0.33545832451E+02 -0.37922154520E+02  0.13204233209E+03  0.16916364474E+03  0.92831829461E+02 0.  0.
          5    1    1    2  502    0  0.31023036018E+02  0.73180753277E+02  0.39489077404E+03  0.40283826138E+03  0.47000000000E+01 0.  1.
         -5    1    1    2    0  502  0.25227964328E+01 -0.35258598758E+02  0.45909898379E+02  0.58132108661E+02  0.47000000000E+01 0.  1.
        -11    1    3    3    0    0 -0.56598007468E+01 -0.65397643687E+02  0.93373788316E+02  0.11413829107E+03  0.00000000000E+00 0.  1.
         11    1    3    3    0    0 -0.27886031704E+02  0.27475489167E+02  0.38668543775E+02  0.55025353673E+02  0.00000000000E+00 0. -1.
<mgrwt>
<rscale>  0 0.12690661E+03</rscale>
<asrwt>0</asrwt>
<pdfrwt beam="2">  1        1 0.44070012E-02 0.13486456E+03</pdfrwt>
<pdfrwt beam="1">  1       -1 0.92536685E-01 0.13486456E+03</pdfrwt>
<totfact> 0.22992407E+03</totfact>
</mgrwt>
</event>
<event>
 7    1  0.1254976E-005  0.1419296E+03  0.7546771E-02  0.1221866E+00
         -1   -1    0    0    0  501 -0.00000000000E+00  0.00000000000E+00  0.30195123700E+02  0.30195123700E+02  0.00000000000E+00 0.  1.
          1   -1    0    0  501    0  0.00000000000E+00 -0.00000000000E+00 -0.55939863213E+03  0.55939863213E+03  0.00000000000E+00 0. -1.
         23    2    1    2    0    0  0.17308020191E+02 -0.64965539823E+02 -0.29639512895E+03  0.31693325842E+03  0.89869510407E+02 0.  0.
          5    1    1    2  502    0  0.37305669327E+02  0.18302115302E+02 -0.16964138216E+02  0.45128177161E+02  0.47000000000E+01 0. -1.
         -5    1    1    2    0  502 -0.54613689518E+02  0.46663424522E+02 -0.21584424126E+03  0.22753232024E+03  0.47000000000E+01 0. -1.
        -11    1    3    3    0    0  0.25690776943E+02  0.16142767565E+02 -0.69632763160E+02  0.75956083824E+02  0.00000000000E+00 0.  1.
         11    1    3    3    0    0 -0.83827567520E+01 -0.81108307388E+02 -0.22676236579E+03  0.24097717460E+03  0.00000000000E+00 0. -1.
<mgrwt>
<rscale>  0 0.13384015E+03</rscale>
<asrwt>0</asrwt>
<pdfrwt beam="2">  1        1 0.86061327E-01 0.14192958E+03</pdfrwt>
<pdfrwt beam="1">  1       -1 0.46454037E-02 0.14192958E+03</pdfrwt>
<totfact> 0.73298532E+03</totfact>
</mgrwt>
</event>
<event>
 7    1  0.1588752E-005  0.2081928E+03  0.7546771E-02  0.1146804E+00
          1   -1    0    0  501    0  0.00000000000E+00  0.00000000000E+00  0.15353386234E+04  0.15353386234E+04  0.00000000000E+00 0. -1.
         -1   -1    0    0    0  501 -0.00000000000E+00 -0.00000000000E+00 -0.25999210051E+02  0.25999210051E+02  0.00000000000E+00 0.  1.
         23    2    1    2    0    0  0.16648940720E+03  0.11560008230E+01  0.78297030590E+03  0.80572130412E+03  0.91783772802E+02 0.  0.
          5    1    1    2  502    0 -0.93845941789E+02 -0.56667284009E+02  0.49006710075E+03  0.50220124960E+03  0.47000000000E+01 0.  1.
         -5    1    1    2    0  502 -0.72643465409E+02  0.55511283186E+02  0.23630200672E+03  0.25341527975E+03  0.47000000000E+01 0.  1.
        -11    1    3    3    0    0  0.53382761298E+02 -0.27977231214E+02  0.14303000123E+03  0.15520961930E+03  0.00000000000E+00 0.  1.
         11    1    3    3    0    0  0.11310664590E+03  0.29133232037E+02  0.63994030467E+03  0.65051168482E+03  0.00000000000E+00 0. -1.
<mgrwt>
<rscale>  0 0.20351871E+03</rscale>
<asrwt>0</asrwt>
<pdfrwt beam="1">  1        1 0.23620587E+00 0.20819284E+03</pdfrwt>
<pdfrwt beam="2">  1       -1 0.39998797E-02 0.20819284E+03</pdfrwt>
<totfact> 0.16701594E+03</totfact>
</mgrwt>
</event>
<event>
 7    1  0.1254976E-005  0.1517442E+03  0.7546771E-02  0.1207192E+00
          4   -1    0    0  501    0  0.00000000000E+00  0.00000000000E+00  0.81249196024E+02  0.81249196024E+02  0.00000000000E+00 0. -1.
         -4   -1    0    0    0  501 -0.00000000000E+00 -0.00000000000E+00 -0.26572980119E+03  0.26572980119E+03  0.00000000000E+00 0.  1.
         23    2    1    2    0    0 -0.41351665051E+02 -0.75447135485E+02 -0.26848052349E+02  0.12817697635E+03  0.91138844055E+02 0.  0.
          5    1    1    2  502    0 -0.24690481939E+01  0.36159201569E+02 -0.15548407610E+03  0.15972154513E+03  0.47000000000E+01 0.  1.
         -5    1    1    2    0  502  0.43820713245E+02  0.39287933916E+02 -0.21484767112E+01  0.59080475733E+02  0.47000000000E+01 0.  1.
        -11    1    3    3    0    0  0.54181775111E+01 -0.77421015887E+02 -0.92189902789E+01  0.78155998683E+02  0.00000000000E+00 0.  1.
         11    1    3    3    0    0 -0.46769842562E+02  0.19738804019E+01 -0.17629062070E+02  0.50020977665E+02  0.00000000000E+00 0. -1.
<mgrwt>
<rscale>  0 0.14466084E+03</rscale>
<asrwt>0</asrwt>
<pdfrwt beam="1">  1        4 0.12499876E-01 0.15174420E+03</pdfrwt>
<pdfrwt beam="2">  1       -4 0.40881507E-01 0.15174420E+03</pdfrwt>
<totfact> 0.51123446E+02</totfact>
</mgrwt>
</event>
<event>
 7    1  0.1254976E-005  0.1717451E+03  0.7546771E-02  0.1182446E+00
          1   -1    0    0  501    0  0.00000000000E+00  0.00000000000E+00  0.59102878560E+03  0.59102878560E+03  0.00000000000E+00 0.  1.
         -1   -1    0    0    0  501 -0.00000000000E+00 -0.00000000000E+00 -0.50723249758E+02  0.50723249758E+02  0.00000000000E+00 0. -1.
         23    2    1    2    0    0  0.97686189013E+02 -0.65796285273E+02  0.13210736942E+03  0.19889525595E+03  0.90748130027E+02 0.  0.
          5    1    1    2  502    0 -0.82696215239E+02  0.75888134308E+02  0.16899680843E+03  0.20292778076E+03  0.47000000000E+01 0.  1.
         -5    1    1    2    0  502 -0.14989973775E+02 -0.10091849035E+02  0.23920135798E+03  0.23992899865E+03  0.47000000000E+01 0.  1.
        -11    1    3    3    0    0  0.48408237800E+02 -0.56150436666E+02  0.21133600982E+02  0.77089935239E+02  0.00000000000E+00 0. -1.
         11    1    3    3    0    0  0.49277951213E+02 -0.96458486067E+01  0.11097376844E+03  0.12180532071E+03  0.00000000000E+00 0.  1.
<mgrwt>
<rscale>  0 0.16566449E+03</rscale>
<asrwt>0</asrwt>
<pdfrwt beam="1">  1        1 0.90927500E-01 0.17174511E+03</pdfrwt>
<pdfrwt beam="2">  1       -1 0.78035773E-02 0.17174511E+03</pdfrwt>
<totfact> 0.31601075E+03</totfact>
</mgrwt>
</event>
<event>
 7    1  0.1254976E-005  0.1603034E+03  0.7546771E-02  0.1196148E+00
          2   -1    0    0  501    0  0.00000000000E+00  0.00000000000E+00  0.11905467935E+03  0.11905467935E+03  0.00000000000E+00 0. -1.
         -2   -1    0    0    0  501 -0.00000000000E+00 -0.00000000000E+00 -0.21089435962E+03  0.21089435962E+03  0.00000000000E+00 0.  1.
         23    2    1    2    0    0 -0.99719335844E+02  0.11303353541E+02  0.17125877287E+02  0.13611751361E+03  0.90349156593E+02 0.  0.
          5    1    1    2  502    0  0.37611109303E+02  0.23094011179E+02  0.18313261009E+02  0.48014523054E+02  0.47000000000E+01 0. -1.
         -5    1    1    2    0  502  0.62108226541E+02 -0.34397364720E+02 -0.12727881857E+03  0.14581700230E+03  0.47000000000E+01 0. -1.
        -11    1    3    3    0    0 -0.25194774183E+02 -0.26562935676E+01  0.47981199260E+02  0.54258898110E+02  0.00000000000E+00 0. -1.
         11    1    3    3    0    0 -0.74524561660E+02  0.13959647109E+02 -0.30855321973E+02  0.81858615503E+02  0.00000000000E+00 0.  1.
<mgrwt>
<rscale>  0 0.15357455E+03</rscale>
<asrwt>0</asrwt>
<pdfrwt beam="1">  1        2 0.18316105E-01 0.16030336E+03</pdfrwt>
<pdfrwt beam="2">  1       -2 0.32445286E-01 0.16030336E+03</pdfrwt>
<totfact> 0.26504799E+03</totfact>
</mgrwt>
</event>
<event>
 7    1  0.1254976E-005  0.1282731E+03  0.7546771E-02  0.1243600E+00
          2   -1    0    0  501    0  0.00000000000E+00  0.00000000000E+00  0.11320046889E+03  0.11320046889E+03  0.00000000000E+00 0. -1.
         -2   -1    0    0    0  501 -0.00000000000E+00 -0.00000000000E+00 -0.15337479023E+03  0.15337479023E+03  0.00000000000E+00 0.  1.
         23    2    1    2    0    0 -0.23520915310E+02  0.16611307348E+02  0.50409768407E+02  0.10954192301E+03  0.92893052259E+02 0.  0.
          5    1    1    2  502    0 -0.22608870116E+02 -0.16697830138E+02  0.21525549535E+02  0.35712992342E+02  0.47000000000E+01 0.  1.
         -5    1    1    2    0  502  0.46129785426E+02  0.86522790448E-01 -0.11210963929E+03  0.12132034376E+03  0.47000000000E+01 0.  1.
        -11    1    3    3    0    0 -0.39087611413E+02  0.48072513262E+02  0.28828696584E+02  0.68336678614E+02  0.00000000000E+00 0.  1.
         11    1    3    3    0    0  0.15566696103E+02 -0.31461205914E+02  0.21581071822E+02  0.41205244400E+02  0.00000000000E+00 0. -1.
<mgrwt>
<rscale>  0 0.11969563E+03</rscale>
<asrwt>0</asrwt>
<pdfrwt beam="1">  1        2 0.17415457E-01 0.12827311E+03</pdfrwt>
<pdfrwt beam="2">  1       -2 0.23596121E-01 0.12827311E+03</pdfrwt>
<totfact> 0.48838635E+03</totfact>
</mgrwt>
</event>
<event>
 7    1  0.1254976E-005  0.1516675E+03  0.7546771E-02  0.1203387E+00
         -1   -1    0    0    0  501 -0.00000000000E+00  0.00000000000E+00  0.51444630052E+03  0.51444630052E+03  0.00000000000E+00 0.  1.
          1   -1    0    0  501    0  0.00000000000E+00 -0.00000000000E+00 -0.51711036971E+02  0.51711036971E+02  0.00000000000E+00 0. -1.
         23    2    1    2    0    0  0.11007608857E+02  0.85248111692E+02  0.88766933252E+02  0.16260395307E+03  0.10569800903E+03 0.  0.
          5    1    1    2  502    0 -0.50388709437E+02 -0.34263330126E+02  0.29628787024E+03  0.30252535412E+03  0.47000000000E+01 0. -1.
         -5    1    1    2    0  502  0.39381100579E+02 -0.50984781567E+02  0.77680460058E+02  0.10102803031E+03  0.47000000000E+01 0. -1.
        -11    1    3    3    0    0  0.15011720492E+02  0.10415730779E+03  0.44413502384E+02  0.11422195810E+03  0.00000000000E+00 0. -1.
         11    1    3    3    0    0 -0.40041116345E+01 -0.18909196098E+02  0.44353430868E+02  0.48381994965E+02  0.00000000000E+00 0.  1.
<mgrwt>
<rscale>  0 0.14765324E+03</rscale>
<asrwt>0</asrwt>
<pdfrwt beam="2">  1        1 0.79555445E-02 0.15166747E+03</pdfrwt>
<pdfrwt beam="1">  1       -1 0.79145581E-01 0.15166747E+03</pdfrwt>
<totfact> 0.14349850E+03</totfact>
</mgrwt>
</event>
<event>
 6    1  0.1254976E-005  0.4809968E+03  0.7546771E-02  0.1018862E+00
         -1   -1    0    0    0  501 -0.00000000000E+00  0.00000000000E+00  0.13530137412E+03  0.13530137412E+03  0.00000000000E+00 0.  1.
          1   -1    0    0  501    0  0.00000000000E+00 -0.00000000000E+00 -0.42748626100E+03  0.42748626100E+03  0.00000000000E+00 0. -1.
          5    1    1    2  502    0 -0.62558798271E+01  0.43394194010E+02 -0.59866332622E+02  0.74352268881E+02  0.47000000000E+01 0. -1.
         -5    1    1    2    0  502  0.87386196963E+02 -0.15423119864E+03 -0.26601398375E+02  0.17931350883E+03  0.47000000000E+01 0.  1.
        -11    1    1    2    0    0 -0.10723538929E+03  0.32746147397E+02 -0.19653974794E+03  0.22627331129E+03  0.00000000000E+00 0. -1.
         11    1    1    2    0    0  0.26105072153E+02  0.78090857237E+02 -0.91774079399E+01  0.82848546111E+02  0.00000000000E+00 0.  1.
<mgrwt>
<rscale>  0 0.48099679E+03</rscale>
<asrwt>0</asrwt>
<pdfrwt beam="2">  1        1 0.65767116E-01 0.48099679E+03</pdfrwt>
<pdfrwt beam="1">  1       -1 0.20815596E-01 0.48099679E+03</pdfrwt>
<totfact> 0.10518992E+03</totfact>
</mgrwt>
</event>
<event>
 7    1  0.1254976E-005  0.2406036E+03  0.7546771E-02  0.1122069E+00
         -1   -1    0    0    0  501 -0.00000000000E+00  0.00000000000E+00  0.54104959369E+02  0.54104959369E+02  0.00000000000E+00 0.  1.
          1   -1    0    0  501    0  0.00000000000E+00 -0.00000000000E+00 -0.10448440154E+04  0.10448440154E+04  0.00000000000E+00 0. -1.
         23    2    1    2    0    0  0.86202102871E+02  0.18657879211E+03 -0.59088318941E+03  0.63228549461E+03  0.91649085990E+02 0.  0.
          5    1    1    2  502    0 -0.84113211823E+02 -0.47949042216E+02 -0.21225982625E+03  0.23334623822E+03  0.47000000000E+01 0.  1.
         -5    1    1    2    0  502 -0.20888910481E+01 -0.13862974990E+03 -0.18759604037E+03  0.23331724194E+03  0.47000000000E+01 0.  1.
        -11    1    3    3    0    0  0.45729923394E+02  0.16038988643E+03 -0.52356165257E+03  0.54948425419E+03  0.00000000000E+00 0. -1.
         11    1    3    3    0    0  0.40472179477E+02  0.26188905677E+02 -0.67321536836E+02  0.82801240414E+02  0.00000000000E+00 0.  1.
<mgrwt>
<rscale>  0 0.23661400E+03</rscale>
<asrwt>0</asrwt>
<pdfrwt beam="2">  1        1 0.16074522E+00 0.24060359E+03</pdfrwt>
<pdfrwt beam="1">  1       -1 0.83238407E-02 0.24060359E+03</pdfrwt>
<totfact> 0.12009982E+03</totfact>
</mgrwt>
</event>
<event>
 7    1  0.1254976E-005  0.1841512E+03  0.7546771E-02  0.1169094E+00
          3   -1    0    0  501    0  0.00000000000E+00  0.00000000000E+00  0.66805886446E+02  0.66805886446E+02  0.00000000000E+00 0. -1.
         -3   -1    0    0    0  501 -0.00000000000E+00 -0.00000000000E+00 -0.51167933388E+03  0.51167933388E+03  0.00000000000E+00 0.  1.
         23    2    1    2    0    0  0.13247694614E+03 -0.27145258765E+02 -0.11155299635E+03  0.19767794468E+03  0.91353667057E+02 0.  0.
          5    1    1    2  502    0 -0.45187093174E+02 -0.38155499941E+02 -0.51360627378E+02  0.78471138707E+02  0.47000000000E+01 0. -1.
         -5    1    1    2    0  502 -0.87289852964E+02  0.65300758706E+02 -0.28195982371E+03  0.30233613694E+03  0.47000000000E+01 0. -1.
        -11    1    3    3    0    0  0.10370328708E+03 -0.46507709231E+02 -0.44250427415E+02  0.12196490928E+03  0.00000000000E+00 0. -1.
         11    1    3    3    0    0  0.28773659060E+02  0.19362450466E+02 -0.67302568937E+02  0.75713035399E+02  0.00000000000E+00 0.  1.
<mgrwt>
<rscale>  0 0.17867236E+03</rscale>
<asrwt>0</asrwt>
<pdfrwt beam="1">  1        3 0.10277829E-01 0.18415118E+03</pdfrwt>
<pdfrwt beam="2">  1       -3 0.78719897E-01 0.18415118E+03</pdfrwt>
<totfact> 0.26338747E+02</totfact>
</mgrwt>
</event>
<event>
 7    1  0.1254976E-005  0.1346638E+03  0.7546771E-02  0.1231501E+00
         -3   -1    0    0    0  501 -0.00000000000E+00  0.00000000000E+00  0.13036630450E+03  0.13036630450E+03  0.00000000000E+00 0.  1.
          3   -1    0    0  501    0  0.00000000000E+00 -0.00000000000E+00 -0.11342815938E+03  0.11342815938E+03  0.00000000000E+00 0. -1.
         23    2    1    2    0    0 -0.33506648701E+02 -0.37231754041E+02 -0.32624718370E+01  0.10762401476E+03  0.95201816240E+02 0.  0.
          5    1    1    2  502    0 -0.44255376967E+01 -0.12113594342E+02  0.60392236361E+02  0.61932517827E+02  0.47000000000E+01 0.  1.
         -5    1    1    2    0  502  0.37932186398E+02  0.49345348382E+02 -0.40191619401E+02  0.74237931288E+02  0.47000000000E+01 0.  1.
        -11    1    3    3    0    0 -0.33833429692E+02 -0.11796863026E+02  0.42303531828E+02  0.55438756724E+02  0.00000000000E+00 0.  1.
         11    1    3    3    0    0  0.32678099080E+00 -0.25434891015E+02 -0.45566003665E+02  0.52185258041E+02  0.00000000000E+00 0. -1.
<mgrwt>
<rscale>  0 0.12731085E+03</rscale>
<asrwt>0</asrwt>
<pdfrwt beam="2">  1        3 0.17450486E-01 0.13466375E+03</pdfrwt>
<pdfrwt beam="1">  1       -3 0.20056354E-01 0.13466375E+03</pdfrwt>
<totfact> 0.14628558E+03</totfact>
</mgrwt>
</event>
<event>
 7    1  0.1254976E-005  0.2057503E+03  0.7546771E-02  0.1149238E+00
          1   -1    0    0  501    0  0.00000000000E+00  0.00000000000E+00  0.49306333468E+02  0.49306333468E+02  0.00000000000E+00 0. -1.
         -1   -1    0    0    0  501 -0.00000000000E+00 -0.00000000000E+00 -0.77798237103E+03  0.77798237103E+03  0.00000000000E+00 0.  1.
         23    2    1    2    0    0 -0.16171524786E+03  0.23591455952E+02 -0.33811557717E+03  0.38584711532E+03  0.88585973448E+02 0.  0.
          5    1    1    2  502    0  0.55608254444E+02  0.27305978195E+02 -0.45989905444E+02  0.77298485175E+02  0.47000000000E+01 0. -1.
         -5    1    1    2    0  502  0.10610699342E+03 -0.50897434146E+02 -0.34457055494E+03  0.36414310400E+03  0.47000000000E+01 0. -1.
        -11    1    3    3    0    0 -0.71045349027E+02 -0.19448227224E+02 -0.79199034167E+02  0.10815804257E+03  0.00000000000E+00 0. -1.
         11    1    3    3    0    0 -0.90669898835E+02  0.43039683175E+02 -0.25891654300E+03  0.27768907275E+03  0.00000000000E+00 0.  1.
<mgrwt>
<rscale>  0 0.20059524E+03</rscale>
<asrwt>0</asrwt>
<pdfrwt beam="1">  1        1 0.75855895E-02 0.20575034E+03</pdfrwt>
<pdfrwt beam="2">  1       -1 0.11968960E+00 0.20575034E+03</pdfrwt>
<totfact> 0.62103471E+02</totfact>
</mgrwt>
</event>
<event>
 7    1  0.1254976E-005  0.1512621E+03  0.7546771E-02  0.1207163E+00
          1   -1    0    0  501    0  0.00000000000E+00  0.00000000000E+00  0.88325200848E+03  0.88325200848E+03  0.00000000000E+00 0. -1.
         -1   -1    0    0    0  501 -0.00000000000E+00 -0.00000000000E+00 -0.22510263922E+02  0.22510263922E+02  0.00000000000E+00 0.  1.
         23    2    1    2    0    0  0.81778099652E+02 -0.23806187076E+02  0.47025416636E+03  0.48700126075E+03  0.93684870014E+02 0.  0.
          5    1    1    2  502    0 -0.88710256843E+02 -0.11156320864E+02  0.36195236016E+03  0.37286133373E+03  0.47000000000E+01 0. -1.
         -5    1    1    2    0  502  0.69321571913E+01  0.34962507940E+02  0.28535218036E+02  0.45899677920E+02  0.47000000000E+01 0. -1.
        -11    1    3    3    0    0 -0.23857732519E+00 -0.42466142536E+02  0.15239305870E+03  0.15819947700E+03  0.00000000000E+00 0.  1.
         11    1    3    3    0    0  0.82016676977E+02  0.18659955460E+02  0.31786110765E+03  0.32880178375E+03  0.00000000000E+00 0. -1.
<mgrwt>
<rscale>  0 0.14468337E+03</rscale>
<asrwt>0</asrwt>
<pdfrwt beam="1">  1        1 0.13588490E+00 0.15126214E+03</pdfrwt>
<pdfrwt beam="2">  1       -1 0.34631182E-02 0.15126214E+03</pdfrwt>
<totfact> 0.58582189E+03</totfact>
</mgrwt>
</event>
<event>
 7    1  0.1254976E-005  0.1326129E+03  0.7546771E-02  0.1235660E+00
          2   -1    0    0  501    0  0.00000000000E+00  0.00000000000E+00  0.33229967096E+02  0.33229967096E+02  0.00000000000E+00 0. -1.
         -2   -1    0    0    0  501 -0.00000000000E+00 -0.00000000000E+00 -0.45802471951E+03  0.45802471951E+03  0.00000000000E+00 0.  1.
         23    2    1    2    0    0 -0.39309491567E+02 -0.20027518997E+02 -0.11731293607E+03  0.15639462998E+03  0.93544736210E+02 0.  0.
          5    1    1    2  502    0  0.48085619479E+02  0.59039923154E+02 -0.11358321792E+03  0.13682535116E+03  0.47000000000E+01 0. -1.
         -5    1    1    2    0  502 -0.87761279117E+01 -0.39012404156E+02 -0.19389859842E+03  0.19803470546E+03  0.47000000000E+01 0. -1.
        -11    1    3    3    0    0 -0.38323926988E+02  0.20990579313E+02 -0.15062225491E+02  0.46219026779E+02  0.00000000000E+00 0. -1.
         11    1    3    3    0    0 -0.98556457869E+00 -0.41018098310E+02 -0.10225071058E+03  0.11017560320E+03  0.00000000000E+00 0.  1.
<mgrwt>
<rscale>  0 0.12462264E+03</rscale>
<asrwt>0</asrwt>
<pdfrwt beam="1">  1        2 0.51123030E-02 0.13261293E+03</pdfrwt>
<pdfrwt beam="2">  1       -2 0.70465337E-01 0.13261293E+03</pdfrwt>
<totfact> 0.27425379E+03</totfact>
</mgrwt>
</event>
<event>
 7    1  0.1254976E-005  0.1272580E+03  0.7546771E-02  0.1244684E+00
          1   -1    0    0  501    0  0.00000000000E+00  0.00000000000E+00  0.10590237695E+03  0.10590237695E+03  0.00000000000E+00 0. -1.
         -1   -1    0    0    0  501 -0.00000000000E+00 -0.00000000000E+00 -0.15785731380E+03  0.15785731380E+03  0.00000000000E+00 0.  1.
         23    2    1    2    0    0 -0.42085844622E+01 -0.23525953412E+02  0.41456504775E+02  0.10589806377E+03  0.94469971179E+02 0.  0.
          5    1    1    2  502    0  0.15783132497E+02  0.71303110350E+02 -0.75983455994E+02  0.10549320548E+03  0.47000000000E+01 0.  1.
         -5    1    1    2    0  502 -0.11574548035E+02 -0.47777156938E+02 -0.17427985640E+02  0.52368421504E+02  0.47000000000E+01 0.  1.
        -11    1    3    3    0    0 -0.36192240295E+02 -0.29569403278E+02 -0.72721001027E+01  0.47298111037E+02  0.00000000000E+00 0.  1.
         11    1    3    3    0    0  0.31983655833E+02  0.60434498657E+01  0.48728604878E+02  0.58599952731E+02  0.00000000000E+00 0. -1.
<mgrwt>
<rscale>  0 0.11904331E+03</rscale>
<asrwt>0</asrwt>
<pdfrwt beam="1">  1        1 0.16292673E-01 0.12725799E+03</pdfrwt>
<pdfrwt beam="2">  1       -1 0.24285741E-01 0.12725799E+03</pdfrwt>
<totfact> 0.46487606E+03</totfact>
</mgrwt>
</event>
<event>
 7    1  0.1254976E-005  0.1582980E+03  0.7546771E-02  0.1200169E+00
          1   -1    0    0  501    0  0.00000000000E+00  0.00000000000E+00  0.51485637075E+03  0.51485637075E+03  0.00000000000E+00 0. -1.
         -1   -1    0    0    0  501 -0.00000000000E+00 -0.00000000000E+00 -0.46189930945E+02  0.46189930945E+02  0.00000000000E+00 0.  1.
         23    2    1    2    0    0  0.25514084025E+01  0.97100851804E+02  0.31603478878E+03  0.34114935942E+03  0.84082177710E+02 0.  0.
          5    1    1    2  502    0  0.56597256700E+02 -0.27481002725E+02  0.39606237248E+02  0.74492946012E+02  0.47000000000E+01 0. -1.
         -5    1    1    2    0  502 -0.59148665102E+02 -0.69619849079E+02  0.11302541378E+03  0.14540399626E+03  0.47000000000E+01 0. -1.
        -11    1    3    3    0    0  0.15325215208E+02  0.97124372753E+02  0.31291551809E+03  0.32800019430E+03  0.00000000000E+00 0. -1.
         11    1    3    3    0    0 -0.12773806806E+02 -0.23520949744E-01  0.31192706891E+01  0.13149165113E+02  0.00000000000E+00 0.  1.
<mgrwt>
<rscale>  0 0.15024779E+03</rscale>
<asrwt>0</asrwt>
<pdfrwt beam="1">  1        1 0.79208669E-01 0.15829796E+03</pdfrwt>
<pdfrwt beam="2">  1       -1 0.71061436E-02 0.15829796E+03</pdfrwt>
<totfact> 0.43670292E+03</totfact>
</mgrwt>
</event>
<event>
 7    1  0.1254976E-005  0.3083392E+03  0.7546771E-02  0.1122677E+00
          2   -1    0    0  501    0  0.00000000000E+00  0.00000000000E+00  0.10020410732E+04  0.10020410732E+04  0.00000000000E+00 0. -1.
         -2   -1    0    0    0  501 -0.00000000000E+00 -0.00000000000E+00 -0.45036439599E+02  0.45036439599E+02  0.00000000000E+00 0.  1.
         23    2    1    2    0    0 -0.16817833348E+02  0.50990989255E+02  0.36083955798E+03  0.37589509096E+03  0.90603599822E+02 0.  0.
          5    1    1    2  502    0 -0.67770415979E+01 -0.14213055500E+03  0.54629489556E+03  0.56454160685E+03  0.47000000000E+01 0. -1.
         -5    1    1    2    0  502  0.23594874946E+02  0.91139565741E+02  0.49870180115E+02  0.10664081504E+03  0.47000000000E+01 0.  1.
        -11    1    3    3    0    0 -0.75620511352E+01  0.76683645764E+02  0.28711111527E+03  0.29727152345E+03  0.00000000000E+00 0. -1.
         11    1    3    3    0    0 -0.92557822124E+01 -0.25692656509E+02  0.73728442706E+02  0.78623567502E+02  0.00000000000E+00 0.  1.
<mgrwt>
<rscale>  0 0.23572054E+03</rscale>
<asrwt>0</asrwt>
<pdfrwt beam="1">  1        2 0.15416015E+00 0.30833917E+03</pdfrwt>
<pdfrwt beam="2">  1       -2 0.69286837E-02 0.30833917E+03</pdfrwt>
<totfact> 0.30999741E+03</totfact>
</mgrwt>
</event>
<event>
 7    1  0.1254976E-005  0.1539046E+03  0.7546771E-02  0.1206980E+00
         -1   -1    0    0    0  501 -0.00000000000E+00  0.00000000000E+00  0.23165057691E+03  0.23165057691E+03  0.00000000000E+00 0.  1.
          1   -1    0    0  501    0  0.00000000000E+00 -0.00000000000E+00 -0.11847172828E+03  0.11847172828E+03  0.00000000000E+00 0. -1.
         23    2    1    2    0    0  0.81549706801E+02  0.37596930044E+02 -0.45591355756E+02  0.12900108933E+03  0.80615293218E+02 0.  0.
          5    1    1    2  502    0 -0.42294557340E+02  0.42306772169E+02  0.91574939520E+02  0.10948402669E+03  0.47000000000E+01 0. -1.
         -5    1    1    2    0  502 -0.39255149461E+02 -0.79903702214E+02  0.67195264858E+02  0.11163718917E+03  0.47000000000E+01 0. -1.
        -11    1    3    3    0    0  0.69921029185E+02  0.53578907317E+01  0.22364221406E+01  0.70161662604E+02  0.00000000000E+00 0.  1.
         11    1    3    3    0    0  0.11628677616E+02  0.32239039312E+02 -0.47827777897E+02  0.58839426726E+02  0.00000000000E+00 0. -1.
<mgrwt>
<rscale>  0 0.14482512E+03</rscale>
<asrwt>0</asrwt>
<pdfrwt beam="2">  1        1 0.18226420E-01 0.15390456E+03</pdfrwt>
<pdfrwt beam="1">  1       -1 0.35638550E-01 0.15390456E+03</pdfrwt>
<totfact> 0.21354520E+03</totfact>
</mgrwt>
</event>
<event>
 7    1  0.1254976E-005  0.1921823E+03  0.7546771E-02  0.1161209E+00
          1   -1    0    0  501    0  0.00000000000E+00  0.00000000000E+00  0.33574421660E+03  0.33574421660E+03  0.00000000000E+00 0. -1.
         -1   -1    0    0    0  501 -0.00000000000E+00 -0.00000000000E+00 -0.99234811246E+02  0.99234811246E+02  0.00000000000E+00 0.  1.
         23    2    1    2    0    0 -0.34708262501E+02  0.14179213002E+03  0.98784237019E+02  0.19854246282E+03  0.91384421189E+02 0.  0.
          5    1    1    2  502    0  0.23377466350E+01 -0.63190173477E+02  0.13737162179E+03  0.15129942352E+03  0.47000000000E+01 0. -1.
         -5    1    1    2    0  502  0.32370515866E+02 -0.78601956544E+02  0.35354654517E+00  0.85137141514E+02  0.47000000000E+01 0. -1.
        -11    1    3    3    0    0 -0.20601076088E+01  0.71826084530E+02  0.97760200655E+02  0.12132719108E+03  0.00000000000E+00 0. -1.
         11    1    3    3    0    0 -0.32648154892E+02  0.69966045490E+02  0.10240363640E+01  0.77215271740E+02  0.00000000000E+00 0.  1.
<mgrwt>
<rscale>  0 0.18698546E+03</rscale>
<asrwt>0</asrwt>
<pdfrwt beam="1">  1        1 0.51652956E-01 0.19218228E+03</pdfrwt>
<pdfrwt beam="2">  1       -1 0.15266894E-01 0.19218228E+03</pdfrwt>
<totfact> 0.23413492E+03</totfact>
</mgrwt>
</event>
<event>
 7    1  0.1254976E-005  0.1367567E+03  0.7546771E-02  0.1230127E+00
         -4   -1    0    0    0  501 -0.00000000000E+00  0.00000000000E+00  0.52412045195E+02  0.52412045195E+02  0.00000000000E+00 0.  1.
          4   -1    0    0  501    0  0.00000000000E+00 -0.00000000000E+00 -0.28058823431E+03  0.28058823431E+03  0.00000000000E+00 0. -1.
         23    2    1    2    0    0 -0.23304776674E+01  0.55429513202E+02 -0.10463007012E+03  0.14870147052E+03  0.89926712950E+02 0.  0.
          5    1    1    2  502    0 -0.18079423709E+02  0.30330959517E+02 -0.42270251996E+01  0.35871860962E+02  0.47000000000E+01 0. -1.
         -5    1    1    2    0  502  0.20409901376E+02 -0.85760472719E+02 -0.11931909379E+03  0.14842694802E+03  0.47000000000E+01 0. -1.
        -11    1    3    3    0    0  0.18466052241E+02  0.52866798102E+01 -0.90626833579E+02  0.92639986147E+02  0.00000000000E+00 0. -1.
         11    1    3    3    0    0 -0.20796529909E+02  0.50142833392E+02 -0.14003236544E+02  0.56061484377E+02  0.00000000000E+00 0.  1.
<mgrwt>
<rscale>  0 0.12821603E+03</rscale>
<asrwt>0</asrwt>
<pdfrwt beam="2">  1        4 0.43167420E-01 0.13675675E+03</pdfrwt>
<pdfrwt beam="1">  1       -4 0.80633916E-02 0.13675675E+03</pdfrwt>
<totfact> 0.94240034E+02</totfact>
</mgrwt>
</event>
<event>
 7    1  0.1254976E-005  0.1687899E+03  0.7546771E-02  0.1185466E+00
          1   -1    0    0  501    0  0.00000000000E+00  0.00000000000E+00  0.60455699653E+02  0.60455699653E+02  0.00000000000E+00 0. -1.
         -1   -1    0    0    0  501 -0.00000000000E+00 -0.00000000000E+00 -0.43819420746E+03  0.43819420746E+03  0.00000000000E+00 0.  1.
         23    2    1    2    0    0  0.11339457831E+03 -0.24775866365E+01 -0.11418513342E+03  0.18567957636E+03  0.92596930602E+02 0.  0.
          5    1    1    2  502    0 -0.27155139406E+02 -0.30324501108E+02 -0.87022829783E+01  0.41890293537E+02  0.47000000000E+01 0.  1.
         -5    1    1    2    0  502 -0.86239438906E+02  0.32802087744E+02 -0.25485109141E+03  0.27108003722E+03  0.47000000000E+01 0.  1.
        -11    1    3    3    0    0  0.86438412505E+02  0.90492352049E+00 -0.21474816408E+02  0.89070678580E+02  0.00000000000E+00 0. -1.
         11    1    3    3    0    0  0.26956165807E+02 -0.33825101570E+01 -0.92710317007E+02  0.96608897776E+02  0.00000000000E+00 0.  1.
<mgrwt>
<rscale>  0 0.16289571E+03</rscale>
<asrwt>0</asrwt>
<pdfrwt beam="1">  1        1 0.93008766E-02 0.16878995E+03</pdfrwt>
<pdfrwt beam="2">  1       -1 0.67414495E-01 0.16878995E+03</pdfrwt>
<totfact> 0.16103784E+03</totfact>
</mgrwt>
</event>
<event>
 7    1  0.1254976E-005  0.1538966E+03  0.7546771E-02  0.1203889E+00
          2   -1    0    0  501    0  0.00000000000E+00  0.00000000000E+00  0.26186841837E+02  0.26186841837E+02  0.00000000000E+00 0. -1.
         -2   -1    0    0    0  501 -0.00000000000E+00 -0.00000000000E+00 -0.79592536920E+03  0.79592536920E+03  0.00000000000E+00 0.  1.
         23    2    1    2    0    0 -0.89753666271E+02  0.19367281697E+01 -0.27034937896E+03  0.29954768739E+03  0.92631305705E+02 0.  0.
          5    1    1    2  502    0  0.10610427502E+03  0.10420350477E+02 -0.48613073083E+03  0.49770661875E+03  0.47000000000E+01 0. -1.
         -5    1    1    2    0  502 -0.16350608752E+02 -0.12357078647E+02 -0.13258417573E+02  0.24857904895E+02  0.47000000000E+01 0. -1.
        -11    1    3    3    0    0 -0.46838985888E+02  0.35817802615E+00 -0.24550853416E+03  0.24993691051E+03  0.00000000000E+00 0.  1.
         11    1    3    3    0    0 -0.42914680383E+02  0.15785501435E+01 -0.24840844798E+02  0.49610776886E+02  0.00000000000E+00 0. -1.
<mgrwt>
<rscale>  0 0.14725363E+03</rscale>
<asrwt>0</asrwt>
<pdfrwt beam="1">  1        2 0.40287451E-02 0.15389659E+03</pdfrwt>
<pdfrwt beam="2">  1       -2 0.12245005E+00 0.15389659E+03</pdfrwt>
<totfact> 0.10813302E+03</totfact>
</mgrwt>
</event>
<event>
 7    1  0.1254976E-005  0.1286491E+03  0.7546771E-02  0.1242655E+00
         -2   -1    0    0    0  501 -0.00000000000E+00  0.00000000000E+00  0.31467184449E+02  0.31467184449E+02  0.00000000000E+00 0.  1.
          2   -1    0    0  501    0  0.00000000000E+00 -0.00000000000E+00 -0.40976412731E+03  0.40976412731E+03  0.00000000000E+00 0. -1.
         23    2    1    2    0    0 -0.21766265036E+02  0.21441584654E+02 -0.15484124699E+03  0.18338825938E+03  0.93391274012E+02 0.  0.
          5    1    1    2  502    0 -0.45166434461E+02 -0.13975486303E+02 -0.39158118060E+02  0.61569223069E+02  0.47000000000E+01 0. -1.
         -5    1    1    2    0  502  0.66932699497E+02 -0.74660983506E+01 -0.18429757781E+03  0.19627382931E+03  0.47000000000E+01 0. -1.
        -11    1    3    3    0    0  0.11986566100E+02 -0.59723500775E+01  0.74829784217E+01  0.15340850641E+02  0.00000000000E+00 0.  1.
         11    1    3    3    0    0 -0.33752831136E+02  0.27413934731E+02 -0.16232422541E+03  0.16804740874E+03  0.00000000000E+00 0. -1.
<mgrwt>
<rscale>  0 0.12026842E+03</rscale>
<asrwt>0</asrwt>
<pdfrwt beam="2">  1        2 0.63040633E-01 0.12864910E+03</pdfrwt>
<pdfrwt beam="1">  1       -2 0.48411054E-02 0.12864910E+03</pdfrwt>
<totfact> 0.15008845E+04</totfact>
</mgrwt>
</event>
<event>
 7    1  0.1254976E-005  0.1360487E+03  0.7546771E-02  0.1233767E+00
          1   -1    0    0  501    0  0.00000000000E+00  0.00000000000E+00  0.97002549586E+03  0.97002549586E+03  0.00000000000E+00 0. -1.
         -1   -1    0    0    0  501 -0.00000000000E+00 -0.00000000000E+00 -0.14369165788E+02  0.14369165788E+02  0.00000000000E+00 0.  1.
         23    2    1    2    0    0  0.50593753412E+02  0.17969299913E+02  0.37259586623E+03  0.38567205610E+03  0.83860787634E+02 0.  0.
          5    1    1    2  502    0 -0.65658457456E+02 -0.34686574670E+02  0.56392235852E+03  0.56880990493E+03  0.47000000000E+01 0.  1.
         -5    1    1    2    0  502  0.15064704044E+02  0.16717274757E+02  0.19138105315E+02  0.29912700619E+02  0.47000000000E+01 0.  1.
        -11    1    3    3    0    0 -0.96208800452E+01  0.34971429884E+02  0.16002694951E+03  0.16408591290E+03  0.00000000000E+00 0.  1.
         11    1    3    3    0    0  0.60214633457E+02 -0.17002129971E+02  0.21256891671E+03  0.22158614320E+03  0.00000000000E+00 0. -1.
<mgrwt>
<rscale>  0 0.12583714E+03</rscale>
<asrwt>0</asrwt>
<pdfrwt beam="1">  1        1 0.14923464E+00 0.13604872E+03</pdfrwt>
<pdfrwt beam="2">  1       -1 0.22106416E-02 0.13604872E+03</pdfrwt>
<totfact> 0.96217413E+03</totfact>
</mgrwt>
</event>
<event>
 7    1  0.1254976E-005  0.1394953E+03  0.7546771E-02  0.1224561E+00
         -2   -1    0    0    0  501 -0.00000000000E+00  0.00000000000E+00  0.23150093895E+03  0.23150093895E+03  0.00000000000E+00 0.  1.
          2   -1    0    0  501    0  0.00000000000E+00 -0.00000000000E+00 -0.11360029011E+03  0.11360029011E+03  0.00000000000E+00 0. -1.
         23    2    1    2    0    0 -0.60201801421E+02 -0.14530656348E+02 -0.53680878989E+02  0.12396971037E+03  0.93013200420E+02 0.  0.
          5    1    1    2  502    0  0.32740631227E+02 -0.51798689717E+02  0.47393248131E+02  0.77609684692E+02  0.47000000000E+01 0. -1.
         -5    1    1    2    0  502  0.27461170194E+02  0.66329346065E+02  0.12418827971E+03  0.14352183400E+03  0.47000000000E+01 0. -1.
        -11    1    3    3    0    0 -0.73917387425E+02 -0.40217242107E+01 -0.71939345835E+01  0.74375447052E+02  0.00000000000E+00 0.  1.
         11    1    3    3    0    0  0.13715586004E+02 -0.10508932137E+02 -0.46486944405E+02  0.49594263320E+02  0.00000000000E+00 0. -1.
<mgrwt>
<rscale>  0 0.13197030E+03</rscale>
<asrwt>0</asrwt>
<pdfrwt beam="2">  1        2 0.17476968E-01 0.13949526E+03</pdfrwt>
<pdfrwt beam="1">  1       -2 0.35615529E-01 0.13949526E+03</pdfrwt>
<totfact> 0.23403964E+03</totfact>
</mgrwt>
</event>
<event>
 7    1  0.1254976E-005  0.1640590E+03  0.7546771E-02  0.1190683E+00
          2   -1    0    0  501    0  0.00000000000E+00  0.00000000000E+00  0.10044350440E+04  0.10044350440E+04  0.00000000000E+00 0. -1.
         -2   -1    0    0    0  501 -0.00000000000E+00 -0.00000000000E+00 -0.23871769462E+02  0.23871769462E+02  0.00000000000E+00 0.  1.
         23    2    1    2    0    0  0.49124358608E+02 -0.94224161044E+02  0.53375698579E+03  0.55233283790E+03  0.94253110396E+02 0.  0.
          5    1    1    2  502    0  0.34348246709E+02 -0.36928648644E+01  0.11019407878E+03  0.11557795768E+03  0.47000000000E+01 0. -1.
         -5    1    1    2    0  502 -0.83472605317E+02  0.97917025908E+02  0.33661220998E+03  0.36039601788E+03  0.47000000000E+01 0. -1.
        -11    1    3    3    0    0  0.68313095752E+02 -0.29976202419E+02  0.30133967372E+03  0.31043654862E+03  0.00000000000E+00 0.  1.
         11    1    3    3    0    0 -0.19188737145E+02 -0.64247958625E+02  0.23241731206E+03  0.24189628928E+03  0.00000000000E+00 0. -1.
<mgrwt>
<rscale>  0 0.15825299E+03</rscale>
<asrwt>0</asrwt>
<pdfrwt beam="1">  1        2 0.15452844E+00 0.16405903E+03</pdfrwt>
<pdfrwt beam="2">  1       -2 0.36725807E-02 0.16405903E+03</pdfrwt>
<totfact> 0.79714749E+03</totfact>
</mgrwt>
</event>
<event>
 7    1  0.1254976E-005  0.1770226E+03  0.7546771E-02  0.1174097E+00
         -1   -1    0    0    0  501 -0.00000000000E+00  0.00000000000E+00  0.18424103455E+03  0.18424103455E+03  0.00000000000E+00 0.  1.
          1   -1    0    0  501    0  0.00000000000E+00 -0.00000000000E+00 -0.16846006479E+03  0.16846006479E+03  0.00000000000E+00 0. -1.
         23    2    1    2    0    0  0.12342448748E+02  0.12473716254E+03 -0.36901629278E+02  0.16800552160E+03  0.10560506278E+03 0.  0.
          5    1    1    2  502    0 -0.81166286491E+01 -0.96433874570E+02  0.93485538968E+02  0.13463657683E+03  0.47000000000E+01 0.  1.
         -5    1    1    2    0  502 -0.42258200985E+01 -0.28303287969E+02 -0.40802939924E+02  0.50059000908E+02  0.47000000000E+01 0.  1.
        -11    1    3    3    0    0  0.36477824757E+02  0.36584417811E+02  0.25225251059E+02  0.57492300498E+02  0.00000000000E+00 0.  1.
         11    1    3    3    0    0 -0.24135376009E+02  0.88152744728E+02 -0.62126880337E+02  0.11051322110E+03  0.00000000000E+00 0. -1.
<mgrwt>
<rscale>  0 0.17364733E+03</rscale>
<asrwt>0</asrwt>
<pdfrwt beam="2">  1        1 0.25916933E-01 0.17702260E+03</pdfrwt>
<pdfrwt beam="1">  1       -1 0.28344775E-01 0.17702260E+03</pdfrwt>
<totfact> 0.20247468E+03</totfact>
</mgrwt>
</event>
<event>
 7    1  0.1254976E-005  0.1985739E+03  0.7546771E-02  0.1155431E+00
         -1   -1    0    0    0  501 -0.00000000000E+00  0.00000000000E+00  0.74174412011E+03  0.74174412011E+03  0.00000000000E+00 0.  1.
          1   -1    0    0  501    0  0.00000000000E+00 -0.00000000000E+00 -0.50458252947E+02  0.50458252947E+02  0.00000000000E+00 0. -1.
         23    2    1    2    0    0  0.79973884893E+01 -0.15409484625E+03  0.24037799804E+03  0.29950621280E+03  0.90073357344E+02 0.  0.
          5    1    1    2  502    0 -0.20861217092E+02  0.27465398555E+02  0.13858610747E+02  0.37465845622E+02  0.47000000000E+01 0.  1.
         -5    1    1    2    0  502  0.12863828602E+02  0.12662944770E+03  0.43704925838E+03  0.45523031463E+03  0.47000000000E+01 0.  1.
        -11    1    3    3    0    0 -0.50044290427E+01 -0.16112641208E+03  0.23202314296E+03  0.28252699667E+03  0.00000000000E+00 0.  1.
         11    1    3    3    0    0  0.13001817532E+02  0.70315658247E+01  0.83548550741E+01  0.16979216130E+02  0.00000000000E+00 0. -1.
<mgrwt>
<rscale>  0 0.19339871E+03</rscale>
<asrwt>0</asrwt>
<pdfrwt beam="2">  1        1 0.77628087E-02 0.19857392E+03</pdfrwt>
<pdfrwt beam="1">  1       -1 0.11411447E+00 0.19857392E+03</pdfrwt>
<totfact> 0.67283777E+02</totfact>
</mgrwt>
</event>
<event>
 7    1  0.1254976E-005  0.2179015E+03  0.7546771E-02  0.1138712E+00
         -2   -1    0    0    0  501 -0.00000000000E+00  0.00000000000E+00  0.55881449473E+02  0.55881449473E+02  0.00000000000E+00 0.  1.
          2   -1    0    0  501    0  0.00000000000E+00 -0.00000000000E+00 -0.87415923224E+03  0.87415923224E+03  0.00000000000E+00 0. -1.
         23    2    1    2    0    0 -0.14786376051E+03  0.99958921334E+02 -0.54184318309E+03  0.57805038862E+03  0.93234859872E+02 0.  0.
          5    1    1    2  502    0  0.63462588236E+02 -0.25373316980E+02 -0.19216249840E+02  0.71152368746E+02  0.47000000000E+01 0. -1.
         -5    1    1    2    0  502  0.84401172278E+02 -0.74585604354E+02 -0.25721834984E+03  0.28083792435E+03  0.47000000000E+01 0. -1.
        -11    1    3    3    0    0 -0.47483441135E+02  0.37578306148E+02 -0.32964177035E+03  0.33515743022E+03  0.00000000000E+00 0. -1.
         11    1    3    3    0    0 -0.10038031938E+03  0.62380615186E+02 -0.21220141274E+03  0.24289295840E+03  0.00000000000E+00 0.  1.
<mgrwt>
<rscale>  0 0.21364448E+03</rscale>
<asrwt>0</asrwt>
<pdfrwt beam="2">  1        2 0.13448602E+00 0.21790153E+03</pdfrwt>
<pdfrwt beam="1">  1       -2 0.85971469E-02 0.21790153E+03</pdfrwt>
<totfact> 0.26523668E+03</totfact>
</mgrwt>
</event>
<event>
 7    1  0.1254976E-005  0.2423814E+03  0.7546771E-02  0.1120763E+00
         -1   -1    0    0    0  501 -0.00000000000E+00  0.00000000000E+00  0.30917811190E+03  0.30917811190E+03  0.00000000000E+00 0.  1.
          1   -1    0    0  501    0  0.00000000000E+00 -0.00000000000E+00 -0.30048653444E+03  0.30048653444E+03  0.00000000000E+00 0. -1.
         23    2    1    2    0    0  0.12545484597E+02  0.20728329757E+03 -0.18993311594E+03  0.29629505658E+03  0.92695293238E+02 0.  0.
          5    1    1    2  502    0  0.27703044502E+02 -0.64384137551E+02  0.65356750087E+01  0.70551972975E+02  0.47000000000E+01 0.  1.
         -5    1    1    2    0  502 -0.40248529099E+02 -0.14289916002E+03  0.19208901840E+03  0.24281761678E+03  0.47000000000E+01 0.  1.
        -11    1    3    3    0    0 -0.34560319317E+02  0.46091711299E+02 -0.65847795069E+02  0.87491677531E+02  0.00000000000E+00 0. -1.
         11    1    3    3    0    0  0.47105803914E+02  0.16119158627E+03 -0.12408532087E+03  0.20880337905E+03  0.00000000000E+00 0.  1.
<mgrwt>
<rscale>  0 0.23854907E+03</rscale>
<asrwt>0</asrwt>
<pdfrwt beam="2">  1        1 0.46228697E-01 0.24238138E+03</pdfrwt>
<pdfrwt beam="1">  1       -1 0.47565864E-01 0.24238138E+03</pdfrwt>
<totfact> 0.39689805E+02</totfact>
</mgrwt>
</event>
<event>
 7    1  0.1254976E-005  0.2611749E+03  0.7546771E-02  0.1108706E+00
         -1   -1    0    0    0  501 -0.00000000000E+00  0.00000000000E+00  0.44838369605E+03  0.44838369605E+03  0.00000000000E+00 0.  1.
          1   -1    0    0  501    0  0.00000000000E+00 -0.00000000000E+00 -0.14620517485E+03  0.14620517485E+03  0.00000000000E+00 0. -1.
         23    2    1    2    0    0 -0.19001948945E+03  0.12838192143E+03  0.10772569700E+03  0.26897521811E+03  0.90296832951E+02 0.  0.
          5    1    1    2  502    0  0.15236806921E+03 -0.30214780243E+02  0.12597693377E+03  0.20005309121E+03  0.47000000000E+01 0.  1.
         -5    1    1    2    0  502  0.37651420238E+02 -0.98167141185E+02  0.68475890433E+02  0.12556056158E+03  0.47000000000E+01 0.  1.
        -11    1    3    3    0    0 -0.40657435742E+02  0.59538062301E+02 -0.49777039130E+00  0.72097543087E+02  0.00000000000E+00 0.  1.
         11    1    3    3    0    0 -0.14936205371E+03  0.68843859126E+02  0.10822346739E+03  0.19687767502E+03  0.00000000000E+00 0. -1.
<mgrwt>
<rscale>  0 0.25741599E+03</rscale>
<asrwt>0</asrwt>
<pdfrwt beam="2">  1        1 0.22493104E-01 0.26117494E+03</pdfrwt>
<pdfrwt beam="1">  1       -1 0.68982107E-01 0.26117494E+03</pdfrwt>
<totfact> 0.48567359E+02</totfact>
</mgrwt>
</event>
<event>
 7    1  0.1254976E-005  0.1277915E+03  0.7546771E-02  0.1246238E+00
          1   -1    0    0  501    0  0.00000000000E+00  0.00000000000E+00  0.34556689722E+03  0.34556689722E+03  0.00000000000E+00 0.  1.
         -1   -1    0    0    0  501 -0.00000000000E+00 -0.00000000000E+00 -0.35526149487E+02  0.35526149487E+02  0.00000000000E+00 0. -1.
         23    2    1    2    0    0 -0.98187604803E+01  0.24668078548E+02  0.14407598447E+03  0.17162950301E+03  0.89408471895E+02 0.  0.
          5    1    1    2  502    0  0.38345690556E+02 -0.35279083783E+02  0.13653012722E+02  0.54069404409E+02  0.47000000000E+01 0.  1.
         -5    1    1    2    0  502 -0.28526930075E+02  0.10611005236E+02  0.15231175054E+03  0.15539413929E+03  0.47000000000E+01 0.  1.
        -11    1    3    3    0    0 -0.28691328668E+02 -0.81867403010E+01  0.87408115901E+01  0.31090462279E+02  0.00000000000E+00 0. -1.
         11    1    3    3    0    0  0.18872568188E+02  0.32854818849E+02  0.13533517288E+03  0.14053904073E+03  0.00000000000E+00 0.  1.
<mgrwt>
<rscale>  0 0.11811606E+03</rscale>
<asrwt>0</asrwt>
<pdfrwt beam="1">  1        1 0.53164136E-01 0.12779152E+03</pdfrwt>
<pdfrwt beam="2">  1       -1 0.54655617E-02 0.12779152E+03</pdfrwt>
<totfact> 0.10603381E+04</totfact>
</mgrwt>
</event>
<event>
 7    1  0.1254976E-005  0.1878226E+03  0.7546771E-02  0.1165054E+00
          3   -1    0    0  501    0  0.00000000000E+00  0.00000000000E+00  0.21534676030E+03  0.21534676030E+03  0.00000000000E+00 0. -1.
         -3   -1    0    0    0  501 -0.00000000000E+00 -0.00000000000E+00 -0.15093762112E+03  0.15093762112E+03  0.00000000000E+00 0.  1.
         23    2    1    2    0    0 -0.55345264101E+02  0.12879873747E+03  0.57600487889E+02  0.17833840307E+03  0.93992322949E+02 0.  0.
          5    1    1    2  502    0  0.14629974655E+02 -0.14262629017E+03 -0.34405937987E+01  0.14349293534E+03  0.47000000000E+01 0.  1.
         -5    1    1    2    0  502  0.40715289446E+02  0.13827552707E+02  0.10249245090E+02  0.44453043016E+02  0.47000000000E+01 0.  1.
        -11    1    3    3    0    0 -0.68432513301E+02  0.89587508011E+02  0.72910502417E+02  0.13425673849E+03  0.00000000000E+00 0.  1.
         11    1    3    3    0    0  0.13087249200E+02  0.39211229454E+02 -0.15310014528E+02  0.44081664576E+02  0.00000000000E+00 0. -1.
<mgrwt>
<rscale>  0 0.18286951E+03</rscale>
<asrwt>0</asrwt>
<pdfrwt beam="1">  1        3 0.33130271E-01 0.18782261E+03</pdfrwt>
<pdfrwt beam="2">  1       -3 0.23221172E-01 0.18782261E+03</pdfrwt>
<totfact> 0.37101116E+02</totfact>
</mgrwt>
</event>
<event>
 7    1  0.1254976E-005  0.1658770E+03  0.7546771E-02  0.1189120E+00
          2   -1    0    0  501    0  0.00000000000E+00  0.00000000000E+00  0.33535076636E+03  0.33535076636E+03  0.00000000000E+00 0. -1.
         -2   -1    0    0    0  501 -0.00000000000E+00 -0.00000000000E+00 -0.71393426469E+02  0.71393426469E+02  0.00000000000E+00 0.  1.
         23    2    1    2    0    0 -0.37153446129E+02  0.10251708410E+03  0.14076378997E+03  0.20012417176E+03  0.91351565193E+02 0.  0.
          5    1    1    2  502    0  0.54112577392E+02  0.94335931476E+00  0.71035135061E+02  0.89426737456E+02  0.47000000000E+01 0. -1.
         -5    1    1    2    0  502 -0.16959131264E+02 -0.10346044341E+03  0.52158414858E+02  0.11719328362E+03  0.47000000000E+01 0. -1.
        -11    1    3    3    0    0 -0.44079790883E+01  0.88190326611E+02  0.13857248289E+03  0.16431462808E+03  0.00000000000E+00 0. -1.
         11    1    3    3    0    0 -0.32745467040E+02  0.14326757487E+02  0.21913070862E+01  0.35809543679E+02  0.00000000000E+00 0.  1.
<mgrwt>
<rscale>  0 0.15962584E+03</rscale>
<asrwt>0</asrwt>
<pdfrwt beam="1">  1        2 0.51592425E-01 0.16587701E+03</pdfrwt>
<pdfrwt beam="2">  1       -2 0.10983604E-01 0.16587701E+03</pdfrwt>
<totfact> 0.53576957E+03</totfact>
</mgrwt>
</event>
<event>
 7    1  0.1254976E-005  0.1753656E+03  0.7546771E-02  0.1178838E+00
          2   -1    0    0  501    0  0.00000000000E+00  0.00000000000E+00  0.11548980500E+04  0.11548980500E+04  0.00000000000E+00 0. -1.
         -2   -1    0    0    0  501 -0.00000000000E+00 -0.00000000000E+00 -0.23662598178E+02  0.23662598178E+02  0.00000000000E+00 0.  1.
         23    2    1    2    0    0  0.95427554399E+02 -0.77597706341E+02  0.43624544256E+03  0.46178716662E+03  0.88371256293E+02 0.  0.
          5    1    1    2  502    0  0.18355378152E+02  0.31010461270E+02  0.32129590938E+03  0.32334458400E+03  0.47000000000E+01 0.  1.
         -5    1    1    2    0  502 -0.11378293255E+03  0.46587245072E+02  0.37369409984E+03  0.39342889751E+03  0.47000000000E+01 0.  1.
        -11    1    3    3    0    0  0.56357062580E+02  0.72823961710E+01  0.13783568567E+03  0.14908999980E+03  0.00000000000E+00 0. -1.
         11    1    3    3    0    0  0.39070491818E+02 -0.84880102512E+02  0.29840975689E+03  0.31269716682E+03  0.00000000000E+00 0.  1.
<mgrwt>
<rscale>  0 0.16905429E+03</rscale>
<asrwt>0</asrwt>
<pdfrwt beam="1">  1        2 0.17767658E+00 0.17536565E+03</pdfrwt>
<pdfrwt beam="2">  1       -2 0.36404006E-02 0.17536565E+03</pdfrwt>
<totfact> 0.66166769E+03</totfact>
</mgrwt>
</event>
<event>
 7    1  0.1254976E-005  0.1377593E+03  0.7546771E-02  0.1227969E+00
         -1   -1    0    0    0  501 -0.00000000000E+00  0.00000000000E+00  0.16210767627E+03  0.16210767627E+03  0.00000000000E+00 0.  1.
          1   -1    0    0  501    0  0.00000000000E+00 -0.00000000000E+00 -0.11522188220E+03  0.11522188220E+03  0.00000000000E+00 0. -1.
         23    2    1    2    0    0  0.48442035848E+02 -0.31706816194E+02 -0.39090714259E+02  0.11494237266E+03  0.91278212407E+02 0.  0.
          5    1    1    2  502    0 -0.34690499311E+02  0.78653784161E+02  0.69205091779E+02  0.11045941894E+03  0.47000000000E+01 0.  1.
         -5    1    1    2    0  502 -0.13751536537E+02 -0.46946967966E+02  0.16771416551E+02  0.51927766864E+02  0.47000000000E+01 0.  1.
        -11    1    3    3    0    0  0.60702000266E+02 -0.95241843132E+01  0.75033166567E+01  0.61901071751E+02  0.00000000000E+00 0.  1.
         11    1    3    3    0    0 -0.12259964418E+02 -0.22182631881E+02 -0.46594030916E+02  0.53041300905E+02  0.00000000000E+00 0. -1.
<mgrwt>
<rscale>  0 0.12965468E+03</rscale>
<asrwt>0</asrwt>
<pdfrwt beam="2">  1        1 0.17726443E-01 0.13775935E+03</pdfrwt>
<pdfrwt beam="1">  1       -1 0.24939642E-01 0.13775935E+03</pdfrwt>
<totfact> 0.40132004E+03</totfact>
</mgrwt>
</event>
<event>
 7    1  0.1254976E-005  0.1973228E+03  0.7546771E-02  0.1168305E+00
         -2   -1    0    0    0  501 -0.00000000000E+00  0.00000000000E+00  0.23330176665E+03  0.23330176665E+03  0.00000000000E+00 0.  1.
          2   -1    0    0  501    0  0.00000000000E+00 -0.00000000000E+00 -0.11839173484E+03  0.11839173484E+03  0.00000000000E+00 0. -1.
         23    2    1    2    0    0  0.83012761783E+02  0.53347627126E+02  0.46776939734E+02  0.14293912572E+03  0.92230275027E+02 0.  0.
          5    1    1    2  502    0 -0.34799735653E+02 -0.10273940035E+03 -0.42096218025E+01  0.10865641675E+03  0.47000000000E+01 0. -1.
         -5    1    1    2    0  502 -0.48213026130E+02  0.49391773220E+02  0.72342713873E+02  0.10009795903E+03  0.47000000000E+01 0.  1.
        -11    1    3    3    0    0  0.85553055032E+02  0.74296355571E+02  0.44417936083E+02  0.12170549175E+03  0.00000000000E+00 0.  1.
         11    1    3    3    0    0 -0.25402932490E+01 -0.20948728445E+02  0.23590036514E+01  0.21233633968E+02  0.00000000000E+00 0. -1.
<mgrwt>
<rscale>  0 0.17948222E+03</rscale>
<asrwt>0</asrwt>
<pdfrwt beam="2">  1        2 0.18214113E-01 0.19732276E+03</pdfrwt>
<pdfrwt beam="1">  1       -2 0.35892580E-01 0.19732276E+03</pdfrwt>
<totfact> 0.22336215E+03</totfact>
</mgrwt>
</event>
<event>
 7    1  0.1254976E-005  0.1162939E+03  0.7546771E-02  0.1257772E+00
          1   -1    0    0  501    0  0.00000000000E+00  0.00000000000E+00  0.75296334367E+02  0.75296334367E+02  0.00000000000E+00 0. -1.
         -1   -1    0    0    0  501 -0.00000000000E+00 -0.00000000000E+00 -0.15321007845E+03  0.15321007845E+03  0.00000000000E+00 0.  1.
         23    2    1    2    0    0  0.25414247429E+02  0.91825205399E+00 -0.31317242296E+02  0.10322474703E+03  0.95015007108E+02 0.  0.
          5    1    1    2  502    0 -0.28566499379E+02  0.32401878907E+02  0.22079888032E+02  0.48739492191E+02  0.47000000000E+01 0. -1.
         -5    1    1    2    0  502  0.31522519499E+01 -0.33320130961E+02 -0.68676389817E+02  0.76542173591E+02  0.47000000000E+01 0.  1.
        -11    1    3    3    0    0  0.72490767208E+01  0.47578627219E+02 -0.18293186048E+02  0.51487042420E+02  0.00000000000E+00 0. -1.
         11    1    3    3    0    0  0.18165170709E+02 -0.46660375165E+02 -0.13024056248E+02  0.51737704613E+02  0.00000000000E+00 0.  1.
<mgrwt>
<rscale>  0 0.11152484E+03</rscale>
<asrwt>0</asrwt>
<pdfrwt beam="1">  1        1 0.11584052E-01 0.11629386E+03</pdfrwt>
<pdfrwt beam="2">  1       -1 0.23570781E-01 0.11629386E+03</pdfrwt>
<totfact> 0.75480948E+03</totfact>
</mgrwt>
</event>
<event>
 7    1  0.1254976E-005  0.1604281E+03  0.7546771E-02  0.1195222E+00
          1   -1    0    0  501    0  0.00000000000E+00  0.00000000000E+00  0.66429807963E+03  0.66429807963E+03  0.00000000000E+00 0. -1.
         -1   -1    0    0    0  501 -0.00000000000E+00 -0.00000000000E+00 -0.34371187946E+02  0.34371187946E+02  0.00000000000E+00 0.  1.
         23    2    1    2    0    0  0.98196302449E+02 -0.21677797723E+02  0.34995118647E+03  0.37598742604E+03  0.93745778060E+02 0.  0.
          5    1    1    2  502    0 -0.57687940347E+02 -0.10950021284E+02  0.26028418955E+03  0.26686654110E+03  0.47000000000E+01 0.  1.
         -5    1    1    2    0  502 -0.40508362102E+02  0.32627819007E+02  0.19691515665E+02  0.55815300434E+02  0.47000000000E+01 0.  1.
        -11    1    3    3    0    0  0.80841503229E+02 -0.55780716298E+02  0.27106165550E+03  0.28830757541E+03  0.00000000000E+00 0. -1.
         11    1    3    3    0    0  0.17354799220E+02  0.34102918575E+02  0.78889530969E+02  0.87679850637E+02  0.00000000000E+00 0.  1.
<mgrwt>
<rscale>  0 0.15435479E+03</rscale>
<asrwt>0</asrwt>
<pdfrwt beam="1">  1        1 0.10219969E+00 0.16042810E+03</pdfrwt>
<pdfrwt beam="2">  1       -1 0.52878756E-02 0.16042810E+03</pdfrwt>
<totfact> 0.48070483E+03</totfact>
</mgrwt>
</event>
<event>
 7    1  0.1254976E-005  0.1337232E+03  0.7546771E-02  0.1234573E+00
         -1   -1    0    0    0  501 -0.00000000000E+00  0.00000000000E+00  0.69222989135E+03  0.69222989135E+03  0.00000000000E+00 0.  1.
          1   -1    0    0  501    0  0.00000000000E+00 -0.00000000000E+00 -0.24911415533E+02  0.24911415533E+02  0.00000000000E+00 0. -1.
         23    2    1    2    0    0 -0.99620376465E+01 -0.46453216160E+02  0.14477367657E+03  0.17775743753E+03  0.91548597393E+02 0.  0.
          5    1    1    2  502    0  0.53852694798E+01  0.85219890930E+02  0.25482439292E+03  0.26879172637E+03  0.47000000000E+01 0. -1.
         -5    1    1    2    0  502  0.45767681667E+01 -0.38766674769E+02  0.26772040633E+03  0.27059214298E+03  0.47000000000E+01 0. -1.
        -11    1    3    3    0    0 -0.14371902421E+02 -0.58910001843E+02  0.15131493461E+03  0.16301272752E+03  0.00000000000E+00 0.  1.
         11    1    3    3    0    0  0.44098647747E+01  0.12456785682E+02 -0.65412580356E+01  0.14744710019E+02  0.00000000000E+00 0. -1.
<mgrwt>
<rscale>  0 0.12531816E+03</rscale>
<asrwt>0</asrwt>
<pdfrwt beam="2">  1        1 0.38325260E-02 0.13372319E+03</pdfrwt>
<pdfrwt beam="1">  1       -1 0.10649689E+00 0.13372319E+03</pdfrwt>
<totfact> 0.20461009E+03</totfact>
</mgrwt>
</event>
<event>
 7    1  0.1254976E-005  0.1450322E+03  0.7546771E-02  0.1216523E+00
          3   -1    0    0  501    0  0.00000000000E+00  0.00000000000E+00  0.11903553177E+03  0.11903553177E+03  0.00000000000E+00 0. -1.
         -3   -1    0    0    0  501 -0.00000000000E+00 -0.00000000000E+00 -0.14559236242E+03  0.14559236242E+03  0.00000000000E+00 0.  1.
         23    2    1    2    0    0 -0.72334501468E+02 -0.13232407669E+02 -0.32647064051E+01  0.11773723646E+03  0.91891358816E+02 0.  0.
          5    1    1    2  502    0 -0.12999412718E+02 -0.18039952305E+01  0.38115478953E+02  0.40584712216E+02  0.47000000000E+01 0. -1.
         -5    1    1    2    0  502  0.85333914186E+02  0.15036402899E+02 -0.61407603202E+02  0.10630594552E+03  0.47000000000E+01 0. -1.
        -11    1    3    3    0    0  0.21445728069E+02 -0.27941929809E+01  0.72125841665E+01  0.22797985376E+02  0.00000000000E+00 0.  1.
         11    1    3    3    0    0 -0.93780229537E+02 -0.10438214688E+02 -0.10477290572E+02  0.94939251080E+02  0.00000000000E+00 0. -1.
<mgrwt>
<rscale>  0 0.13765280E+03</rscale>
<asrwt>0</asrwt>
<pdfrwt beam="1">  1        3 0.18313159E-01 0.14503221E+03</pdfrwt>
<pdfrwt beam="2">  1       -3 0.22398825E-01 0.14503221E+03</pdfrwt>
<totfact> 0.11188854E+03</totfact>
</mgrwt>
</event>
<event>
 7    1  0.1254976E-005  0.1315454E+03  0.7546771E-02  0.1239817E+00
          1   -1    0    0  501    0  0.00000000000E+00  0.00000000000E+00  0.73467368103E+02  0.73467368103E+02  0.00000000000E+00 0. -1.
         -1   -1    0    0    0  501 -0.00000000000E+00 -0.00000000000E+00 -0.18669461095E+03  0.18669461095E+03  0.00000000000E+00 0.  1.
         23    2    1    2    0    0  0.12482740192E+02 -0.39023658666E+02 -0.21240843213E+02  0.99645025744E+02  0.88313605954E+02 0.  0.
          5    1    1    2  502    0  0.56362724030E+02  0.19554286411E+02 -0.42336505300E+02  0.73304818793E+02  0.47000000000E+01 0. -1.
         -5    1    1    2    0  502 -0.68845464223E+02  0.19469372255E+02 -0.49649894338E+02  0.87212134522E+02  0.47000000000E+01 0. -1.
        -11    1    3    3    0    0 -0.15227002316E+02  0.24029235298E+02 -0.50114809566E+01  0.28885648511E+02  0.00000000000E+00 0.  1.
         11    1    3    3    0    0  0.27709742509E+02 -0.63052893964E+02 -0.16229362256E+02  0.70759377233E+02  0.00000000000E+00 0. -1.
<mgrwt>
<rscale>  0 0.12201019E+03</rscale>
<asrwt>0</asrwt>
<pdfrwt beam="1">  1        1 0.11302672E-01 0.13154541E+03</pdfrwt>
<pdfrwt beam="2">  1       -1 0.28722247E-01 0.13154541E+03</pdfrwt>
<totfact> 0.56821885E+03</totfact>
</mgrwt>
</event>
<event>
 7    1  0.1254976E-005  0.1464697E+03  0.7546771E-02  0.1213500E+00
         -2   -1    0    0    0  501 -0.00000000000E+00  0.00000000000E+00  0.15517837189E+03  0.15517837189E+03  0.00000000000E+00 0.  1.
          2   -1    0    0  501    0  0.00000000000E+00 -0.00000000000E+00 -0.11963762123E+03  0.11963762123E+03  0.00000000000E+00 0. -1.
         23    2    1    2    0    0 -0.74241257552E+02 -0.17895978433E+02 -0.78152523371E+01  0.12206416713E+03  0.94902857502E+02 0.  0.
          5    1    1    2  502    0  0.38333170156E+02  0.64738723141E+02 -0.60660354529E+01  0.75626853658E+02  0.47000000000E+01 0. -1.
         -5    1    1    2    0  502  0.35908087396E+02 -0.46842744709E+02  0.49422038450E+02  0.77124972329E+02  0.47000000000E+01 0. -1.
        -11    1    3    3    0    0 -0.37872324649E+02 -0.56500396711E+02  0.23559717004E+01  0.68059961839E+02  0.00000000000E+00 0.  1.
         11    1    3    3    0    0 -0.36368932902E+02  0.38604418278E+02 -0.10171224037E+02  0.54004205294E+02  0.00000000000E+00 0. -1.
<mgrwt>
<rscale>  0 0.13987333E+03</rscale>
<asrwt>0</asrwt>
<pdfrwt beam="2">  1        2 0.18405788E-01 0.14646971E+03</pdfrwt>
<pdfrwt beam="1">  1       -2 0.23873596E-01 0.14646971E+03</pdfrwt>
<totfact> 0.45297134E+03</totfact>
</mgrwt>
</event>
<event>
 7    1  0.1254976E-005  0.1343121E+03  0.7546771E-02  0.1234237E+00
         -1   -1    0    0    0  501 -0.00000000000E+00  0.00000000000E+00  0.11270788046E+03  0.11270788046E+03  0.00000000000E+00 0.  1.
          1   -1    0    0  501    0  0.00000000000E+00 -0.00000000000E+00 -0.12865252500E+03  0.12865252500E+03  0.00000000000E+00 0. -1.
         23    2    1    2    0    0 -0.46125865716E+02 -0.16818883389E+02 -0.28720755806E+02  0.10644201312E+03  0.89969717218E+02 0.  0.
          5    1    1    2  502    0  0.69156164068E+02  0.53405538135E+02  0.22517932016E+02  0.90354157593E+02  0.47000000000E+01 0.  1.
         -5    1    1    2    0  502 -0.23030298352E+02 -0.36586654746E+02 -0.97418207451E+01  0.44564234753E+02  0.47000000000E+01 0.  1.
        -11    1    3    3    0    0 -0.57320229840E+02  0.17546239760E+02 -0.35500825447E+02  0.69669131515E+02  0.00000000000E+00 0. -1.
         11    1    3    3    0    0  0.11194364124E+02 -0.34365123149E+02  0.67800696402E+01  0.36772881605E+02  0.00000000000E+00 0.  1.
<mgrwt>
<rscale>  0 0.12553389E+03</rscale>
<asrwt>0</asrwt>
<pdfrwt beam="2">  1        1 0.19792696E-01 0.13431211E+03</pdfrwt>
<pdfrwt beam="1">  1       -1 0.17339674E-01 0.13431211E+03</pdfrwt>
<totfact> 0.62545997E+03</totfact>
</mgrwt>
</event>
<event>
 7    1  0.1254976E-005  0.1554121E+03  0.7546771E-02  0.1202229E+00
         -1   -1    0    0    0  501 -0.00000000000E+00  0.00000000000E+00  0.44422195146E+03  0.44422195146E+03  0.00000000000E+00 0.  1.
          1   -1    0    0  501    0  0.00000000000E+00 -0.00000000000E+00 -0.71784386399E+02  0.71784386399E+02  0.00000000000E+00 0. -1.
         23    2    1    2    0    0  0.22773037212E+02 -0.89496460337E+02  0.20711180203E+02  0.13147495508E+03  0.91260523730E+02 0.  0.
          5    1    1    2  502    0 -0.22753126437E+02 -0.28807613372E+02  0.82371982000E+02  0.90304024104E+02  0.47000000000E+01 0. -1.
         -5    1    1    2    0  502 -0.19910775437E-01  0.11830407371E+03  0.26935440286E+03  0.29422735868E+03  0.47000000000E+01 0. -1.
        -11    1    3    3    0    0  0.12236584891E+02 -0.94433516593E+02 -0.12727318572E+02  0.96069806412E+02  0.00000000000E+00 0. -1.
         11    1    3    3    0    0  0.10536452321E+02  0.49370562559E+01  0.33438498775E+02  0.35405148670E+02  0.00000000000E+00 0.  1.
<mgrwt>
<rscale>  0 0.14857999E+03</rscale>
<asrwt>0</asrwt>
<pdfrwt beam="2">  1        1 0.11043752E-01 0.15541214E+03</pdfrwt>
<pdfrwt beam="1">  1       -1 0.68341837E-01 0.15541214E+03</pdfrwt>
<totfact> 0.12440999E+03</totfact>
</mgrwt>
</event>
<event>
 7    1  0.1254976E-005  0.1659879E+03  0.7546771E-02  0.1188937E+00
         -2   -1    0    0    0  501 -0.00000000000E+00  0.00000000000E+00  0.16335465560E+03  0.16335465560E+03  0.00000000000E+00 0.  1.
          2   -1    0    0  501    0  0.00000000000E+00 -0.00000000000E+00 -0.16119819913E+03  0.16119819913E+03  0.00000000000E+00 0. -1.
         23    2    1    2    0    0 -0.16227464688E+02 -0.10799833549E+03 -0.49212889986E+02  0.15079792074E+03  0.91603129207E+02 0.  0.
          5    1    1    2  502    0  0.10823566430E+02  0.73672826654E+02  0.93060966905E+02  0.11927811425E+03  0.47000000000E+01 0. -1.
         -5    1    1    2    0  502  0.54038982582E+01  0.34325508834E+02 -0.41691620450E+02  0.54476819739E+02  0.47000000000E+01 0. -1.
        -11    1    3    3    0    0 -0.37284654674E+02 -0.59020362801E+02  0.10670342745E+02  0.70621561252E+02  0.00000000000E+00 0.  1.
         11    1    3    3    0    0  0.21057189985E+02 -0.48977972687E+02 -0.59883232732E+02  0.80176359489E+02  0.00000000000E+00 0. -1.
<mgrwt>
<rscale>  0 0.15978744E+03</rscale>
<asrwt>0</asrwt>
<pdfrwt beam="2">  1        2 0.24799723E-01 0.16598785E+03</pdfrwt>
<pdfrwt beam="1">  1       -2 0.25131486E-01 0.16598785E+03</pdfrwt>
<totfact> 0.29795121E+03</totfact>
</mgrwt>
</event>
<event>
 7    1  0.1254976E-005  0.1253436E+03  0.7546771E-02  0.1249798E+00
         -2   -1    0    0    0  501 -0.00000000000E+00  0.00000000000E+00  0.54543888092E+02  0.54543888092E+02  0.00000000000E+00 0.  1.
          2   -1    0    0  501    0  0.00000000000E+00 -0.00000000000E+00 -0.36108978944E+03  0.36108978944E+03  0.00000000000E+00 0. -1.
         23    2    1    2    0    0  0.81419996841E+01 -0.46832714936E+01 -0.26972482600E+03  0.28499371567E+03  0.91551684986E+02 0.  0.
          5    1    1    2  502    0  0.34591524634E+02  0.33381246969E+02  0.21360942396E+02  0.52813455537E+02  0.47000000000E+01 0. -1.
         -5    1    1    2    0  502 -0.42733524318E+02 -0.28697975475E+02 -0.58182017748E+02  0.77826506322E+02  0.47000000000E+01 0. -1.
        -11    1    3    3    0    0 -0.26601704972E+02  0.31894135217E+02 -0.11702774458E+03  0.12417882094E+03  0.00000000000E+00 0.  1.
         11    1    3    3    0    0  0.34743704656E+02 -0.36577406710E+02 -0.15269708141E+03  0.16081489473E+03  0.00000000000E+00 0. -1.
<mgrwt>
<rscale>  0 0.11602766E+03</rscale>
<asrwt>0</asrwt>
<pdfrwt beam="2">  1        2 0.55552275E-01 0.12534356E+03</pdfrwt>
<pdfrwt beam="1">  1       -2 0.83913674E-02 0.12534356E+03</pdfrwt>
<totfact> 0.74270039E+03</totfact>
</mgrwt>
</event>
<event>
 7    1  0.1254976E-005  0.1476303E+03  0.7546771E-02  0.1213116E+00
          1   -1    0    0  501    0  0.00000000000E+00  0.00000000000E+00  0.11849586718E+03  0.11849586718E+03  0.00000000000E+00 0. -1.
         -1   -1    0    0    0  501 -0.00000000000E+00 -0.00000000000E+00 -0.19847213266E+03  0.19847213266E+03  0.00000000000E+00 0.  1.
         23    2    1    2    0    0  0.65027114929E+02 -0.44052313536E+02  0.40320657450E+02  0.12653154257E+03  0.90638533997E+02 0.  0.
          5    1    1    2  502    0 -0.15668901310E+02  0.55615651763E+02 -0.12649718632E+03  0.13914827823E+03  0.47000000000E+01 0. -1.
         -5    1    1    2    0  502 -0.49358213619E+02 -0.11563338227E+02  0.62002633871E+01  0.51288179034E+02  0.47000000000E+01 0. -1.
        -11    1    3    3    0    0 -0.17830449415E+02 -0.19935754395E+02  0.29075152267E+02  0.39505995862E+02  0.00000000000E+00 0.  1.
         11    1    3    3    0    0  0.82857564344E+02 -0.24116559141E+02  0.11245505183E+02  0.87025546713E+02  0.00000000000E+00 0. -1.
<mgrwt>
<rscale>  0 0.14015813E+03</rscale>
<asrwt>0</asrwt>
<pdfrwt beam="1">  1        1 0.18230134E-01 0.14763026E+03</pdfrwt>
<pdfrwt beam="2">  1       -1 0.30534174E-01 0.14763026E+03</pdfrwt>
<totfact> 0.27742015E+03</totfact>
</mgrwt>
</event>
<event>
 7    1  0.1254976E-005  0.1307320E+03  0.7546771E-02  0.1238872E+00
          1   -1    0    0  501    0  0.00000000000E+00  0.00000000000E+00  0.19936465817E+03  0.19936465817E+03  0.00000000000E+00 0. -1.
         -1   -1    0    0    0  501 -0.00000000000E+00 -0.00000000000E+00 -0.69244636152E+02  0.69244636152E+02  0.00000000000E+00 0.  1.
         23    2    1    2    0    0 -0.17770659557E+02  0.33934660113E+02  0.78705484781E+02  0.12813039123E+03  0.93570755707E+02 0.  0.
          5    1    1    2  502    0  0.23852814839E+02 -0.65032483045E+02 -0.11028360936E+02  0.70298615717E+02  0.47000000000E+01 0.  1.
         -5    1    1    2    0  502 -0.60821552826E+01  0.31097822932E+02  0.62442898174E+02  0.70180287378E+02  0.47000000000E+01 0.  1.
        -11    1    3    3    0    0 -0.85988727144E+01 -0.57282665121E+01 -0.19363453171E+02  0.21947595948E+02  0.00000000000E+00 0.  1.
         11    1    3    3    0    0 -0.91717868423E+01  0.39662926625E+02  0.98068937952E+02  0.10618279528E+03  0.00000000000E+00 0. -1.
<mgrwt>
<rscale>  0 0.12259789E+03</rscale>
<asrwt>0</asrwt>
<pdfrwt beam="1">  1        1 0.30671486E-01 0.13073204E+03</pdfrwt>
<pdfrwt beam="2">  1       -1 0.10653021E-01 0.13073204E+03</pdfrwt>
<totfact> 0.76857457E+03</totfact>
</mgrwt>
</event>
<event>
 7    1  0.1254976E-005  0.2094772E+03  0.7546771E-02  0.1145861E+00
         -2   -1    0    0    0  501 -0.00000000000E+00  0.00000000000E+00  0.10567066307E+03  0.10567066307E+03  0.00000000000E+00 0. -1.
          2   -1    0    0  501    0  0.00000000000E+00 -0.00000000000E+00 -0.39226903970E+03  0.39226903970E+03  0.00000000000E+00 0.  1.
         23    2    1    2    0    0 -0.24232809996E+02  0.16633985109E+03 -0.18223203355E+03  0.26390332918E+03  0.90444889080E+02 0.  0.
          5    1    1    2  502    0 -0.14099830159E+02 -0.16067980693E+03 -0.53674414354E+02  0.17005833799E+03  0.47000000000E+01 0.  1.
         -5    1    1    2    0  502  0.38332640155E+02 -0.56600441672E+01 -0.50691928727E+02  0.63978035600E+02  0.47000000000E+01 0.  1.
        -11    1    3    3    0    0 -0.46773016239E+02  0.11454854133E+03 -0.16213039234E+03  0.20394937482E+03  0.00000000000E+00 0.  1.
         11    1    3    3    0    0  0.22540206243E+02  0.51791309767E+02 -0.20101641210E+02  0.59953954367E+02  0.00000000000E+00 0. -1.
<mgrwt>
<rscale>  0 0.20466546E+03</rscale>
<asrwt>0</asrwt>
<pdfrwt beam="2">  1        2 0.60349082E-01 0.20947718E+03</pdfrwt>
<pdfrwt beam="1">  1       -2 0.16257025E-01 0.20947718E+03</pdfrwt>
<totfact> 0.24152980E+03</totfact>
</mgrwt>
</event>
<event>
 7    1  0.1254976E-005  0.3027609E+03  0.7546771E-02  0.1085526E+00
          1   -1    0    0  501    0  0.00000000000E+00  0.00000000000E+00  0.14273195015E+04  0.14273195015E+04  0.00000000000E+00 0. -1.
         -1   -1    0    0    0  501 -0.00000000000E+00 -0.00000000000E+00 -0.61885653440E+02  0.61885653440E+02  0.00000000000E+00 0.  1.
         23    2    1    2    0    0 -0.26115370729E+03  0.88547452173E+02  0.60674261173E+03  0.67233518428E+03  0.88634603958E+02 0.  0.
          5    1    1    2  502    0  0.17845181012E+03 -0.35842203505E+02  0.62511979610E+03  0.65109643031E+03  0.47000000000E+01 0. -1.
         -5    1    1    2    0  502  0.82701897178E+02 -0.52705248668E+02  0.13357144024E+03  0.16577354036E+03  0.47000000000E+01 0. -1.
        -11    1    3    3    0    0 -0.22429758081E+03  0.76904508530E+02  0.42637081539E+03  0.48786860978E+03  0.00000000000E+00 0.  1.
         11    1    3    3    0    0 -0.36856126487E+02  0.11642943643E+02  0.18037179634E+03  0.18446657451E+03  0.00000000000E+00 0. -1.
<mgrwt>
<rscale>  0 0.29942895E+03</rscale>
<asrwt>0</asrwt>
<pdfrwt beam="1">  1        1 0.21958759E+00 0.30276089E+03</pdfrwt>
<pdfrwt beam="2">  1       -1 0.95208708E-02 0.30276089E+03</pdfrwt>
<totfact> 0.52580867E+02</totfact>
</mgrwt>
</event>
<event>
 7    1  0.1254976E-005  0.2319179E+03  0.7546771E-02  0.1128268E+00
          2   -1    0    0  501    0  0.00000000000E+00  0.00000000000E+00  0.40706306216E+03  0.40706306216E+03  0.00000000000E+00 0. -1.
         -2   -1    0    0    0  501 -0.00000000000E+00 -0.00000000000E+00 -0.12429486458E+03  0.12429486458E+03  0.00000000000E+00 0.  1.
         23    2    1    2    0    0 -0.79932952764E+02  0.17824976797E+03  0.10861693843E+03  0.24133281897E+03  0.91003480611E+02 0.  0.
          5    1    1    2  502    0  0.85133067927E+02 -0.42115081272E+02  0.81055375975E+02  0.12495352456E+03  0.47000000000E+01 0.  1.
         -5    1    1    2    0  502 -0.52001151624E+01 -0.13613468669E+03  0.93095883179E+02  0.16507158321E+03  0.47000000000E+01 0.  1.
        -11    1    3    3    0    0  0.22712343274E+01  0.10180257111E+03  0.37868923675E+02  0.10864150851E+03  0.00000000000E+00 0.  1.
         11    1    3    3    0    0 -0.82204187092E+02  0.76447196854E+02  0.70748014752E+02  0.13269131047E+03  0.00000000000E+00 0. -1.
<mgrwt>
<rscale>  0 0.22770195E+03</rscale>
<asrwt>0</asrwt>
<pdfrwt beam="1">  1        2 0.62625086E-01 0.23191788E+03</pdfrwt>
<pdfrwt beam="2">  1       -2 0.19122287E-01 0.23191788E+03</pdfrwt>
<totfact> 0.17701214E+03</totfact>
</mgrwt>
</event>
<event>
 7    1  0.1254976E-005  0.2687261E+03  0.7546771E-02  0.1109309E+00
          2   -1    0    0  501    0  0.00000000000E+00  0.00000000000E+00  0.75311079767E+03  0.75311079767E+03  0.00000000000E+00 0. -1.
         -2   -1    0    0    0  501 -0.00000000000E+00 -0.00000000000E+00 -0.23230645824E+03  0.23230645824E+03  0.00000000000E+00 0.  1.
         23    2    1    2    0    0  0.11226698273E+02  0.19194839684E+03  0.65008714701E+03  0.68720971512E+03  0.11257738690E+03 0.  0.
          5    1    1    2  502    0 -0.39221031115E+02 -0.13124495843E+03  0.16217703977E+02  0.13801678274E+03  0.47000000000E+01 0. -1.
         -5    1    1    2    0  502  0.27994332842E+02 -0.60703438408E+02 -0.14550051155E+03  0.16019075806E+03  0.47000000000E+01 0.  1.
        -11    1    3    3    0    0  0.24951136056E+02  0.37180119448E+02  0.49049808795E+02  0.66413885713E+02  0.00000000000E+00 0.  1.
         11    1    3    3    0    0 -0.13724437782E+02  0.15476827739E+03  0.60103733821E+03  0.62079582940E+03  0.00000000000E+00 0. -1.
<mgrwt>
<rscale>  0 0.25642807E+03</rscale>
<asrwt>0</asrwt>
<pdfrwt beam="1">  1        2 0.11586320E+00 0.26872606E+03</pdfrwt>
<pdfrwt beam="2">  1       -2 0.35739455E-01 0.26872606E+03</pdfrwt>
<totfact> 0.28531662E+02</totfact>
</mgrwt>
</event>
<event>
 7    1  0.1254976E-005  0.1528101E+03  0.7546771E-02  0.1204015E+00
          2   -1    0    0  501    0  0.00000000000E+00  0.00000000000E+00  0.15815410495E+03  0.15815410495E+03  0.00000000000E+00 0. -1.
         -2   -1    0    0    0  501 -0.00000000000E+00 -0.00000000000E+00 -0.13112625111E+03  0.13112625111E+03  0.00000000000E+00 0.  1.
         23    2    1    2    0    0  0.85749469051E+02  0.19336271516E+02  0.35859695472E+02  0.13621521547E+03  0.97682159722E+02 0.  0.
          5    1    1    2  502    0 -0.89465806196E+02  0.71565112177E+01  0.39069070832E+02  0.97999124622E+02  0.47000000000E+01 0.  1.
         -5    1    1    2    0  502  0.37163371452E+01 -0.26492782733E+02 -0.47900912468E+02  0.55066015963E+02  0.47000000000E+01 0.  1.
        -11    1    3    3    0    0  0.12899587877E+02  0.48856062623E+01  0.57280967557E+02  0.58918399166E+02  0.00000000000E+00 0. -1.
         11    1    3    3    0    0  0.72849881174E+02  0.14450665253E+02 -0.21421272085E+02  0.77296816306E+02  0.00000000000E+00 0.  1.
<mgrwt>
<rscale>  0 0.14715379E+03</rscale>
<asrwt>0</asrwt>
<pdfrwt beam="1">  1        2 0.24331401E-01 0.15281013E+03</pdfrwt>
<pdfrwt beam="2">  1       -2 0.20173269E-01 0.15281013E+03</pdfrwt>
<totfact> 0.44281933E+03</totfact>
</mgrwt>
</event>
<event>
 7    1  0.1254976E-005  0.2407614E+03  0.7546771E-02  0.1121922E+00
         -2   -1    0    0    0  501 -0.00000000000E+00  0.00000000000E+00  0.44803479619E+02  0.44803479619E+02  0.00000000000E+00 0.  1.
          2   -1    0    0  501    0  0.00000000000E+00 -0.00000000000E+00 -0.12366364600E+04  0.12366364600E+04  0.00000000000E+00 0. -1.
         23    2    1    2    0    0  0.20538405113E+03  0.12593626322E+02 -0.48751751805E+03  0.53711050359E+03  0.92049740787E+02 0.  0.
          5    1    1    2  502    0 -0.18746374373E+03  0.27741137352E+02 -0.62862140477E+03  0.65658143931E+03  0.47000000000E+01 0.  1.
         -5    1    1    2    0  502 -0.17920307402E+02 -0.40334763674E+02 -0.75694057563E+02  0.87747996720E+02  0.47000000000E+01 0.  1.
        -11    1    3    3    0    0  0.12082528951E+03  0.50244352469E+02 -0.24960315575E+03  0.28182437954E+03  0.00000000000E+00 0.  1.
         11    1    3    3    0    0  0.84558761614E+02 -0.37650726147E+02 -0.23791436230E+03  0.25528612406E+03  0.00000000000E+00 0. -1.
<mgrwt>
<rscale>  0 0.23683093E+03</rscale>
<asrwt>0</asrwt>
<pdfrwt beam="2">  1        2 0.19025176E+00 0.24076137E+03</pdfrwt>
<pdfrwt beam="1">  1       -2 0.68928431E-02 0.24076137E+03</pdfrwt>
<totfact> 0.22717248E+03</totfact>
</mgrwt>
</event>
<event>
 7    1  0.1254976E-005  0.1730356E+03  0.7546771E-02  0.1181596E+00
         -2   -1    0    0    0  501 -0.00000000000E+00  0.00000000000E+00  0.16089964405E+02  0.16089964405E+02  0.00000000000E+00 0.  1.
          2   -1    0    0  501    0  0.00000000000E+00 -0.00000000000E+00 -0.18020778244E+04  0.18020778244E+04  0.00000000000E+00 0. -1.
         23    2    1    2    0    0 -0.11953804776E+03  0.51895196848E+01 -0.53026997621E+03  0.55058397580E+03  0.87408184758E+02 0.  0.
          5    1    1    2  502    0  0.92781208762E+02 -0.22894818307E+02 -0.11943426028E+04  0.11981689648E+04  0.47000000000E+01 0. -1.
         -5    1    1    2    0  502  0.26756838994E+02  0.17705298622E+02 -0.61375281008E+02  0.69414848203E+02  0.47000000000E+01 0. -1.
        -11    1    3    3    0    0 -0.65727799798E+02 -0.22575195600E+02 -0.41089062766E+03  0.41672639828E+03  0.00000000000E+00 0. -1.
         11    1    3    3    0    0 -0.53810247957E+02  0.27764715285E+02 -0.11937934855E+03  0.13385757753E+03  0.00000000000E+00 0.  1.
<mgrwt>
<rscale>  0 0.16645502E+03</rscale>
<asrwt>0</asrwt>
<pdfrwt beam="2">  1        2 0.27724291E+00 0.17303560E+03</pdfrwt>
<pdfrwt beam="1">  1       -2 0.24753776E-02 0.17303560E+03</pdfrwt>
<totfact> 0.52915683E+03</totfact>
</mgrwt>
</event>
<event>
 7    1  0.1254976E-005  0.1326432E+03  0.7546771E-02  0.1237299E+00
         -1   -1    0    0    0  501 -0.00000000000E+00  0.00000000000E+00  0.54818490053E+02  0.54818490053E+02  0.00000000000E+00 0.  1.
          1   -1    0    0  501    0  0.00000000000E+00 -0.00000000000E+00 -0.38886399622E+03  0.38886399622E+03  0.00000000000E+00 0. -1.
         23    2    1    2    0    0 -0.43600009320E+02 -0.81932039058E+01 -0.28540689389E+03  0.30240286445E+03  0.89567337488E+02 0.  0.
          5    1    1    2  502    0  0.15079180498E+02  0.57652809542E+02 -0.57932763450E+02  0.83243757805E+02  0.47000000000E+01 0.  1.
         -5    1    1    2    0  502  0.28520828822E+02 -0.49459605636E+02  0.92941511714E+01  0.58035864019E+02  0.47000000000E+01 0.  1.
        -11    1    3    3    0    0  0.28922157105E+01  0.25985863418E+02 -0.26820064999E+02  0.37455919370E+02  0.00000000000E+00 0.  1.
         11    1    3    3    0    0 -0.46492225031E+02 -0.34179067324E+02 -0.25858682889E+03  0.26494694508E+03  0.00000000000E+00 0. -1.
<mgrwt>
<rscale>  0 0.12358381E+03</rscale>
<asrwt>0</asrwt>
<pdfrwt beam="2">  1        1 0.59825233E-01 0.13264319E+03</pdfrwt>
<pdfrwt beam="1">  1       -1 0.84336134E-02 0.13264319E+03</pdfrwt>
<totfact> 0.47935176E+03</totfact>
</mgrwt>
</event>
<event>
 7    1  0.1254976E-005  0.1291170E+03  0.7546771E-02  0.1241665E+00
         -2   -1    0    0    0  501 -0.00000000000E+00  0.00000000000E+00  0.52692526165E+02  0.52692526165E+02  0.00000000000E+00 0.  1.
          2   -1    0    0  501    0  0.00000000000E+00 -0.00000000000E+00 -0.31192352060E+03  0.31192352060E+03  0.00000000000E+00 0. -1.
         23    2    1    2    0    0 -0.22936971291E+02 -0.22615205246E+02 -0.19858090332E+03  0.22196394774E+03  0.93787348687E+02 0.  0.
          5    1    1    2  502    0 -0.46249806185E+02  0.13200944968E+02  0.24983017521E+01  0.48390505596E+02  0.47000000000E+01 0. -1.
         -5    1    1    2    0  502  0.69186777476E+02  0.94142602784E+01 -0.63148392874E+02  0.94261593434E+02  0.47000000000E+01 0. -1.
        -11    1    3    3    0    0 -0.53480466732E+02 -0.17178752962E+02 -0.17256079295E+03  0.18147313062E+03  0.00000000000E+00 0. -1.
         11    1    3    3    0    0  0.30543495441E+02 -0.54364522843E+01 -0.26020110370E+02  0.40490817118E+02  0.00000000000E+00 0.  1.
<mgrwt>
<rscale>  0 0.12087226E+03</rscale>
<asrwt>0</asrwt>
<pdfrwt beam="2">  1        2 0.47988235E-01 0.12911695E+03</pdfrwt>
<pdfrwt beam="1">  1       -2 0.81065423E-02 0.12911695E+03</pdfrwt>
<totfact> 0.91666860E+03</totfact>
</mgrwt>
</event>
<event>
 7    1  0.1254976E-005  0.1268916E+03  0.7546771E-02  0.1248569E+00
         -2   -1    0    0    0  501 -0.00000000000E+00  0.00000000000E+00  0.15753741778E+02  0.15753741778E+02  0.00000000000E+00 0. -1.
          2   -1    0    0  501    0  0.00000000000E+00 -0.00000000000E+00 -0.76881586975E+03  0.76881586975E+03  0.00000000000E+00 0.  1.
         23    2    1    2    0    0  0.18428428921E+02  0.11732092711E+02 -0.37145255868E+03  0.38241621691E+03  0.88249139430E+02 0.  0.
          5    1    1    2  502    0  0.19653651186E+01 -0.67263039942E+02 -0.21064150950E+03  0.22117892016E+03  0.47000000000E+01 0. -1.
         -5    1    1    2    0  502 -0.20393794039E+02  0.55530947230E+02 -0.17096805979E+03  0.18097447446E+03  0.47000000000E+01 0. -1.
        -11    1    3    3    0    0  0.44577882343E+01  0.48762851618E+02 -0.16127797539E+03  0.16854753905E+03  0.00000000000E+00 0. -1.
         11    1    3    3    0    0  0.13970640686E+02 -0.37030758906E+02 -0.21017458329E+03  0.21386867786E+03  0.00000000000E+00 0.  1.
<mgrwt>
<rscale>  0 0.11674309E+03</rscale>
<asrwt>0</asrwt>
<pdfrwt beam="2">  1        2 0.11827937E+00 0.12689164E+03</pdfrwt>
<pdfrwt beam="1">  1       -2 0.24236525E-02 0.12689164E+03</pdfrwt>
<totfact> 0.20465730E+04</totfact>
</mgrwt>
</event>
<event>
 7    1  0.1254976E-005  0.1284615E+03  0.7546771E-02  0.1242765E+00
          2   -1    0    0  501    0  0.00000000000E+00  0.00000000000E+00  0.16184112724E+02  0.16184112724E+02  0.00000000000E+00 0. -1.
         -2   -1    0    0    0  501 -0.00000000000E+00 -0.00000000000E+00 -0.97080023859E+03  0.97080023859E+03  0.00000000000E+00 0.  1.
         23    2    1    2    0    0 -0.16081994819E+02  0.24893047971E+02 -0.21743778601E+03  0.23869680531E+03  0.93907825486E+02 0.  0.
          5    1    1    2  502    0 -0.34598579274E+02 -0.52866841520E+02 -0.26096685780E+03  0.26854749206E+03  0.47000000000E+01 0.  1.
         -5    1    1    2    0  502  0.50680574093E+02  0.27973793550E+02 -0.47621148205E+03  0.47974005393E+03  0.47000000000E+01 0.  1.
        -11    1    3    3    0    0  0.35115151769E+02  0.52831394437E+00 -0.44421948648E+02  0.56627400797E+02  0.00000000000E+00 0. -1.
         11    1    3    3    0    0 -0.51197146588E+02  0.24364734026E+02 -0.17301583736E+03  0.18206940452E+03  0.00000000000E+00 0.  1.
<mgrwt>
<rscale>  0 0.12020130E+03</rscale>
<asrwt>0</asrwt>
<pdfrwt beam="1">  1        2 0.24898633E-02 0.12846146E+03</pdfrwt>
<pdfrwt beam="2">  1       -2 0.14935389E+00 0.12846146E+03</pdfrwt>
<totfact> 0.12467641E+03</totfact>
</mgrwt>
</event>
<event>
 7    1  0.1254976E-005  0.1331493E+03  0.7546771E-02  0.1235560E+00
          1   -1    0    0  501    0  0.00000000000E+00  0.00000000000E+00  0.88852232838E+02  0.88852232838E+02  0.00000000000E+00 0. -1.
         -1   -1    0    0    0  501 -0.00000000000E+00 -0.00000000000E+00 -0.17733860054E+03  0.17733860054E+03  0.00000000000E+00 0.  1.
         23    2    1    2    0    0  0.43522878564E+02  0.14496322083E+02  0.65545619856E+01  0.10260133485E+03  0.91540632057E+02 0.  0.
          5    1    1    2  502    0  0.33478790038E+02 -0.18133937226E+02  0.33484069913E+01  0.38509361084E+02  0.47000000000E+01 0. -1.
         -5    1    1    2    0  502 -0.77001668602E+02  0.36376151427E+01 -0.98389336678E+02  0.12508013745E+03  0.47000000000E+01 0. -1.
        -11    1    3    3    0    0 -0.20138319117E+01  0.44796231469E+02  0.14942701534E+02  0.47265655627E+02  0.00000000000E+00 0. -1.
         11    1    3    3    0    0  0.45536710476E+02 -0.30299909386E+02 -0.83881395481E+01  0.55335679221E+02  0.00000000000E+00 0.  1.
<mgrwt>
<rscale>  0 0.12468681E+03</rscale>
<asrwt>0</asrwt>
<pdfrwt beam="1">  1        1 0.13669575E-01 0.13314934E+03</pdfrwt>
<pdfrwt beam="2">  1       -1 0.27282861E-01 0.13314934E+03</pdfrwt>
<totfact> 0.48304650E+03</totfact>
</mgrwt>
</event>
<event>
 7    1  0.1254976E-005  0.2133292E+03  0.7546771E-02  0.1142656E+00
         -2   -1    0    0    0  501 -0.00000000000E+00  0.00000000000E+00  0.22495825354E+03  0.22495825354E+03  0.00000000000E+00 0.  1.
          2   -1    0    0  501    0  0.00000000000E+00 -0.00000000000E+00 -0.18735667848E+03  0.18735667848E+03  0.00000000000E+00 0. -1.
         23    2    1    2    0    0 -0.93607842662E+02  0.14532946827E+03  0.38897142367E+02  0.19898181664E+03  0.90541112841E+02 0.  0.
          5    1    1    2  502    0  0.14023204120E+02 -0.20871173225E+02 -0.51280861177E+02  0.57306830733E+02  0.47000000000E+01 0.  1.
         -5    1    1    2    0  502  0.79584638541E+02 -0.12445829505E+03  0.49985293868E+02  0.15602628465E+03  0.47000000000E+01 0.  1.
        -11    1    3    3    0    0  0.10002198044E+02 -0.81814671943E+00  0.15283459876E+02  0.18283803640E+02  0.00000000000E+00 0.  1.
         11    1    3    3    0    0 -0.10361004071E+03  0.14614761499E+03  0.23613682492E+02  0.18069801300E+03  0.00000000000E+00 0. -1.
<mgrwt>
<rscale>  0 0.20862960E+03</rscale>
<asrwt>0</asrwt>
<pdfrwt beam="2">  1        2 0.28824104E-01 0.21332918E+03</pdfrwt>
<pdfrwt beam="1">  1       -2 0.34608962E-01 0.21332918E+03</pdfrwt>
<totfact> 0.14285689E+03</totfact>
</mgrwt>
</event>
<event>
 7    1  0.1254976E-005  0.1643850E+03  0.7546771E-02  0.1190141E+00
         -1   -1    0    0    0  501 -0.00000000000E+00  0.00000000000E+00  0.18263965165E+04  0.18263965165E+04  0.00000000000E+00 0. -1.
          1   -1    0    0  501    0  0.00000000000E+00 -0.00000000000E+00 -0.13310662101E+02  0.13310662101E+02  0.00000000000E+00 0.  1.
         23    2    1    2    0    0 -0.49284448933E+02 -0.94704002045E+02  0.68868354190E+03  0.70335205097E+03  0.94980428518E+02 0.  0.
          5    1    1    2  502    0 -0.18760079315E+02 -0.13783154913E+02  0.64482702355E+02  0.68716990899E+02  0.47000000000E+01 0.  1.
         -5    1    1    2    0  502  0.68044528248E+02  0.10848715696E+03  0.10599196102E+04  0.10676381368E+04  0.47000000000E+01 0.  1.
        -11    1    3    3    0    0 -0.76076378209E+02 -0.77666431145E+02  0.58103910514E+03  0.59112277198E+03  0.00000000000E+00 0.  1.
         11    1    3    3    0    0  0.26791929276E+02 -0.17037570900E+02  0.10764443676E+03  0.11222927899E+03  0.00000000000E+00 0. -1.
<mgrwt>
<rscale>  0 0.15872711E+03</rscale>
<asrwt>0</asrwt>
<pdfrwt beam="2">  1        1 0.20477956E-02 0.16438496E+03</pdfrwt>
<pdfrwt beam="1">  1       -1 0.28098388E+00 0.16438496E+03</pdfrwt>
<totfact> 0.29752843E+02</totfact>
</mgrwt>
</event>
<event>
 7    1  0.1254976E-005  0.1384483E+03  0.7546771E-02  0.1227060E+00
         -1   -1    0    0    0  501 -0.00000000000E+00  0.00000000000E+00  0.17655994333E+03  0.17655994333E+03  0.00000000000E+00 0.  1.
          1   -1    0    0  501    0  0.00000000000E+00 -0.00000000000E+00 -0.86893313633E+02  0.86893313633E+02  0.00000000000E+00 0. -1.
         23    2    1    2    0    0  0.20527845538E+02  0.55875610302E+02  0.29162199897E+02  0.11236149511E+03  0.90725935710E+02 0.  0.
          5    1    1    2  502    0 -0.55271274018E+02 -0.26514523565E+02  0.80406154222E+02  0.10121844362E+03  0.47000000000E+01 0.  1.
         -5    1    1    2    0  502  0.34743428480E+02 -0.29361086738E+02 -0.19901724424E+02  0.49873318237E+02  0.47000000000E+01 0.  1.
        -11    1    3    3    0    0 -0.10119909064E+02 -0.70253112341E+01  0.39731558239E+02  0.41597647500E+02  0.00000000000E+00 0.  1.
         11    1    3    3    0    0  0.30647754602E+02  0.62900921536E+02 -0.10569358342E+02  0.70763847606E+02  0.00000000000E+00 0. -1.
<mgrwt>
<rscale>  0 0.13026698E+03</rscale>
<asrwt>0</asrwt>
<pdfrwt beam="2">  1        1 0.13368202E-01 0.13844831E+03</pdfrwt>
<pdfrwt beam="1">  1       -1 0.27163068E-01 0.13844831E+03</pdfrwt>
<totfact> 0.50214834E+03</totfact>
</mgrwt>
</event>
<event>
 7    1  0.1254976E-005  0.1295514E+03  0.7546771E-02  0.1244203E+00
          3   -1    0    0  501    0  0.00000000000E+00  0.00000000000E+00  0.25617747207E+02  0.25617747207E+02  0.00000000000E+00 0. -1.
         -3   -1    0    0    0  501 -0.00000000000E+00 -0.00000000000E+00 -0.51002042638E+03  0.51002042638E+03  0.00000000000E+00 0.  1.
         23    2    1    2    0    0  0.36618271986E+00 -0.34050407547E+02 -0.14555897951E+03  0.17287294336E+03  0.86822080627E+02 0.  0.
          5    1    1    2  502    0  0.42129214392E+02 -0.28566358110E+02 -0.10218660812E+03  0.11425891825E+03  0.47000000000E+01 0.  1.
         -5    1    1    2    0  502 -0.42495397112E+02  0.62616765656E+02 -0.23665709154E+03  0.24850631198E+03  0.47000000000E+01 0.  1.
        -11    1    3    3    0    0 -0.85757911264E+01 -0.62356681130E+02 -0.10794631571E+03  0.12495722048E+03  0.00000000000E+00 0. -1.
         11    1    3    3    0    0  0.89419738463E+01  0.28306273583E+02 -0.37612663798E+02  0.47915722873E+02  0.00000000000E+00 0.  1.
<mgrwt>
<rscale>  0 0.11933194E+03</rscale>
<asrwt>0</asrwt>
<pdfrwt beam="1">  1        3 0.39411918E-02 0.12955138E+03</pdfrwt>
<pdfrwt beam="2">  1       -3 0.78464682E-01 0.12955138E+03</pdfrwt>
<totfact> 0.11821777E+03</totfact>
</mgrwt>
</event>
<event>
 7    1  0.1254976E-005  0.1269960E+03  0.7546771E-02  0.1245985E+00
          1   -1    0    0  501    0  0.00000000000E+00  0.00000000000E+00  0.20969499202E+03  0.20969499202E+03  0.00000000000E+00 0. -1.
         -1   -1    0    0    0  501 -0.00000000000E+00 -0.00000000000E+00 -0.61534378474E+02  0.61534378474E+02  0.00000000000E+00 0.  1.
         23    2    1    2    0    0 -0.97415396816E+01  0.20203613915E+02  0.91131577741E+02  0.13201625599E+03  0.92845267906E+02 0.  0.
          5    1    1    2  502    0 -0.12369621492E+02 -0.22648149534E+02 -0.35382851177E+02  0.44045230963E+02  0.47000000000E+01 0. -1.
         -5    1    1    2    0  502  0.22111161173E+02  0.24445356197E+01  0.92411886983E+02  0.95167883546E+02  0.47000000000E+01 0. -1.
        -11    1    3    3    0    0  0.56729036999E+01 -0.20230401403E+02  0.85895720581E+02  0.88428082595E+02  0.00000000000E+00 0. -1.
         11    1    3    3    0    0 -0.15414443382E+02  0.40434015317E+02  0.52358571603E+01  0.43588173392E+02  0.00000000000E+00 0.  1.
<mgrwt>
<rscale>  0 0.11826647E+03</rscale>
<asrwt>0</asrwt>
<pdfrwt beam="1">  1        1 0.32260768E-01 0.12699599E+03</pdfrwt>
<pdfrwt beam="2">  1       -1 0.94668275E-02 0.12699599E+03</pdfrwt>
<totfact> 0.86237742E+03</totfact>
</mgrwt>
</event>
<event>
 7    1  0.1254976E-005  0.1671715E+03  0.7546771E-02  0.1187803E+00
         -2   -1    0    0    0  501 -0.00000000000E+00  0.00000000000E+00  0.10721394582E+03  0.10721394582E+03  0.00000000000E+00 0.  1.
          2   -1    0    0  501    0  0.00000000000E+00 -0.00000000000E+00 -0.49848799092E+03  0.49848799092E+03  0.00000000000E+00 0. -1.
         23    2    1    2    0    0 -0.10404375096E+03  0.38691299068E+02 -0.41303821081E+03  0.43711969119E+03  0.90282568073E+02 0.  0.
          5    1    1    2  502    0  0.12556995762E+03 -0.52493163227E+02  0.24666569434E+01  0.13620396778E+03  0.47000000000E+01 0.  1.
         -5    1    1    2    0  502 -0.21526206651E+02  0.13801864160E+02  0.19297508762E+02  0.32378277772E+02  0.47000000000E+01 0.  1.
        -11    1    3    3    0    0 -0.69539119242E+02 -0.11682336961E+02 -0.30477427851E+03  0.31282507404E+03  0.00000000000E+00 0.  1.
         11    1    3    3    0    0 -0.34504631722E+02  0.50373636029E+02 -0.10826393230E+03  0.12429461715E+03  0.00000000000E+00 0. -1.
<mgrwt>
<rscale>  0 0.16079385E+03</rscale>
<asrwt>0</asrwt>
<pdfrwt beam="2">  1        2 0.76690459E-01 0.16717145E+03</pdfrwt>
<pdfrwt beam="1">  1       -2 0.16494453E-01 0.16717145E+03</pdfrwt>
<totfact> 0.18037057E+03</totfact>
</mgrwt>
</event>
<event>
 7    1  0.1254976E-005  0.1290844E+03  0.7546771E-02  0.1240271E+00
          1   -1    0    0  501    0  0.00000000000E+00  0.00000000000E+00  0.46759432502E+03  0.46759432502E+03  0.00000000000E+00 0. -1.
         -1   -1    0    0    0  501 -0.00000000000E+00 -0.00000000000E+00 -0.38497672354E+02  0.38497672354E+02  0.00000000000E+00 0.  1.
         23    2    1    2    0    0 -0.32182477000E+02  0.11851104521E+01  0.32379044468E+03  0.33950214259E+03  0.96872784864E+02 0.  0.
          5    1    1    2  502    0  0.34234156205E+02 -0.59958549762E+02  0.47084829641E+02  0.83702307752E+02  0.47000000000E+01 0. -1.
         -5    1    1    2    0  502 -0.20516792041E+01  0.58773439310E+02  0.58221378346E+02  0.82887547029E+02  0.47000000000E+01 0. -1.
        -11    1    3    3    0    0 -0.23656041467E+02  0.48172334151E+02  0.15191962752E+03  0.16112031312E+03  0.00000000000E+00 0. -1.
         11    1    3    3    0    0 -0.85264355334E+01 -0.46987223698E+02  0.17187081716E+03  0.17838182947E+03  0.00000000000E+00 0.  1.
<mgrwt>
<rscale>  0 0.12172964E+03</rscale>
<asrwt>0</asrwt>
<pdfrwt beam="1">  1        1 0.71937585E-01 0.12908440E+03</pdfrwt>
<pdfrwt beam="2">  1       -1 0.59227191E-02 0.12908440E+03</pdfrwt>
<totfact> 0.64319721E+03</totfact>
</mgrwt>
</event>
<event>
 7    1  0.1254976E-005  0.1299492E+03  0.7546771E-02  0.1241840E+00
          2   -1    0    0  501    0  0.00000000000E+00  0.00000000000E+00  0.56278063568E+03  0.56278063568E+03  0.00000000000E+00 0. -1.
         -2   -1    0    0    0  501 -0.00000000000E+00 -0.00000000000E+00 -0.22894342561E+02  0.22894342561E+02  0.00000000000E+00 0.  1.
         23    2    1    2    0    0  0.28951771118E+02  0.20606864865E+02  0.22041862376E+03  0.24078891293E+03  0.90178062508E+02 0.  0.
          5    1    1    2  502    0 -0.25467664937E+02  0.11444369235E+02  0.50203315797E+01  0.28755334699E+02  0.47000000000E+01 0. -1.
         -5    1    1    2    0  502 -0.34841061819E+01 -0.32051234099E+02  0.31444733777E+03  0.31613073061E+03  0.47000000000E+01 0. -1.
        -11    1    3    3    0    0 -0.12090963049E+02  0.28130291595E+02  0.18037870824E+03  0.18295896556E+03  0.00000000000E+00 0. -1.
         11    1    3    3    0    0  0.41042734168E+02 -0.75234267302E+01  0.40039915526E+02  0.57829947372E+02  0.00000000000E+00 0.  1.
<mgrwt>
<rscale>  0 0.12076526E+03</rscale>
<asrwt>0</asrwt>
<pdfrwt beam="1">  1        2 0.86581626E-01 0.12994925E+03</pdfrwt>
<pdfrwt beam="2">  1       -2 0.35222070E-02 0.12994925E+03</pdfrwt>
<totfact> 0.17049030E+04</totfact>
</mgrwt>
</event>
<event>
 7    1  0.1254976E-005  0.1477169E+03  0.7546771E-02  0.1214700E+00
          1   -1    0    0  501    0  0.00000000000E+00  0.00000000000E+00  0.93620907847E+02  0.93620907847E+02  0.00000000000E+00 0. -1.
         -1   -1    0    0    0  501 -0.00000000000E+00 -0.00000000000E+00 -0.18994428861E+03  0.18994428861E+03  0.00000000000E+00 0.  1.
         23    2    1    2    0    0 -0.71968650289E+02 -0.31864312774E+02 -0.20660720106E+02  0.11759796496E+03  0.84897555651E+02 0.  0.
          5    1    1    2  502    0 -0.64035574840E+01  0.45249264202E+02  0.12044317680E+02  0.47493757986E+02  0.47000000000E+01 0. -1.
         -5    1    1    2    0  502  0.78372207773E+02 -0.13384951428E+02 -0.87706978338E+02  0.11847347351E+03  0.47000000000E+01 0. -1.
        -11    1    3    3    0    0 -0.16590856841E+02 -0.29103710271E+02 -0.45778833280E+02  0.56727277907E+02  0.00000000000E+00 0.  1.
         11    1    3    3    0    0 -0.55377793448E+02 -0.27606025023E+01  0.25118113174E+02  0.60870687057E+02  0.00000000000E+00 0. -1.
<mgrwt>
<rscale>  0 0.13898583E+03</rscale>
<asrwt>0</asrwt>
<pdfrwt beam="1">  1        1 0.14403217E-01 0.14771690E+03</pdfrwt>
<pdfrwt beam="2">  1       -1 0.29222198E-01 0.14771690E+03</pdfrwt>
<totfact> 0.40493064E+03</totfact>
</mgrwt>
</event>
<event>
 7    1  0.1254976E-005  0.1846037E+03  0.7546771E-02  0.1168835E+00
         -1   -1    0    0    0  501 -0.00000000000E+00  0.00000000000E+00  0.91961730855E+02  0.91961730855E+02  0.00000000000E+00 0.  1.
          1   -1    0    0  501    0  0.00000000000E+00 -0.00000000000E+00 -0.32978121735E+03  0.32978121735E+03  0.00000000000E+00 0. -1.
         23    2    1    2    0    0 -0.53235679489E+02 -0.12497599973E+03 -0.97931813351E+02  0.19012451250E+03  0.90020287192E+02 0.  0.
          5    1    1    2  502    0  0.72540735511E+02  0.10529622968E+03 -0.15406158220E+03  0.20026611147E+03  0.47000000000E+01 0. -1.
         -5    1    1    2    0  502 -0.19305056022E+02  0.19679770051E+02  0.14173909055E+02  0.31352324239E+02  0.47000000000E+01 0. -1.
        -11    1    3    3    0    0 -0.28712078892E+02 -0.63084779086E+02 -0.10211985367E+03  0.12342016585E+03  0.00000000000E+00 0. -1.
         11    1    3    3    0    0 -0.24523600597E+02 -0.61891220645E+02  0.41880403161E+01  0.66704346641E+02  0.00000000000E+00 0.  1.
<mgrwt>
<rscale>  0 0.17893780E+03</rscale>
<asrwt>0</asrwt>
<pdfrwt beam="2">  1        1 0.50735572E-01 0.18460373E+03</pdfrwt>
<pdfrwt beam="1">  1       -1 0.14147959E-01 0.18460373E+03</pdfrwt>
<totfact> 0.26964875E+03</totfact>
</mgrwt>
</event>
<event>
 7    1  0.1254976E-005  0.1734017E+03  0.7546771E-02  0.1180626E+00
          2   -1    0    0  501    0  0.00000000000E+00  0.00000000000E+00  0.11415599479E+03  0.11415599479E+03  0.00000000000E+00 0. -1.
         -2   -1    0    0    0  501 -0.00000000000E+00 -0.00000000000E+00 -0.29368516594E+03  0.29368516594E+03  0.00000000000E+00 0.  1.
         23    2    1    2    0    0 -0.39912478213E+02  0.11335828996E+03  0.10181288114E+02  0.15082321500E+03  0.90558686687E+02 0.  0.
          5    1    1    2  502    0 -0.36097009952E+02 -0.23816874884E+02 -0.10031252516E+03  0.10933860416E+03  0.47000000000E+01 0. -1.
         -5    1    1    2    0  502  0.76009488165E+02 -0.89541415076E+02 -0.89397934105E+02  0.14767934157E+03  0.47000000000E+01 0. -1.
        -11    1    3    3    0    0 -0.65723350624E+02  0.91690502436E+02 -0.69348252042E+01  0.11302565574E+03  0.00000000000E+00 0.  1.
         11    1    3    3    0    0  0.25810872411E+02  0.21667787523E+02  0.17116113318E+02  0.37797559259E+02  0.00000000000E+00 0. -1.
<mgrwt>
<rscale>  0 0.16736291E+03</rscale>
<asrwt>0</asrwt>
<pdfrwt beam="1">  1        2 0.17562461E-01 0.17340175E+03</pdfrwt>
<pdfrwt beam="2">  1       -2 0.45182332E-01 0.17340175E+03</pdfrwt>
<totfact> 0.14947249E+03</totfact>
</mgrwt>
</event>
<event>
 7    1  0.1254976E-005  0.1261735E+03  0.7546771E-02  0.1248361E+00
          2   -1    0    0  501    0  0.00000000000E+00  0.00000000000E+00  0.67604474755E+03  0.67604474755E+03  0.00000000000E+00 0. -1.
         -2   -1    0    0    0  501 -0.00000000000E+00 -0.00000000000E+00 -0.18129934176E+02  0.18129934176E+02  0.00000000000E+00 0.  1.
         23    2    1    2    0    0 -0.24457236110E+01 -0.18370720237E+02  0.22975111191E+03  0.24780722148E+03  0.90991102146E+02 0.  0.
          5    1    1    2  502    0 -0.38542295562E+02  0.12837064334E+02  0.44441238476E+02  0.60393811315E+02  0.47000000000E+01 0.  1.
         -5    1    1    2    0  502  0.40988019173E+02  0.55336559030E+01  0.38372246299E+03  0.38597364893E+03  0.47000000000E+01 0.  1.
        -11    1    3    3    0    0  0.34682730388E+02 -0.33942235834E+02  0.88518667694E+02  0.10094811386E+03  0.00000000000E+00 0.  1.
         11    1    3    3    0    0 -0.37128453999E+02  0.15571515597E+02  0.14123244422E+03  0.14685910763E+03  0.00000000000E+00 0. -1.
<mgrwt>
<rscale>  0 0.11686446E+03</rscale>
<asrwt>0</asrwt>
<pdfrwt beam="1">  1        2 0.10400687E+00 0.12617351E+03</pdfrwt>
<pdfrwt beam="2">  1       -2 0.27892212E-02 0.12617351E+03</pdfrwt>
<totfact> 0.19430926E+04</totfact>
</mgrwt>
</event>
<event>
 7    1  0.1254976E-005  0.1478463E+03  0.7546771E-02  0.1213536E+00
         -2   -1    0    0    0  501 -0.00000000000E+00  0.00000000000E+00  0.29499130684E+03  0.29499130684E+03  0.00000000000E+00 0. -1.
          2   -1    0    0  501    0  0.00000000000E+00 -0.00000000000E+00 -0.79718638866E+02  0.79718638866E+02  0.00000000000E+00 0.  1.
         23    2    1    2    0    0  0.77958299795E+02  0.12503886823E+02  0.60298837346E+01  0.11850482947E+03  0.88165704311E+02 0.  0.
          5    1    1    2  502    0 -0.76943242652E+02 -0.34874769474E+02  0.21630051774E+03  0.23225958777E+03  0.47000000000E+01 0. -1.
         -5    1    1    2    0  502 -0.10150571433E+01  0.22370882651E+02 -0.70577335004E+01  0.23945528471E+02  0.47000000000E+01 0. -1.
        -11    1    3    3    0    0  0.21128639672E+02 -0.40400352269E+01 -0.38726147712E+02  0.44299614170E+02  0.00000000000E+00 0.  1.
         11    1    3    3    0    0  0.56829660123E+02  0.16543922050E+02  0.44756031446E+02  0.74205215297E+02  0.00000000000E+00 0. -1.
<mgrwt>
<rscale>  0 0.13984632E+03</rscale>
<asrwt>0</asrwt>
<pdfrwt beam="2">  1        2 0.12264406E-01 0.14784627E+03</pdfrwt>
<pdfrwt beam="1">  1       -2 0.45383277E-01 0.14784627E+03</pdfrwt>
<totfact> 0.22478496E+03</totfact>
</mgrwt>
</event>
<event>
 7    1  0.1254976E-005  0.3307807E+03  0.7546771E-02  0.1094485E+00
         -1   -1    0    0    0  501 -0.00000000000E+00  0.00000000000E+00  0.70002324305E+03  0.70002324305E+03  0.00000000000E+00 0.  1.
          1   -1    0    0  501    0  0.00000000000E+00 -0.00000000000E+00 -0.52001126552E+03  0.52001126552E+03  0.00000000000E+00 0. -1.
         23    2    1    2    0    0 -0.47820147970E+02  0.14166196777E+03 -0.46402244958E+03  0.49602053279E+03  0.91458490961E+02 0.  0.
          5    1    1    2  502    0  0.85856013412E+02  0.44871497701E+01  0.29248010096E+02  0.90933633199E+02  0.47000000000E+01 0. -1.
         -5    1    1    2    0  502 -0.38035865443E+02 -0.14614911754E+03  0.61478641701E+03  0.63308034258E+03  0.47000000000E+01 0.  1.
        -11    1    3    3    0    0 -0.40779846251E+02  0.19285359723E+02 -0.69177723591E+02  0.82586187714E+02  0.00000000000E+00 0.  1.
         11    1    3    3    0    0 -0.70403017182E+01  0.12237660805E+03 -0.39484472599E+03  0.41343434507E+03  0.00000000000E+00 0. -1.
<mgrwt>
<rscale>  0 0.28221623E+03</rscale>
<asrwt>0</asrwt>
<pdfrwt beam="2">  1        1 0.80001733E-01 0.33078073E+03</pdfrwt>
<pdfrwt beam="1">  1       -1 0.10769588E+00 0.33078073E+03</pdfrwt>
<totfact> 0.36510468E+01</totfact>
</mgrwt>
</event>
<event>
 7    1  0.1254976E-005  0.1433837E+03  0.7546771E-02  0.1219027E+00
          1   -1    0    0  501    0  0.00000000000E+00  0.00000000000E+00  0.37771820661E+03  0.37771820661E+03  0.00000000000E+00 0. -1.
         -1   -1    0    0    0  501 -0.00000000000E+00 -0.00000000000E+00 -0.49433776327E+02  0.49433776327E+02  0.00000000000E+00 0.  1.
         23    2    1    2    0    0 -0.65033509593E+02 -0.26542002070E+02  0.21628865327E+03  0.24521263789E+03  0.91731243359E+02 0.  0.
          5    1    1    2  502    0  0.74727516276E+02 -0.23204547547E+02  0.27074662700E+02  0.82932382553E+02  0.47000000000E+01 0.  1.
         -5    1    1    2    0  502 -0.96940066832E+01  0.49746549617E+02  0.84921114320E+02  0.99006962491E+02  0.47000000000E+01 0.  1.
        -11    1    3    3    0    0 -0.70610237565E+02  0.12999834831E+02  0.16698496127E+03  0.18176572461E+03  0.00000000000E+00 0. -1.
         11    1    3    3    0    0  0.55767279721E+01 -0.39541836901E+02  0.49303691997E+02  0.63446913281E+02  0.00000000000E+00 0.  1.
<mgrwt>
<rscale>  0 0.13584811E+03</rscale>
<asrwt>0</asrwt>
<pdfrwt beam="1">  1        1 0.58110492E-01 0.14338365E+03</pdfrwt>
<pdfrwt beam="2">  1       -1 0.76051966E-02 0.14338365E+03</pdfrwt>
<totfact> 0.58365327E+03</totfact>
</mgrwt>
</event>
<event>
 7    1  0.1254976E-005  0.1164177E+03  0.7546771E-02  0.1257654E+00
          1   -1    0    0  501    0  0.00000000000E+00  0.00000000000E+00  0.10516370385E+03  0.10516370385E+03  0.00000000000E+00 0. -1.
         -1   -1    0    0    0  501 -0.00000000000E+00 -0.00000000000E+00 -0.11061268144E+03  0.11061268144E+03  0.00000000000E+00 0.  1.
         23    2    1    2    0    0  0.27953767005E+02  0.22651026789E+02  0.79216662219E+01  0.98593355719E+02  0.91451707976E+02 0.  0.
          5    1    1    2  502    0  0.13059908966E+02  0.27418527290E+02  0.26873026667E+02  0.40823846256E+02  0.47000000000E+01 0. -1.
         -5    1    1    2    0  502 -0.41013675971E+02 -0.50069554079E+02 -0.40243670486E+02  0.76359183315E+02  0.47000000000E+01 0.  1.
        -11    1    3    3    0    0  0.32926171420E+02  0.43289292913E+02  0.34628910357E+02  0.64476794878E+02  0.00000000000E+00 0. -1.
         11    1    3    3    0    0 -0.49724044144E+01 -0.20638266124E+02 -0.26707244135E+02  0.34116560840E+02  0.00000000000E+00 0.  1.
<mgrwt>
<rscale>  0 0.11158984E+03</rscale>
<asrwt>0</asrwt>
<pdfrwt beam="1">  1        1 0.16179031E-01 0.11641773E+03</pdfrwt>
<pdfrwt beam="2">  1       -1 0.17017336E-01 0.11641773E+03</pdfrwt>
<totfact> 0.82457431E+03</totfact>
</mgrwt>
</event>
<event>
 7    1  0.1254976E-005  0.1795898E+03  0.7546771E-02  0.1174370E+00
          1   -1    0    0  501    0  0.00000000000E+00  0.00000000000E+00  0.42573164840E+03  0.42573164840E+03  0.00000000000E+00 0. -1.
         -1   -1    0    0    0  501 -0.00000000000E+00 -0.00000000000E+00 -0.80188024322E+02  0.80188024322E+02  0.00000000000E+00 0.  1.
         23    2    1    2    0    0 -0.92159569575E+02 -0.90191801007E+02  0.26843823875E+03  0.31047726133E+03  0.87801449580E+02 0.  0.
          5    1    1    2  502    0 -0.16268568952E+02 -0.46212495979E+00  0.48224002604E+02  0.51112858679E+02  0.47000000000E+01 0. -1.
         -5    1    1    2    0  502  0.10842813853E+03  0.90653925967E+02  0.28881382725E+02  0.14432955271E+03  0.47000000000E+01 0. -1.
        -11    1    3    3    0    0 -0.74900721554E+01 -0.62054808551E+02  0.76299776650E+02  0.98633444439E+02  0.00000000000E+00 0.  1.
         11    1    3    3    0    0 -0.84669497419E+02 -0.28136992457E+02  0.19213846210E+03  0.21184381689E+03  0.00000000000E+00 0. -1.
<mgrwt>
<rscale>  0 0.17337829E+03</rscale>
<asrwt>0</asrwt>
<pdfrwt beam="1">  1        1 0.65497175E-01 0.17958980E+03</pdfrwt>
<pdfrwt beam="2">  1       -1 0.12336619E-01 0.17958980E+03</pdfrwt>
<totfact> 0.24154608E+03</totfact>
</mgrwt>
</event>
<event>
 7    1  0.1254976E-005  0.1263530E+03  0.7546771E-02  0.1247977E+00
          2   -1    0    0  501    0  0.00000000000E+00  0.00000000000E+00  0.34682583162E+03  0.34682583162E+03  0.00000000000E+00 0.  1.
         -2   -1    0    0    0  501 -0.00000000000E+00 -0.00000000000E+00 -0.34853205317E+02  0.34853205317E+02  0.00000000000E+00 0. -1.
         23    2    1    2    0    0  0.11129020738E+02 -0.14511832365E+02  0.12170209262E+03  0.15327595243E+03  0.91365583586E+02 0.  0.
          5    1    1    2  502    0 -0.12474105414E+01 -0.76678770087E+01  0.20117071119E+03  0.20137551343E+03  0.47000000000E+01 0.  1.
         -5    1    1    2    0  502 -0.98816101963E+01  0.22179709374E+02 -0.10900177512E+02  0.27027571067E+02  0.47000000000E+01 0.  1.
        -11    1    3    3    0    0  0.24471571601E+02 -0.49697328104E+02  0.68140673790E+02  0.87817046534E+02  0.00000000000E+00 0.  1.
         11    1    3    3    0    0 -0.13342550864E+02  0.35185495740E+02  0.53561418834E+02  0.65458905899E+02  0.00000000000E+00 0. -1.
<mgrwt>
<rscale>  0 0.11708938E+03</rscale>
<asrwt>0</asrwt>
<pdfrwt beam="1">  1        2 0.53357818E-01 0.12635305E+03</pdfrwt>
<pdfrwt beam="2">  1       -2 0.53620318E-02 0.12635305E+03</pdfrwt>
<totfact> 0.15348899E+04</totfact>
</mgrwt>
</event>
<event>
 7    1  0.2594717E-005  0.2861942E+03  0.7546771E-02  0.1093733E+00
         -1   -1    0    0    0  501 -0.00000000000E+00  0.00000000000E+00  0.88545291113E+02  0.88545291113E+02  0.00000000000E+00 0.  1.
          1   -1    0    0  501    0  0.00000000000E+00 -0.00000000000E+00 -0.94354986791E+03  0.94354986791E+03  0.00000000000E+00 0. -1.
         23    2    1    2    0    0  0.52008147368E+02  0.25214542451E+03 -0.54032430012E+03  0.60673553967E+03  0.99476144410E+02 0.  0.
          5    1    1    2  502    0 -0.48138564747E+02 -0.51427673040E+02 -0.29366041942E+02  0.76462941283E+02  0.47000000000E+01 0. -1.
         -5    1    1    2    0  502 -0.38695826215E+01 -0.20071775147E+03 -0.28531423473E+03  0.34889667807E+03  0.47000000000E+01 0. -1.
        -11    1    3    3    0    0  0.30544673431E+02  0.44450218827E+02 -0.20278071307E+03  0.20983044732E+03  0.00000000000E+00 0. -1.
         11    1    3    3    0    0  0.21463473938E+02  0.20769520568E+03 -0.33754358705E+03  0.39690509235E+03  0.00000000000E+00 0.  1.
<mgrwt>
<rscale>  0 0.28361167E+03</rscale>
<asrwt>0</asrwt>
<pdfrwt beam="2">  1        1 0.14516152E+00 0.28619422E+03</pdfrwt>
<pdfrwt beam="1">  1       -1 0.13622352E-01 0.28619422E+03</pdfrwt>
<totfact> 0.66344196E+02</totfact>
</mgrwt>
</event>
<event>
 7    1  0.1254976E-005  0.1309745E+03  0.7546771E-02  0.1239063E+00
         -2   -1    0    0    0  501 -0.00000000000E+00  0.00000000000E+00  0.89853896843E+02  0.89853896843E+02  0.00000000000E+00 0.  1.
          2   -1    0    0  501    0  0.00000000000E+00 -0.00000000000E+00 -0.17745238963E+03  0.17745238963E+03  0.00000000000E+00 0. -1.
         23    2    1    2    0    0  0.29148986999E+02 -0.26060092662E+02 -0.92364321425E+02  0.13624512193E+03  0.92210484793E+02 0.  0.
          5    1    1    2  502    0 -0.47727991139E+01 -0.26157836745E+02 -0.46510745511E+02  0.53780586484E+02  0.47000000000E+01 0. -1.
         -5    1    1    2    0  502 -0.24376187885E+02  0.52217929407E+02  0.51276574152E+02  0.77280578053E+02  0.47000000000E+01 0. -1.
        -11    1    3    3    0    0  0.87092314129E+01  0.25250523893E+02 -0.72973485994E+02  0.77708232040E+02  0.00000000000E+00 0.  1.
         11    1    3    3    0    0  0.20439755586E+02 -0.51310616555E+02 -0.19390835431E+02  0.58536889893E+02  0.00000000000E+00 0. -1.
<mgrwt>
<rscale>  0 0.12247885E+03</rscale>
<asrwt>0</asrwt>
<pdfrwt beam="2">  1        2 0.27300367E-01 0.13097449E+03</pdfrwt>
<pdfrwt beam="1">  1       -2 0.13823677E-01 0.13097449E+03</pdfrwt>
<totfact> 0.72243430E+03</totfact>
</mgrwt>
</event>
<event>
 7    1  0.1254976E-005  0.1287240E+03  0.7546771E-02  0.1244324E+00
          1   -1    0    0  501    0  0.00000000000E+00  0.00000000000E+00  0.17092720399E+03  0.17092720399E+03  0.00000000000E+00 0. -1.
         -1   -1    0    0    0  501 -0.00000000000E+00 -0.00000000000E+00 -0.73102907132E+02  0.73102907132E+02  0.00000000000E+00 0.  1.
         23    2    1    2    0    0  0.64432200329E+00 -0.30752090018E+02  0.41699671190E+02  0.10360280044E+03  0.89713831094E+02 0.  0.
          5    1    1    2  502    0  0.17700186385E+02  0.22846485582E+02  0.93396985742E+02  0.97879239102E+02  0.47000000000E+01 0. -1.
         -5    1    1    2    0  502 -0.18344508389E+02  0.79056044363E+01 -0.37272360077E+02  0.42548071580E+02  0.47000000000E+01 0. -1.
        -11    1    3    3    0    0 -0.25077975987E+02  0.21806853904E+02  0.28293826325E+01  0.33353398071E+02  0.00000000000E+00 0.  1.
         11    1    3    3    0    0  0.25722297990E+02 -0.52558943922E+02  0.38870288557E+02  0.70249402365E+02  0.00000000000E+00 0. -1.
<mgrwt>
<rscale>  0 0.11925943E+03</rscale>
<asrwt>0</asrwt>
<pdfrwt beam="1">  1        1 0.26296493E-01 0.12872395E+03</pdfrwt>
<pdfrwt beam="2">  1       -1 0.11246601E-01 0.12872395E+03</pdfrwt>
<totfact> 0.85568241E+03</totfact>
</mgrwt>
</event>
<event>
 7    1  0.1254976E-005  0.1262833E+03  0.7546771E-02  0.1254651E+00
          2   -1    0    0  501    0  0.00000000000E+00  0.00000000000E+00  0.76611133408E+02  0.76611133408E+02  0.00000000000E+00 0. -1.
         -2   -1    0    0    0  501 -0.00000000000E+00 -0.00000000000E+00 -0.14301316551E+03  0.14301316551E+03  0.00000000000E+00 0.  1.
         23    2    1    2    0    0  0.17105477308E+02  0.52942246646E+01 -0.13985507589E+02  0.82894771390E+02  0.79720276797E+02 0.  0.
          5    1    1    2  502    0 -0.20427885262E+02  0.50224891777E+02  0.73898609118E+01  0.54923021535E+02  0.47000000000E+01 0.  1.
         -5    1    1    2    0  502  0.33224079539E+01 -0.55519116441E+02 -0.59806385423E+02  0.81806505991E+02  0.47000000000E+01 0.  1.
        -11    1    3    3    0    0  0.29928463242E+02  0.80006826902E+00 -0.42105183492E+02  0.51664296164E+02  0.00000000000E+00 0.  1.
         11    1    3    3    0    0 -0.12822985934E+02  0.44941563956E+01  0.28119675903E+02  0.31230475226E+02  0.00000000000E+00 0. -1.
<mgrwt>
<rscale>  0 0.11325922E+03</rscale>
<asrwt>0</asrwt>
<pdfrwt beam="1">  1        2 0.11786328E-01 0.12628330E+03</pdfrwt>
<pdfrwt beam="2">  1       -2 0.22002025E-01 0.12628330E+03</pdfrwt>
<totfact> 0.87040901E+03</totfact>
</mgrwt>
</event>
<event>
 7    1  0.1254976E-005  0.2363206E+03  0.7546771E-02  0.1124910E+00
          2   -1    0    0  501    0  0.00000000000E+00  0.00000000000E+00  0.10678717636E+04  0.10678717636E+04  0.00000000000E+00 0. -1.
         -2   -1    0    0    0  501 -0.00000000000E+00 -0.00000000000E+00 -0.49437503358E+02  0.49437503358E+02  0.00000000000E+00 0.  1.
         23    2    1    2    0    0  0.84126200760E+02 -0.18206091207E+03  0.54345906770E+03  0.58679173687E+03  0.93559557687E+02 0.  0.
          5    1    1    2  502    0 -0.69998376956E+02  0.11659026028E+03  0.42656760784E+03  0.44774443115E+03  0.47000000000E+01 0.  1.
         -5    1    1    2    0  502 -0.14127823804E+02  0.65470651784E+02  0.48407584693E+02  0.82773098929E+02  0.47000000000E+01 0.  1.
        -11    1    3    3    0    0  0.10037245821E+02 -0.65736557907E+02  0.29715032785E+03  0.30450017847E+03  0.00000000000E+00 0. -1.
         11    1    3    3    0    0  0.74088954939E+02 -0.11632435416E+03  0.24630873986E+03  0.28229155840E+03  0.00000000000E+00 0.  1.
<mgrwt>
<rscale>  0 0.23247430E+03</rscale>
<asrwt>0</asrwt>
<pdfrwt beam="1">  1        2 0.16428795E+00 0.23632058E+03</pdfrwt>
<pdfrwt beam="2">  1       -2 0.76057705E-02 0.23632058E+03</pdfrwt>
<totfact> 0.24384239E+03</totfact>
</mgrwt>
</event>
<event>
 7    1  0.1254976E-005  0.1251647E+03  0.7546771E-02  0.1250351E+00
          2   -1    0    0  501    0  0.00000000000E+00  0.00000000000E+00  0.88586349234E+03  0.88586349234E+03  0.00000000000E+00 0. -1.
         -2   -1    0    0    0  501 -0.00000000000E+00 -0.00000000000E+00 -0.14090636519E+02  0.14090636519E+02  0.00000000000E+00 0.  1.
         23    2    1    2    0    0 -0.25797763210E+01  0.59149257829E+01  0.48154201859E+03  0.49014161284E+03  0.91183569625E+02 0.  0.
          5    1    1    2  502    0  0.10825033410E+02 -0.50476556156E+02  0.74198118582E+02  0.90512512234E+02  0.47000000000E+01 0. -1.
         -5    1    1    2    0  502 -0.82452570893E+01  0.44561630373E+02  0.31603271864E+03  0.31930000379E+03  0.47000000000E+01 0. -1.
        -11    1    3    3    0    0  0.46951312028E+00 -0.42655646773E+02  0.23564013784E+03  0.23947024702E+03  0.00000000000E+00 0. -1.
         11    1    3    3    0    0 -0.30492894413E+01  0.48570572556E+02  0.24590188075E+03  0.25067136582E+03  0.00000000000E+00 0.  1.
<mgrwt>
<rscale>  0 0.11570754E+03</rscale>
<asrwt>0</asrwt>
<pdfrwt beam="1">  1        2 0.13628665E+00 0.12516466E+03</pdfrwt>
<pdfrwt beam="2">  1       -2 0.21677909E-02 0.12516466E+03</pdfrwt>
<totfact> 0.20125281E+04</totfact>
</mgrwt>
</event>
<event>
 7    1  0.1254976E-005  0.2921552E+03  0.7546771E-02  0.1089705E+00
         -2   -1    0    0    0  501 -0.00000000000E+00  0.00000000000E+00  0.57327812756E+03  0.57327812756E+03  0.00000000000E+00 0.  1.
          2   -1    0    0  501    0  0.00000000000E+00 -0.00000000000E+00 -0.56344855489E+03  0.56344855489E+03  0.00000000000E+00 0. -1.
         23    2    1    2    0    0  0.26284618417E+03  0.24899458185E+02 -0.48370241484E+03  0.56320381024E+03  0.11628588135E+03 0.  0.
          5    1    1    2  502    0 -0.68154919974E+02  0.14710031512E+01  0.25736453415E+03  0.26628152472E+03  0.47000000000E+01 0.  1.
         -5    1    1    2    0  502 -0.19469126419E+03 -0.26370461336E+02  0.23616745336E+03  0.30724134749E+03  0.47000000000E+01 0.  1.
        -11    1    3    3    0    0  0.89107068254E+02  0.40640112722E+01 -0.67965818688E+02  0.11214249110E+03  0.00000000000E+00 0.  1.
         11    1    3    3    0    0  0.17373911591E+03  0.20835446913E+02 -0.41573659615E+03  0.45106131914E+03  0.00000000000E+00 0. -1.
<mgrwt>
<rscale>  0 0.29123632E+03</rscale>
<asrwt>0</asrwt>
<pdfrwt beam="2">  1        2 0.86684393E-01 0.29215520E+03</pdfrwt>
<pdfrwt beam="1">  1       -2 0.88196635E-01 0.29215520E+03</pdfrwt>
<totfact> 0.62721159E+01</totfact>
</mgrwt>
</event>
<event>
 7    1  0.1254976E-005  0.1500005E+03  0.7546771E-02  0.1210135E+00
         -2   -1    0    0    0  501 -0.00000000000E+00  0.00000000000E+00  0.11157214811E+03  0.11157214811E+03  0.00000000000E+00 0. -1.
          2   -1    0    0  501    0  0.00000000000E+00 -0.00000000000E+00 -0.16921423782E+03  0.16921423782E+03  0.00000000000E+00 0.  1.
         23    2    1    2    0    0  0.59516717169E+02  0.57729635786E+02 -0.46377621089E+02  0.13036355968E+03  0.89268266954E+02 0.  0.
          5    1    1    2  502    0  0.27390257670E+02  0.19011288559E+02  0.13912723454E+01  0.33699865677E+02  0.47000000000E+01 0.  1.
         -5    1    1    2    0  502 -0.86906974840E+02 -0.76740924345E+02 -0.12655740964E+02  0.11672296057E+03  0.47000000000E+01 0.  1.
        -11    1    3    3    0    0  0.80906190178E+02  0.39945116298E+02 -0.48548746731E+02  0.10246172326E+03  0.00000000000E+00 0.  1.
         11    1    3    3    0    0 -0.21389473009E+02  0.17784519489E+02  0.21711256423E+01  0.27901836420E+02  0.00000000000E+00 0. -1.
<mgrwt>
<rscale>  0 0.14240082E+03</rscale>
<asrwt>0</asrwt>
<pdfrwt beam="2">  1        2 0.26032959E-01 0.15000046E+03</pdfrwt>
<pdfrwt beam="1">  1       -2 0.17164946E-01 0.15000046E+03</pdfrwt>
<totfact> 0.53843470E+03</totfact>
</mgrwt>
</event>
<event>
 7    1  0.1254976E-005  0.1252761E+03  0.7546771E-02  0.1234709E+00
         -1   -1    0    0    0  501 -0.00000000000E+00  0.00000000000E+00  0.10418428960E+03  0.10418428960E+03  0.00000000000E+00 0.  1.
          1   -1    0    0  501    0  0.00000000000E+00 -0.00000000000E+00 -0.18948407583E+03  0.18948407583E+03  0.00000000000E+00 0. -1.
         23    2    1    2    0    0 -0.93914082585E+01 -0.48414610623E+02 -0.10929471652E+03  0.16611503880E+03  0.11496389862E+03 0.  0.
          5    1    1    2  502    0 -0.20340792919E+02 -0.31884883508E+02 -0.13342651751E+01  0.38134812395E+02  0.47000000000E+01 0. -1.
         -5    1    1    2    0  502  0.29732201177E+02  0.80299494131E+02  0.25329195469E+02  0.89418514233E+02  0.47000000000E+01 0.  1.
        -11    1    3    3    0    0 -0.55184147486E+02  0.41843334021E+01 -0.47160037010E+02  0.72710851120E+02  0.00000000000E+00 0. -1.
         11    1    3    3    0    0  0.45792739228E+02 -0.52598944025E+02 -0.62134679515E+02  0.93404187684E+02  0.00000000000E+00 0.  1.
<mgrwt>
<rscale>  0 0.12523089E+03</rscale>
<asrwt>0</asrwt>
<pdfrwt beam="2">  1        1 0.29151396E-01 0.12527607E+03</pdfrwt>
<pdfrwt beam="1">  1       -1 0.16028352E-01 0.12527607E+03</pdfrwt>
<totfact> 0.43340741E+03</totfact>
</mgrwt>
</event>
<event>
 7    1  0.1254976E-005  0.2533757E+03  0.7546771E-02  0.1113650E+00
         -1   -1    0    0    0  501 -0.00000000000E+00  0.00000000000E+00  0.56516732035E+03  0.56516732035E+03  0.00000000000E+00 0.  1.
          1   -1    0    0  501    0  0.00000000000E+00 -0.00000000000E+00 -0.12841737378E+03  0.12841737378E+03  0.00000000000E+00 0. -1.
         23    2    1    2    0    0 -0.49229265457E+02  0.21482459921E+03  0.70571890147E+02  0.24829195853E+03  0.89974307382E+02 0.  0.
          5    1    1    2  502    0  0.10054406096E+02 -0.19798920315E+03  0.23612251540E+03  0.30834517659E+03  0.47000000000E+01 0.  1.
         -5    1    1    2    0  502  0.39174859360E+02 -0.16835396060E+02  0.13005554103E+03  0.13694755901E+03  0.47000000000E+01 0.  1.
        -11    1    3    3    0    0 -0.22615411708E+02  0.18191812829E+03  0.86972339025E+02  0.20290354853E+03  0.00000000000E+00 0.  1.
         11    1    3    3    0    0 -0.26613853748E+02  0.32906470919E+02 -0.16400448877E+02  0.45388410008E+02  0.00000000000E+00 0. -1.
<mgrwt>
<rscale>  0 0.24945456E+03</rscale>
<asrwt>0</asrwt>
<pdfrwt beam="2">  1        1 0.19756519E-01 0.25337571E+03</pdfrwt>
<pdfrwt beam="1">  1       -1 0.86948817E-01 0.25337571E+03</pdfrwt>
<totfact> 0.35650783E+02</totfact>
</mgrwt>
</event>
<event>
 7    1  0.1254976E-005  0.1618428E+03  0.7546771E-02  0.1203663E+00
          1   -1    0    0  501    0  0.00000000000E+00  0.00000000000E+00  0.10943992808E+03  0.10943992808E+03  0.00000000000E+00 0. -1.
         -1   -1    0    0    0  501 -0.00000000000E+00 -0.00000000000E+00 -0.20982138848E+03  0.20982138848E+03  0.00000000000E+00 0.  1.
         23    2    1    2    0    0 -0.56930422870E+02  0.50607714991E+02  0.25369831446E+02  0.11430651223E+03  0.81364221413E+02 0.  0.
          5    1    1    2  502    0 -0.39088326877E+02 -0.50004997290E+02 -0.66394365956E+02  0.91971185067E+02  0.47000000000E+01 0. -1.
         -5    1    1    2    0  502  0.96018749747E+02 -0.60271770077E+00 -0.59356925886E+02  0.11298361926E+03  0.47000000000E+01 0.  1.
        -11    1    3    3    0    0 -0.19824225929E+02  0.58248341804E+02 -0.10166264501E+02  0.62363628747E+02  0.00000000000E+00 0.  1.
         11    1    3    3    0    0 -0.37106196941E+02 -0.76406268130E+01  0.35536095947E+02  0.51942883485E+02  0.00000000000E+00 0. -1.
<mgrwt>
<rscale>  0 0.14743326E+03</rscale>
<asrwt>0</asrwt>
<pdfrwt beam="1">  1        1 0.16836912E-01 0.16184278E+03</pdfrwt>
<pdfrwt beam="2">  1       -1 0.32280213E-01 0.16184278E+03</pdfrwt>
<totfact> 0.28084350E+03</totfact>
</mgrwt>
</event>
<event>
 7    1  0.1254976E-005  0.1511141E+03  0.7546771E-02  0.1208727E+00
          2   -1    0    0  501    0  0.00000000000E+00  0.00000000000E+00  0.28749937315E+03  0.28749937315E+03  0.00000000000E+00 0. -1.
         -2   -1    0    0    0  501 -0.00000000000E+00 -0.00000000000E+00 -0.73152830433E+02  0.73152830433E+02  0.00000000000E+00 0.  1.
         23    2    1    2    0    0 -0.46275776341E+02 -0.71218024418E+02  0.15630748569E+03  0.19877573232E+03  0.88692204834E+02 0.  0.
          5    1    1    2  502    0  0.89817610106E+01  0.20163568689E+02  0.88647359779E+02  0.91475056321E+02  0.47000000000E+01 0. -1.
         -5    1    1    2    0  502  0.37294015330E+02  0.51054455729E+02 -0.30608302750E+02  0.70401414946E+02  0.47000000000E+01 0. -1.
        -11    1    3    3    0    0  0.18916966375E+02 -0.33573401298E+02  0.92082482914E+02  0.99820882340E+02  0.00000000000E+00 0. -1.
         11    1    3    3    0    0 -0.65192742716E+02 -0.37644623119E+02  0.64225002775E+02  0.98954849978E+02  0.00000000000E+00 0.  1.
<mgrwt>
<rscale>  0 0.14347557E+03</rscale>
<asrwt>0</asrwt>
<pdfrwt beam="1">  1        2 0.44230672E-01 0.15111406E+03</pdfrwt>
<pdfrwt beam="2">  1       -2 0.11254282E-01 0.15111406E+03</pdfrwt>
<totfact> 0.60403224E+03</totfact>
</mgrwt>
</event>
<event>
 7    1  0.1254976E-005  0.1614443E+03  0.7546771E-02  0.1194342E+00
          2   -1    0    0  501    0  0.00000000000E+00  0.00000000000E+00  0.80681344548E+02  0.80681344548E+02  0.00000000000E+00 0. -1.
         -2   -1    0    0    0  501 -0.00000000000E+00 -0.00000000000E+00 -0.37146810518E+03  0.37146810518E+03  0.00000000000E+00 0.  1.
         23    2    1    2    0    0  0.20609511605E+02 -0.10007460502E+03 -0.22962350370E+02  0.13942881906E+03  0.92051330848E+02 0.  0.
          5    1    1    2  502    0  0.48947252774E+01  0.52972449474E+02 -0.16775472366E+02  0.55978077958E+02  0.47000000000E+01 0. -1.
         -5    1    1    2    0  502 -0.25504236882E+02  0.47102155542E+02 -0.25104893790E+03  0.25674255272E+03  0.47000000000E+01 0. -1.
        -11    1    3    3    0    0 -0.26344372248E+02  0.58317469079E+00 -0.65456957260E+01  0.27151651412E+02  0.00000000000E+00 0. -1.
         11    1    3    3    0    0  0.46953883853E+02 -0.10065777971E+03 -0.16416654644E+02  0.11227716764E+03  0.00000000000E+00 0.  1.
<mgrwt>
<rscale>  0 0.15510027E+03</rscale>
<asrwt>0</asrwt>
<pdfrwt beam="1">  1        2 0.12412514E-01 0.16144435E+03</pdfrwt>
<pdfrwt beam="2">  1       -2 0.57148940E-01 0.16144435E+03</pdfrwt>
<totfact> 0.14059397E+03</totfact>
</mgrwt>
</event>
<event>
 7    1  0.1254976E-005  0.1344347E+03  0.7546771E-02  0.1233376E+00
         -1   -1    0    0    0  501 -0.00000000000E+00  0.00000000000E+00  0.11395774261E+03  0.11395774261E+03  0.00000000000E+00 0.  1.
          1   -1    0    0  501    0  0.00000000000E+00 -0.00000000000E+00 -0.13011135652E+03  0.13011135652E+03  0.00000000000E+00 0. -1.
         23    2    1    2    0    0  0.23368814087E+02  0.43625090657E+02 -0.31649233016E+02  0.10874424900E+03  0.91511680862E+02 0.  0.
          5    1    1    2  502    0 -0.13109110241E+02 -0.27495461500E+02 -0.54501277768E+02  0.62612526324E+02  0.47000000000E+01 0. -1.
         -5    1    1    2    0  502 -0.10259703847E+02 -0.16129629156E+02  0.69996896874E+02  0.72712323796E+02  0.47000000000E+01 0. -1.
        -11    1    3    3    0    0 -0.11147416810E+02  0.18483572503E+01 -0.50207692809E+02  0.51463518567E+02  0.00000000000E+00 0. -1.
         11    1    3    3    0    0  0.34516230897E+02  0.41776733406E+02  0.18558459793E+02  0.57280730437E+02  0.00000000000E+00 0.  1.
<mgrwt>
<rscale>  0 0.12608990E+03</rscale>
<asrwt>0</asrwt>
<pdfrwt beam="2">  1        1 0.20017132E-01 0.13443475E+03</pdfrwt>
<pdfrwt beam="1">  1       -1 0.17531960E-01 0.13443475E+03</pdfrwt>
<totfact> 0.60591066E+03</totfact>
</mgrwt>
</event>
<event>
 7    1  0.1254976E-005  0.1594308E+03  0.7546771E-02  0.1203209E+00
          1   -1    0    0  501    0  0.00000000000E+00  0.00000000000E+00  0.66344937158E+03  0.66344937158E+03  0.00000000000E+00 0. -1.
         -1   -1    0    0    0  501 -0.00000000000E+00 -0.00000000000E+00 -0.29914299958E+02  0.29914299958E+02  0.00000000000E+00 0.  1.
         23    2    1    2    0    0  0.35847450019E+02 -0.60978937813E+02  0.33226628996E+03  0.35251025459E+03  0.94122906965E+02 0.  0.
          5    1    1    2  502    0 -0.99040804015E+00 -0.25066451956E+02  0.20662249469E+03  0.20819282705E+03  0.47000000000E+01 0. -1.
         -5    1    1    2    0  502 -0.34857041979E+02  0.86045389770E+02  0.94646286967E+02  0.13266058990E+03  0.47000000000E+01 0.  1.
        -11    1    3    3    0    0 -0.11958392547E+02  0.19692800421E+02  0.84763674925E+02  0.87839001176E+02  0.00000000000E+00 0.  1.
         11    1    3    3    0    0  0.47805842566E+02 -0.80671738234E+02  0.24750261504E+03  0.26467125341E+03  0.00000000000E+00 0. -1.
<mgrwt>
<rscale>  0 0.14779498E+03</rscale>
<asrwt>0</asrwt>
<pdfrwt beam="1">  1        1 0.10206912E+00 0.15943078E+03</pdfrwt>
<pdfrwt beam="2">  1       -1 0.46022005E-02 0.15943078E+03</pdfrwt>
<totfact> 0.59169492E+03</totfact>
</mgrwt>
</event>
<event>
 7    1  0.1254976E-005  0.1573416E+03  0.7546771E-02  0.1199871E+00
         -1   -1    0    0    0  501 -0.00000000000E+00  0.00000000000E+00  0.57287289750E+02  0.57287289750E+02  0.00000000000E+00 0.  1.
          1   -1    0    0  501    0  0.00000000000E+00 -0.00000000000E+00 -0.40530101995E+03  0.40530101995E+03  0.00000000000E+00 0. -1.
         23    2    1    2    0    0 -0.24604978849E+02 -0.92341053861E+02 -0.23320716193E+03  0.26781423757E+03  0.90590343056E+02 0.  0.
          5    1    1    2  502    0 -0.24667747323E+02 -0.35523083048E+01 -0.75958462322E+02  0.80080551013E+02  0.47000000000E+01 0.  1.
         -5    1    1    2    0  502  0.49272726172E+02  0.95893362165E+02 -0.38848105949E+02  0.11469352112E+03  0.47000000000E+01 0.  1.
        -11    1    3    3    0    0 -0.29828568019E+02 -0.39612322456E+02 -0.19819668614E+03  0.20430566795E+03  0.00000000000E+00 0. -1.
         11    1    3    3    0    0  0.52235891699E+01 -0.52728731405E+02 -0.35010475792E+02  0.63508569615E+02  0.00000000000E+00 0.  1.
<mgrwt>
<rscale>  0 0.15049095E+03</rscale>
<asrwt>0</asrwt>
<pdfrwt beam="2">  1        1 0.62354003E-01 0.15734164E+03</pdfrwt>
<pdfrwt beam="1">  1       -1 0.88134292E-02 0.15734164E+03</pdfrwt>
<totfact> 0.42925073E+03</totfact>
</mgrwt>
</event>
<event>
 7    1  0.1254976E-005  0.1306085E+03  0.7546771E-02  0.1235795E+00
          2   -1    0    0  501    0  0.00000000000E+00  0.00000000000E+00  0.37864465515E+03  0.37864465515E+03  0.00000000000E+00 0. -1.
         -2   -1    0    0    0  501 -0.00000000000E+00 -0.00000000000E+00 -0.90945020692E+02  0.90945020692E+02  0.00000000000E+00 0.  1.
         23    2    1    2    0    0 -0.52680552303E+02  0.82931115072E+01  0.31773142088E+03  0.33557293399E+03  0.93871837770E+02 0.  0.
          5    1    1    2  502    0 -0.33846188021E+02  0.14003565643E+02  0.62676310004E+01  0.37457142078E+02  0.47000000000E+01 0. -1.
         -5    1    1    2    0  502  0.86526740324E+02 -0.22296677150E+02 -0.36299417419E+02  0.96559599772E+02  0.47000000000E+01 0.  1.
        -11    1    3    3    0    0  0.23327220314E+02 -0.10487090543E+02  0.12416879272E+03  0.12677549984E+03  0.00000000000E+00 0.  1.
         11    1    3    3    0    0 -0.76007772617E+02  0.18780202051E+02  0.19356262816E+03  0.20879743415E+03  0.00000000000E+00 0. -1.
<mgrwt>
<rscale>  0 0.12453659E+03</rscale>
<asrwt>0</asrwt>
<pdfrwt beam="1">  1        2 0.58253023E-01 0.13060849E+03</pdfrwt>
<pdfrwt beam="2">  1       -2 0.13991542E-01 0.13060849E+03</pdfrwt>
<totfact> 0.31544140E+03</totfact>
</mgrwt>
</event>
<event>
 7    1  0.1254976E-005  0.1514232E+03  0.7546771E-02  0.1208019E+00
         -2   -1    0    0    0  501 -0.00000000000E+00  0.00000000000E+00  0.16091934329E+03  0.16091934329E+03  0.00000000000E+00 0.  1.
          2   -1    0    0  501    0  0.00000000000E+00 -0.00000000000E+00 -0.12233859842E+03  0.12233859842E+03  0.00000000000E+00 0. -1.
         23    2    1    2    0    0 -0.71488677694E+02 -0.46835415807E+02 -0.97812864739E+01  0.12429924114E+03  0.89724247401E+02 0.  0.
          5    1    1    2  502    0 -0.25231452284E+02  0.20462390243E+02 -0.19150978639E+02  0.38002441785E+02  0.47000000000E+01 0. -1.
         -5    1    1    2    0  502  0.96720129978E+02  0.26373025564E+02  0.67513009989E+02  0.12095625878E+03  0.47000000000E+01 0. -1.
        -11    1    3    3    0    0 -0.77113187050E+02 -0.32397523398E+02  0.24098190170E+02  0.87044620217E+02  0.00000000000E+00 0.  1.
         11    1    3    3    0    0  0.56245093557E+01 -0.14437892409E+02 -0.33879476644E+02  0.37254620927E+02  0.00000000000E+00 0. -1.
<mgrwt>
<rscale>  0 0.14402046E+03</rscale>
<asrwt>0</asrwt>
<pdfrwt beam="2">  1        2 0.18821323E-01 0.15142319E+03</pdfrwt>
<pdfrwt beam="1">  1       -2 0.24756822E-01 0.15142319E+03</pdfrwt>
<totfact> 0.41529275E+03</totfact>
</mgrwt>
</event>
<event>
 6    1  0.1254976E-005  0.1124352E+03  0.7546771E-02  0.1296279E+00
          2   -1    0    0  501    0  0.00000000000E+00  0.00000000000E+00  0.68791142750E+02  0.68791142750E+02  0.00000000000E+00 0. -1.
         -2   -1    0    0    0  501 -0.00000000000E+00 -0.00000000000E+00 -0.10549674182E+03  0.10549674182E+03  0.00000000000E+00 0.  1.
          5    1    1    2  502    0  0.56788484637E+02  0.70946082261E+01 -0.21309704165E+02  0.61249154646E+02  0.47000000000E+01 0. -1.
         -5    1    1    2    0  502 -0.47259115742E+02 -0.27633476154E+02 -0.24462535630E+02  0.60145978041E+02  0.47000000000E+01 0.  1.
        -11    1    1    2    0    0 -0.24674122020E+02  0.19435503355E+02  0.17048361799E+02  0.35737903242E+02  0.00000000000E+00 0. -1.
         11    1    1    2    0    0  0.15144753125E+02  0.11033645723E+01 -0.79817210747E+01  0.17154848641E+02  0.00000000000E+00 0.  1.
<mgrwt>
<rscale>  0 0.92769841E+02</rscale>
<asrwt>0</asrwt>
<pdfrwt beam="1">  1        2 0.10583253E-01 0.11243523E+03</pdfrwt>
<pdfrwt beam="2">  1       -2 0.16230268E-01 0.11243523E+03</pdfrwt>
<totfact> 0.16324950E+04</totfact>
</mgrwt>
</event>
<event>
 7    1  0.1254976E-005  0.1361864E+03  0.7546771E-02  0.1230040E+00
         -2   -1    0    0    0  501 -0.00000000000E+00  0.00000000000E+00  0.39034675421E+03  0.39034675421E+03  0.00000000000E+00 0.  1.
          2   -1    0    0  501    0  0.00000000000E+00 -0.00000000000E+00 -0.47182437707E+02  0.47182437707E+02  0.00000000000E+00 0. -1.
         23    2    1    2    0    0 -0.42859839619E+02 -0.32886829604E+02  0.58852629296E+02  0.12228345205E+03  0.92580242253E+02 0.  0.
          5    1    1    2  502    0  0.63104345812E+02  0.34930781247E+02  0.72388650231E+02  0.10229625908E+03  0.47000000000E+01 0.  1.
         -5    1    1    2    0  502 -0.20244506193E+02 -0.20439516431E+01  0.21192303698E+03  0.21294948080E+03  0.47000000000E+01 0.  1.
        -11    1    3    3    0    0  0.27678487333E+02 -0.22446686795E+02  0.15748739159E+02  0.38961201140E+02  0.00000000000E+00 0.  1.
         11    1    3    3    0    0 -0.70538326952E+02 -0.10440142808E+02  0.43103890136E+02  0.83322250905E+02  0.00000000000E+00 0. -1.
<mgrwt>
<rscale>  0 0.12827396E+03</rscale>
<asrwt>0</asrwt>
<pdfrwt beam="2">  1        2 0.72588368E-02 0.13618642E+03</pdfrwt>
<pdfrwt beam="1">  1       -2 0.60053345E-01 0.13618642E+03</pdfrwt>
<totfact> 0.24450425E+03</totfact>
</mgrwt>
</event>
<event>
 7    1  0.1254976E-005  0.1365265E+03  0.7546771E-02  0.1230631E+00
          1   -1    0    0  501    0  0.00000000000E+00  0.00000000000E+00  0.41386885307E+03  0.41386885307E+03  0.00000000000E+00 0. -1.
         -1   -1    0    0    0  501 -0.00000000000E+00 -0.00000000000E+00 -0.35297422170E+02  0.35297422170E+02  0.00000000000E+00 0.  1.
         23    2    1    2    0    0 -0.48200604504E+02 -0.26315036605E+02  0.17123125498E+03  0.20091352385E+03  0.89612063679E+02 0.  0.
          5    1    1    2  502    0  0.79332234385E+02  0.60312099922E+01  0.70588130674E+02  0.10646479746E+03  0.47000000000E+01 0. -1.
         -5    1    1    2    0  502 -0.31131629881E+02  0.20283826612E+02  0.13675204524E+03  0.14178795393E+03  0.47000000000E+01 0. -1.
        -11    1    3    3    0    0  0.10526024546E+01  0.19804624936E+02  0.10322496366E+03  0.10511291198E+03  0.00000000000E+00 0. -1.
         11    1    3    3    0    0 -0.49253206959E+02 -0.46119661540E+02  0.68006291317E+02  0.95800611872E+02  0.00000000000E+00 0.  1.
<mgrwt>
<rscale>  0 0.12788329E+03</rscale>
<asrwt>0</asrwt>
<pdfrwt beam="1">  1        1 0.63672128E-01 0.13652648E+03</pdfrwt>
<pdfrwt beam="2">  1       -1 0.54303729E-02 0.13652648E+03</pdfrwt>
<totfact> 0.85802143E+03</totfact>
</mgrwt>
</event>
<event>
 7    1  0.1254976E-005  0.2977099E+03  0.7546771E-02  0.1087900E+00
          3   -1    0    0  501    0  0.00000000000E+00  0.00000000000E+00  0.24614320560E+03  0.24614320560E+03  0.00000000000E+00 0. -1.
         -3   -1    0    0    0  501 -0.00000000000E+00 -0.00000000000E+00 -0.38259484037E+03  0.38259484037E+03  0.00000000000E+00 0.  1.
         23    2    1    2    0    0 -0.92375441092E+02  0.25391473331E+03  0.30131097828E+02  0.28759141958E+03  0.93781808758E+02 0.  0.
          5    1    1    2  502    0  0.62771669887E+02 -0.25139338558E+03 -0.17136577790E+03  0.31068832725E+03  0.47000000000E+01 0.  1.
         -5    1    1    2    0  502  0.29603771205E+02 -0.25213477269E+01  0.47830452969E+01  0.30458299136E+02  0.47000000000E+01 0.  1.
        -11    1    3    3    0    0 -0.68045295387E+02  0.62470450340E+02  0.18860214248E+02  0.94278454969E+02  0.00000000000E+00 0. -1.
         11    1    3    3    0    0 -0.24330145705E+02  0.19144428297E+03  0.11270883580E+02  0.19331296462E+03  0.00000000000E+00 0.  1.
<mgrwt>
<rscale>  0 0.29474049E+03</rscale>
<asrwt>0</asrwt>
<pdfrwt beam="1">  1        3 0.37868186E-01 0.29770995E+03</pdfrwt>
<pdfrwt beam="2">  1       -3 0.58860744E-01 0.29770995E+03</pdfrwt>
<totfact> 0.49619928E+01</totfact>
</mgrwt>
</event>
<event>
 7    1  0.1254976E-005  0.1531864E+03  0.7546771E-02  0.1216487E+00
          1   -1    0    0  501    0  0.00000000000E+00  0.00000000000E+00  0.73957399261E+02  0.73957399261E+02  0.00000000000E+00 0. -1.
         -1   -1    0    0    0  501 -0.00000000000E+00 -0.00000000000E+00 -0.21734654380E+03  0.21734654380E+03  0.00000000000E+00 0.  1.
         23    2    1    2    0    0 -0.12619082384E+02 -0.41217628584E+02 -0.64931698409E+02  0.11919452195E+03  0.90183559802E+02 0.  0.
          5    1    1    2  502    0  0.63027921177E+02 -0.21794959282E+01  0.70977752203E+01  0.63637547592E+02  0.47000000000E+01 0. -1.
         -5    1    1    2    0  502 -0.50408838793E+02  0.43397124512E+02 -0.85555221348E+02  0.10847187352E+03  0.47000000000E+01 0.  1.
        -11    1    3    3    0    0 -0.40732736419E+02  0.12588143664E+01 -0.53039182118E+02  0.66887183148E+02  0.00000000000E+00 0.  1.
         11    1    3    3    0    0  0.28113654035E+02 -0.42476442950E+02 -0.11892516291E+02  0.52307338802E+02  0.00000000000E+00 0. -1.
<mgrwt>
<rscale>  0 0.13767893E+03</rscale>
<asrwt>0</asrwt>
<pdfrwt beam="1">  1        1 0.11378061E-01 0.15318643E+03</pdfrwt>
<pdfrwt beam="2">  1       -1 0.33437930E-01 0.15318643E+03</pdfrwt>
<totfact> 0.43995699E+03</totfact>
</mgrwt>
</event>
<event>
 7    1  0.1254976E-005  0.1322326E+03  0.7546771E-02  0.1232847E+00
          2   -1    0    0  501    0  0.00000000000E+00  0.00000000000E+00  0.44246076954E+03  0.44246076954E+03  0.00000000000E+00 0. -1.
         -2   -1    0    0    0  501 -0.00000000000E+00 -0.00000000000E+00 -0.34902293480E+02  0.34902293480E+02  0.00000000000E+00 0.  1.
         23    2    1    2    0    0 -0.29387054151E+02 -0.55596634530E+02  0.23741419976E+03  0.26187633865E+03  0.90879754487E+02 0.  0.
          5    1    1    2  502    0  0.31931605047E+02 -0.12100916059E+02  0.13439193705E+03  0.13874199910E+03  0.47000000000E+01 0. -1.
         -5    1    1    2    0  502 -0.25445508959E+01  0.67697550588E+02  0.35752339253E+02  0.76744725271E+02  0.47000000000E+01 0.  1.
        -11    1    3    3    0    0 -0.13981824942E+02  0.18167435101E+02  0.15909242761E+02  0.27904321029E+02  0.00000000000E+00 0. -1.
         11    1    3    3    0    0 -0.15405229208E+02 -0.73764069631E+02  0.22150495700E+03  0.23397201763E+03  0.00000000000E+00 0.  1.
<mgrwt>
<rscale>  0 0.12643282E+03</rscale>
<asrwt>0</asrwt>
<pdfrwt beam="1">  1        2 0.68070884E-01 0.13223257E+03</pdfrwt>
<pdfrwt beam="2">  1       -2 0.53695839E-02 0.13223257E+03</pdfrwt>
<totfact> 0.11856587E+04</totfact>
</mgrwt>
</event>
<event>
 7    1  0.1254976E-005  0.1663499E+03  0.7546771E-02  0.1188704E+00
          1   -1    0    0  501    0  0.00000000000E+00  0.00000000000E+00  0.49844298684E+03  0.49844298684E+03  0.00000000000E+00 0. -1.
         -1   -1    0    0    0  501 -0.00000000000E+00 -0.00000000000E+00 -0.52319301381E+02  0.52319301381E+02  0.00000000000E+00 0.  1.
         23    2    1    2    0    0 -0.10957197407E+03 -0.64057543891E+01  0.28797007451E+03  0.32123045458E+03  0.90637685026E+02 0.  0.
          5    1    1    2  502    0 -0.26426492231E+02  0.35503175653E+01  0.45059927362E+02  0.52568539074E+02  0.47000000000E+01 0. -1.
         -5    1    1    2    0  502  0.13599846630E+03  0.28554368238E+01  0.11309368358E+03  0.17696329456E+03  0.47000000000E+01 0. -1.
        -11    1    3    3    0    0 -0.51500286583E+02 -0.42034571678E+02  0.90171335396E+02  0.11202702558E+03  0.00000000000E+00 0.  1.
         11    1    3    3    0    0 -0.58071687486E+02  0.35628817289E+02  0.19779873912E+03  0.20920342900E+03  0.00000000000E+00 0. -1.
<mgrwt>
<rscale>  0 0.15999370E+03</rscale>
<asrwt>0</asrwt>
<pdfrwt beam="1">  1        1 0.76683533E-01 0.16634993E+03</pdfrwt>
<pdfrwt beam="2">  1       -1 0.80491237E-02 0.16634993E+03</pdfrwt>
<totfact> 0.37828943E+03</totfact>
</mgrwt>
</event>
<event>
 7    1  0.1254976E-005  0.1533794E+03  0.7546771E-02  0.1201860E+00
         -2   -1    0    0    0  501 -0.00000000000E+00  0.00000000000E+00  0.11028954676E+03  0.11028954676E+03  0.00000000000E+00 0.  1.
          2   -1    0    0  501    0  0.00000000000E+00 -0.00000000000E+00 -0.20399647412E+03  0.20399647412E+03  0.00000000000E+00 0. -1.
         23    2    1    2    0    0 -0.34572238821E+02  0.81899912311E+02 -0.85332264840E+02  0.16067812852E+03  0.10311658562E+03 0.  0.
          5    1    1    2  502    0 -0.16343030436E+02 -0.93818855320E+02  0.14307851940E+02  0.96415127882E+02  0.47000000000E+01 0. -1.
         -5    1    1    2    0  502  0.50915269257E+02  0.11918943009E+02 -0.22682514462E+02  0.57192764475E+02  0.47000000000E+01 0. -1.
        -11    1    3    3    0    0  0.31996847049E+02  0.39760736437E+01 -0.10979844712E+02  0.34061185720E+02  0.00000000000E+00 0.  1.
         11    1    3    3    0    0 -0.66569085871E+02  0.77923838667E+02 -0.74352420128E+02  0.12661694280E+03  0.00000000000E+00 0. -1.
<mgrwt>
<rscale>  0 0.14887677E+03</rscale>
<asrwt>0</asrwt>
<pdfrwt beam="2">  1        2 0.31384073E-01 0.15337943E+03</pdfrwt>
<pdfrwt beam="1">  1       -2 0.16967623E-01 0.15337943E+03</pdfrwt>
<totfact> 0.44814751E+03</totfact>
</mgrwt>
</event>
<event>
 7    1  0.1254976E-005  0.2612619E+03  0.7546771E-02  0.1126288E+00
         -2   -1    0    0    0  501 -0.00000000000E+00  0.00000000000E+00  0.18734705651E+03  0.18734705651E+03  0.00000000000E+00 0.  1.
          2   -1    0    0  501    0  0.00000000000E+00 -0.00000000000E+00 -0.29712142018E+03  0.29712142018E+03  0.00000000000E+00 0. -1.
         23    2    1    2    0    0 -0.10895650093E+03 -0.35799512245E+02 -0.15242495824E+03  0.21974818372E+03  0.10909982667E+03 0.  0.
          5    1    1    2  502    0  0.16728201590E+03 -0.33361495657E+02  0.26038531169E+02  0.17261621402E+03  0.47000000000E+01 0. -1.
         -5    1    1    2    0  502 -0.58325514966E+02  0.69161007902E+02  0.16612063407E+02  0.92104078958E+02  0.47000000000E+01 0.  1.
        -11    1    3    3    0    0 -0.12556080853E+03 -0.12505144229E+02 -0.10405501751E+03  0.16355226058E+03  0.00000000000E+00 0.  1.
         11    1    3    3    0    0  0.16604307592E+02 -0.23294368015E+02 -0.48369940726E+02  0.56195923142E+02  0.00000000000E+00 0. -1.
<mgrwt>
<rscale>  0 0.23049991E+03</rscale>
<asrwt>0</asrwt>
<pdfrwt beam="2">  1        2 0.45710988E-01 0.26126186E+03</pdfrwt>
<pdfrwt beam="1">  1       -2 0.28822624E-01 0.26126186E+03</pdfrwt>
<totfact> 0.12151525E+03</totfact>
</mgrwt>
</event>
<event>
 7    1  0.1254976E-005  0.2038807E+03  0.7546771E-02  0.1150424E+00
          1   -1    0    0  501    0  0.00000000000E+00  0.00000000000E+00  0.51714334186E+02  0.51714334186E+02  0.00000000000E+00 0. -1.
         -1   -1    0    0    0  501 -0.00000000000E+00 -0.00000000000E+00 -0.13466146501E+04  0.13466146501E+04  0.00000000000E+00 0.  1.
         23    2    1    2    0    0  0.13677225326E+03 -0.85063807245E+02 -0.15970556917E+03  0.24497108232E+03  0.92533571116E+02 0.  0.
          5    1    1    2  502    0 -0.10595648181E+03 -0.45620619393E+01 -0.69413114540E+03  0.70220205459E+03  0.47000000000E+01 0.  1.
         -5    1    1    2    0  502 -0.30815771456E+02  0.89625869184E+02 -0.44106360132E+03  0.45115584736E+03  0.47000000000E+01 0.  1.
        -11    1    3    3    0    0  0.57300586402E+02 -0.28763428905E+02 -0.12694187911E+03  0.14221438998E+03  0.00000000000E+00 0.  1.
         11    1    3    3    0    0  0.79471666860E+02 -0.56300378339E+02 -0.32763690057E+02  0.10275669234E+03  0.00000000000E+00 0. -1.
<mgrwt>
<rscale>  0 0.19918988E+03</rscale>
<asrwt>0</asrwt>
<pdfrwt beam="1">  1        1 0.79560510E-02 0.20388069E+03</pdfrwt>
<pdfrwt beam="2">  1       -1 0.20717150E+00 0.20388069E+03</pdfrwt>
<totfact> 0.13224611E+02</totfact>
</mgrwt>
</event>
<event>
 7    1  0.1254976E-005  0.1366050E+03  0.7546771E-02  0.1230181E+00
          1   -1    0    0  501    0  0.00000000000E+00  0.00000000000E+00  0.20920343560E+03  0.20920343560E+03  0.00000000000E+00 0. -1.
         -1   -1    0    0    0  501 -0.00000000000E+00 -0.00000000000E+00 -0.77662970404E+02  0.77662970404E+02  0.00000000000E+00 0.  1.
         23    2    1    2    0    0  0.51981967320E+02  0.18206834774E+02  0.10214804493E+03  0.14713513734E+03  0.90448393016E+02 0.  0.
          5    1    1    2  502    0 -0.52177046147E+02 -0.37344197312E+02  0.69706370732E+02  0.94858322451E+02  0.47000000000E+01 0. -1.
         -5    1    1    2    0  502  0.19507882669E+00  0.19137362538E+02 -0.40313950457E+02  0.44872946217E+02  0.47000000000E+01 0. -1.
        -11    1    3    3    0    0  0.26465990565E+00  0.33488114111E+02  0.83680514221E+02  0.90132970060E+02  0.00000000000E+00 0. -1.
         11    1    3    3    0    0  0.51717307415E+02 -0.15281279337E+02  0.18467530705E+02  0.57002167281E+02  0.00000000000E+00 0.  1.
<mgrwt>
<rscale>  0 0.12818064E+03</rscale>
<asrwt>0</asrwt>
<pdfrwt beam="1">  1        1 0.32185144E-01 0.13660495E+03</pdfrwt>
<pdfrwt beam="2">  1       -1 0.11948149E-01 0.13660495E+03</pdfrwt>
<totfact> 0.60878555E+03</totfact>
</mgrwt>
</event>
<event>
 6    1  0.1254976E-005  0.1263010E+03  0.7546771E-02  0.1295574E+00
         -2   -1    0    0    0  501 -0.00000000000E+00  0.00000000000E+00  0.31264159270E+03  0.31264159270E+03  0.00000000000E+00 0.  1.
          2   -1    0    0  501    0  0.00000000000E+00 -0.00000000000E+00 -0.22668657526E+02  0.22668657526E+02  0.00000000000E+00 0. -1.
          5    1    1    2  502    0 -0.47333610164E+02  0.19062333027E+02  0.39584089486E+02  0.64752091334E+02  0.47000000000E+01 0. -1.
         -5    1    1    2    0  502  0.44188237253E+02 -0.13693436342E+01  0.21370131865E+03  0.21827693192E+03  0.47000000000E+01 0. -1.
        -11    1    1    2    0    0 -0.87172136621E+01 -0.22340707658E+02  0.27972763762E+02  0.36845251325E+02  0.00000000000E+00 0.  1.
         11    1    1    2    0    0  0.11862586573E+02  0.46477182654E+01  0.87147632674E+01  0.15435975644E+02  0.00000000000E+00 0. -1.
<mgrwt>
<rscale>  0 0.93073983E+02</rscale>
<asrwt>0</asrwt>
<pdfrwt beam="2">  1        2 0.34874860E-02 0.12630095E+03</pdfrwt>
<pdfrwt beam="1">  1       -2 0.48098703E-01 0.12630095E+03</pdfrwt>
<totfact> 0.98541011E+03</totfact>
</mgrwt>
</event>
<event>
 7    1  0.1254976E-005  0.1863310E+03  0.7546771E-02  0.1166888E+00
          1   -1    0    0  501    0  0.00000000000E+00  0.00000000000E+00  0.18405449757E+03  0.18405449757E+03  0.00000000000E+00 0. -1.
         -1   -1    0    0    0  501 -0.00000000000E+00 -0.00000000000E+00 -0.16852058785E+03  0.16852058785E+03  0.00000000000E+00 0.  1.
         23    2    1    2    0    0 -0.11771231771E+03 -0.72371198461E+02  0.16293866206E+01  0.16572600264E+03  0.91480451150E+02 0.  0.
          5    1    1    2  502    0  0.29417835744E+00  0.46206219584E+02  0.42669582837E+02  0.63070473033E+02  0.47000000000E+01 0. -1.
         -5    1    1    2    0  502  0.11741813936E+03  0.26164978877E+02 -0.28765059738E+02  0.12377860975E+03  0.47000000000E+01 0. -1.
        -11    1    3    3    0    0 -0.99449322640E+02 -0.95510056307E+01 -0.45736265518E+01  0.10001153704E+03  0.00000000000E+00 0. -1.
         11    1    3    3    0    0 -0.18262995074E+02 -0.62820192831E+02  0.62030131725E+01  0.65714465598E+02  0.00000000000E+00 0.  1.
<mgrwt>
<rscale>  0 0.18094903E+03</rscale>
<asrwt>0</asrwt>
<pdfrwt beam="1">  1        1 0.28316077E-01 0.18633101E+03</pdfrwt>
<pdfrwt beam="2">  1       -1 0.25926244E-01 0.18633101E+03</pdfrwt>
<totfact> 0.21055175E+03</totfact>
</mgrwt>
</event>
<event>
 7    1  0.1254976E-005  0.1572660E+03  0.7546771E-02  0.1199715E+00
         -2   -1    0    0    0  501 -0.00000000000E+00  0.00000000000E+00  0.41358911253E+02  0.41358911253E+02  0.00000000000E+00 0. -1.
          2   -1    0    0  501    0  0.00000000000E+00 -0.00000000000E+00 -0.52943358882E+03  0.52943358882E+03  0.00000000000E+00 0.  1.
         23    2    1    2    0    0 -0.39118597737E+02  0.87052016313E+02 -0.28259585833E+03  0.31203751577E+03  0.91644278983E+02 0.  0.
          5    1    1    2  502    0  0.65926250358E+01 -0.12416964900E+02  0.16553218880E+02  0.22220323523E+02  0.47000000000E+01 0.  1.
         -5    1    1    2    0  502  0.32525972701E+02 -0.74635051413E+02 -0.22203203812E+03  0.23653466078E+03  0.47000000000E+01 0.  1.
        -11    1    3    3    0    0 -0.32090295899E+02  0.66720022827E+02 -0.28086093871E+03  0.29045518661E+03  0.00000000000E+00 0.  1.
         11    1    3    3    0    0 -0.70283018381E+01  0.20331993486E+02 -0.17349196204E+01  0.21582329159E+02  0.00000000000E+00 0. -1.
<mgrwt>
<rscale>  0 0.15061825E+03</rscale>
<asrwt>0</asrwt>
<pdfrwt beam="2">  1        2 0.81451321E-01 0.15726601E+03</pdfrwt>
<pdfrwt beam="1">  1       -2 0.63629094E-02 0.15726601E+03</pdfrwt>
<totfact> 0.76172110E+03</totfact>
</mgrwt>
</event>
<event>
 7    1  0.1254976E-005  0.3115192E+03  0.7546771E-02  0.1110490E+00
          1   -1    0    0  501    0  0.00000000000E+00  0.00000000000E+00  0.74329683510E+03  0.74329683510E+03  0.00000000000E+00 0. -1.
         -1   -1    0    0    0  501 -0.00000000000E+00 -0.00000000000E+00 -0.68218252358E+02  0.68218252358E+02  0.00000000000E+00 0.  1.
         23    2    1    2    0    0 -0.36502166554E+02  0.88855542879E+02  0.20191996360E+03  0.24501416947E+03  0.10016264710E+03 0.  0.
          5    1    1    2  502    0 -0.12351844140E+03 -0.60184875779E+02  0.14249350668E+03  0.19800382341E+03  0.47000000000E+01 0. -1.
         -5    1    1    2    0  502  0.16002060795E+03 -0.28670667100E+02  0.33066511246E+03  0.36849709459E+03  0.47000000000E+01 0.  1.
        -11    1    3    3    0    0 -0.68194679431E+02  0.36107204290E+02  0.11647020164E+03  0.13971239163E+03  0.00000000000E+00 0. -1.
         11    1    3    3    0    0  0.31692512877E+02  0.52748338589E+02  0.85449761962E+02  0.10530177784E+03  0.00000000000E+00 0.  1.
<mgrwt>
<rscale>  0 0.25450506E+03</rscale>
<asrwt>0</asrwt>
<pdfrwt beam="1">  1        1 0.11435335E+00 0.31151920E+03</pdfrwt>
<pdfrwt beam="2">  1       -1 0.10495116E-01 0.31151920E+03</pdfrwt>
<totfact> 0.14582363E+03</totfact>
</mgrwt>
</event>
<event>
 7    1  0.1254976E-005  0.2155729E+03  0.7546771E-02  0.1140810E+00
          2   -1    0    0  501    0  0.00000000000E+00  0.00000000000E+00  0.55234131733E+03  0.55234131733E+03  0.00000000000E+00 0. -1.
         -2   -1    0    0    0  501 -0.00000000000E+00 -0.00000000000E+00 -0.77886996682E+02  0.77886996682E+02  0.00000000000E+00 0.  1.
         23    2    1    2    0    0  0.60459081637E+02 -0.16490271723E+03  0.25431074118E+03  0.32211330109E+03  0.90745903270E+02 0.  0.
          5    1    1    2  502    0 -0.92942922504E+02  0.89881045106E+02  0.10395221329E+03  0.16596729124E+03  0.47000000000E+01 0. -1.
         -5    1    1    2    0  502  0.32483840866E+02  0.75021672122E+02  0.11619136618E+03  0.14214772168E+03  0.47000000000E+01 0. -1.
        -11    1    3    3    0    0 -0.22406348842E+02 -0.48487875251E+02  0.53039496569E+02  0.75274874368E+02  0.00000000000E+00 0.  1.
         11    1    3    3    0    0  0.82865430480E+02 -0.11641484198E+03  0.20127124461E+03  0.24683842673E+03  0.00000000000E+00 0. -1.
<mgrwt>
<rscale>  0 0.21095708E+03</rscale>
<asrwt>0</asrwt>
<pdfrwt beam="1">  1        2 0.84975584E-01 0.21557288E+03</pdfrwt>
<pdfrwt beam="2">  1       -2 0.11982615E-01 0.21557288E+03</pdfrwt>
<totfact> 0.27290634E+03</totfact>
</mgrwt>
</event>
<event>
 7    1  0.1254976E-005  0.1336639E+03  0.7546771E-02  0.1234941E+00
          2   -1    0    0  501    0  0.00000000000E+00  0.00000000000E+00  0.30485041598E+03  0.30485041598E+03  0.00000000000E+00 0.  1.
         -2   -1    0    0    0  501 -0.00000000000E+00 -0.00000000000E+00 -0.62220708136E+02  0.62220708136E+02  0.00000000000E+00 0. -1.
         23    2    1    2    0    0  0.42918670324E+02 -0.19962664273E+02  0.20340126591E+03  0.22776960729E+03  0.90919738267E+02 0.  0.
          5    1    1    2  502    0 -0.65569326298E+02  0.58110849009E+02  0.16674062791E+02  0.89310255254E+02  0.47000000000E+01 0. -1.
         -5    1    1    2    0  502  0.22650655974E+02 -0.38148184736E+02  0.22554379148E+02  0.49991261571E+02  0.47000000000E+01 0. -1.
        -11    1    3    3    0    0  0.13035851967E+02 -0.44898402185E+02  0.17053889933E+03  0.17683132115E+03  0.00000000000E+00 0.  1.
         11    1    3    3    0    0  0.29882818357E+02  0.24935737912E+02  0.32862366580E+02  0.50938286145E+02  0.00000000000E+00 0. -1.
<mgrwt>
<rscale>  0 0.12508207E+03</rscale>
<asrwt>0</asrwt>
<pdfrwt beam="1">  1        2 0.46900063E-01 0.13366391E+03</pdfrwt>
<pdfrwt beam="2">  1       -2 0.95724168E-02 0.13366391E+03</pdfrwt>
<totfact> 0.72716133E+03</totfact>
</mgrwt>
</event>
<event>
 7    1  0.1254976E-005  0.1773327E+03  0.7546771E-02  0.1176381E+00
         -2   -1    0    0    0  501 -0.00000000000E+00  0.00000000000E+00  0.12656605063E+03  0.12656605063E+03  0.00000000000E+00 0.  1.
          2   -1    0    0  501    0  0.00000000000E+00 -0.00000000000E+00 -0.22447125087E+03  0.22447125087E+03  0.00000000000E+00 0. -1.
         23    2    1    2    0    0  0.71144534457E+02  0.10378183017E+03 -0.75649123480E+02  0.17231346708E+03  0.90204922252E+02 0.  0.
          5    1    1    2  502    0 -0.45703951984E+02 -0.12478069327E+03 -0.42667456225E+02  0.13964839584E+03  0.47000000000E+01 0.  1.
         -5    1    1    2    0  502 -0.25440582474E+02  0.20998863102E+02  0.20411379462E+02  0.39075438574E+02  0.47000000000E+01 0.  1.
        -11    1    3    3    0    0  0.88616130851E+02  0.91564440520E+02 -0.80134702827E+02  0.15052719360E+03  0.00000000000E+00 0. -1.
         11    1    3    3    0    0 -0.17471596393E+02  0.12217389652E+02  0.44855793473E+01  0.21786273489E+02  0.00000000000E+00 0.  1.
<mgrwt>
<rscale>  0 0.17141472E+03</rscale>
<asrwt>0</asrwt>
<pdfrwt beam="2">  1        2 0.34534038E-01 0.17733267E+03</pdfrwt>
<pdfrwt beam="1">  1       -2 0.19471700E-01 0.17733267E+03</pdfrwt>
<totfact> 0.32305399E+03</totfact>
</mgrwt>
</event>
<event>
 7    1  0.1254976E-005  0.1349164E+03  0.7546771E-02  0.1232565E+00
          2   -1    0    0  501    0  0.00000000000E+00  0.00000000000E+00  0.13004222814E+03  0.13004222814E+03  0.00000000000E+00 0. -1.
         -2   -1    0    0    0  501 -0.00000000000E+00 -0.00000000000E+00 -0.11042498761E+03  0.11042498761E+03  0.00000000000E+00 0.  1.
         23    2    1    2    0    0  0.49604335901E+02 -0.10831613475E+02  0.11916844205E+02  0.10533124688E+03  0.91513640529E+02 0.  0.
          5    1    1    2  502    0  0.14729470802E+02  0.13775798239E+02 -0.46454202726E+02  0.50860720385E+02  0.47000000000E+01 0. -1.
         -5    1    1    2    0  502 -0.64333806703E+02 -0.29441847645E+01  0.54154599049E+02  0.84275248483E+02  0.47000000000E+01 0. -1.
        -11    1    3    3    0    0  0.76374944813E+01 -0.42021881768E+02 -0.16539968674E+02  0.45801096417E+02  0.00000000000E+00 0. -1.
         11    1    3    3    0    0  0.41966841420E+02  0.31190268293E+02  0.28456812879E+02  0.59530150463E+02  0.00000000000E+00 0.  1.
<mgrwt>
<rscale>  0 0.12661597E+03</rscale>
<asrwt>0</asrwt>
<pdfrwt beam="1">  1        2 0.20006497E-01 0.13491640E+03</pdfrwt>
<pdfrwt beam="2">  1       -2 0.16988460E-01 0.13491640E+03</pdfrwt>
<totfact> 0.72959131E+03</totfact>
</mgrwt>
</event>
<event>
 7    1  0.1254976E-005  0.1258088E+03  0.7546771E-02  0.1249055E+00
         -3   -1    0    0    0  501 -0.00000000000E+00  0.00000000000E+00  0.25513265971E+03  0.25513265971E+03  0.00000000000E+00 0.  1.
          3   -1    0    0  501    0  0.00000000000E+00 -0.00000000000E+00 -0.50608320864E+02  0.50608320864E+02  0.00000000000E+00 0. -1.
         23    2    1    2    0    0 -0.48518733942E+01  0.13153695184E+02  0.45518794341E+02  0.10298342178E+03  0.91307525156E+02 0.  0.
          5    1    1    2  502    0  0.37695769678E+02 -0.55471618248E+02  0.60097746874E+02  0.90177051748E+02  0.47000000000E+01 0.  1.
         -5    1    1    2    0  502 -0.32843896284E+02  0.42317923064E+02  0.98907797631E+02  0.11258050705E+03  0.47000000000E+01 0.  1.
        -11    1    3    3    0    0 -0.16800132627E+02  0.12276331120E+02 -0.24387590158E+02  0.32057874474E+02  0.00000000000E+00 0. -1.
         11    1    3    3    0    0  0.11948259232E+02  0.87736406356E+00  0.69906384499E+02  0.70925547303E+02  0.00000000000E+00 0.  1.
<mgrwt>
<rscale>  0 0.11645954E+03</rscale>
<asrwt>0</asrwt>
<pdfrwt beam="2">  1        3 0.77858956E-02 0.12580884E+03</pdfrwt>
<pdfrwt beam="1">  1       -3 0.39251178E-01 0.12580884E+03</pdfrwt>
<totfact> 0.16286688E+03</totfact>
</mgrwt>
</event>
<event>
 7    1  0.1254976E-005  0.1465546E+03  0.7546771E-02  0.1214793E+00
          1   -1    0    0  501    0  0.00000000000E+00  0.00000000000E+00  0.11455034940E+03  0.11455034940E+03  0.00000000000E+00 0. -1.
         -1   -1    0    0    0  501 -0.00000000000E+00 -0.00000000000E+00 -0.15502389068E+03  0.15502389068E+03  0.00000000000E+00 0.  1.
         23    2    1    2    0    0  0.76314660519E+02 -0.55839854286E+01 -0.33005212279E+02  0.12282951281E+03  0.90236560644E+02 0.  0.
          5    1    1    2  502    0 -0.74118275368E+02  0.35002108139E+02 -0.48979930718E+02  0.95602248565E+02  0.47000000000E+01 0.  1.
         -5    1    1    2    0  502 -0.21963851514E+01 -0.29418122711E+02  0.41511601717E+02  0.51142478711E+02  0.47000000000E+01 0.  1.
        -11    1    3    3    0    0 -0.14292334720E+02 -0.21792817049E+02 -0.43134542323E+01  0.26415972329E+02  0.00000000000E+00 0.  1.
         11    1    3    3    0    0  0.90606995239E+02  0.16208831620E+02 -0.28691758046E+02  0.96413540483E+02  0.00000000000E+00 0. -1.
<mgrwt>
<rscale>  0 0.13891744E+03</rscale>
<asrwt>0</asrwt>
<pdfrwt beam="1">  1        1 0.17623131E-01 0.14655456E+03</pdfrwt>
<pdfrwt beam="2">  1       -1 0.23849829E-01 0.14655456E+03</pdfrwt>
<totfact> 0.43662155E+03</totfact>
</mgrwt>
</event>
<event>
 7    1  0.1254976E-005  0.1487633E+03  0.7546771E-02  0.1210707E+00
          1   -1    0    0  501    0  0.00000000000E+00  0.00000000000E+00  0.42127423585E+02  0.42127423585E+02  0.00000000000E+00 0. -1.
         -1   -1    0    0    0  501 -0.00000000000E+00 -0.00000000000E+00 -0.55829115317E+03  0.55829115317E+03  0.00000000000E+00 0.  1.
         23    2    1    2    0    0 -0.36393394379E+02 -0.71959647903E+02 -0.10114407443E+03  0.15954235050E+03  0.93386121726E+02 0.  0.
          5    1    1    2  502    0  0.32299824120E+02  0.10695730911E+03 -0.33871208359E+03  0.35669470165E+03  0.47000000000E+01 0. -1.
         -5    1    1    2    0  502  0.40935702583E+01 -0.34997661208E+02 -0.76307571560E+02  0.84181524605E+02  0.47000000000E+01 0. -1.
        -11    1    3    3    0    0 -0.15491143531E+02 -0.11127225923E+02 -0.92729789056E+02  0.94671032861E+02  0.00000000000E+00 0.  1.
         11    1    3    3    0    0 -0.20902250848E+02 -0.60832421980E+02 -0.84142853768E+01  0.64871317644E+02  0.00000000000E+00 0. -1.
<mgrwt>
<rscale>  0 0.14196679E+03</rscale>
<asrwt>0</asrwt>
<pdfrwt beam="1">  1        1 0.64811424E-02 0.14876334E+03</pdfrwt>
<pdfrwt beam="2">  1       -1 0.85890942E-01 0.14876334E+03</pdfrwt>
<totfact> 0.15970718E+03</totfact>
</mgrwt>
</event>
<event>
 7    1  0.1254976E-005  0.1832864E+03  0.7546771E-02  0.1170073E+00
         -2   -1    0    0    0  501 -0.00000000000E+00  0.00000000000E+00  0.25624641593E+02  0.25624641593E+02  0.00000000000E+00 0.  1.
          2   -1    0    0  501    0  0.00000000000E+00 -0.00000000000E+00 -0.11621388783E+04  0.11621388783E+04  0.00000000000E+00 0. -1.
         23    2    1    2    0    0  0.49703599785E+02 -0.12449135494E+03 -0.53186117441E+03  0.55594137429E+03  0.90697064560E+02 0.  0.
          5    1    1    2  502    0 -0.21127093310E+02 -0.21679710437E+02 -0.15876874606E+03  0.16169715100E+03  0.47000000000E+01 0. -1.
         -5    1    1    2    0  502 -0.28576506475E+02  0.14617106538E+03 -0.44588431619E+03  0.47012499455E+03  0.47000000000E+01 0. -1.
        -11    1    3    3    0    0  0.11963342537E+00 -0.80396490270E+02 -0.17006752335E+03  0.18811319055E+03  0.00000000000E+00 0.  1.
         11    1    3    3    0    0  0.49583966359E+02 -0.44094864673E+02 -0.36179365106E+03  0.36782818374E+03  0.00000000000E+00 0. -1.
<mgrwt>
<rscale>  0 0.17767402E+03</rscale>
<asrwt>0</asrwt>
<pdfrwt beam="2">  1        2 0.17879061E+00 0.18328638E+03</pdfrwt>
<pdfrwt beam="1">  1       -2 0.39422522E-02 0.18328638E+03</pdfrwt>
<totfact> 0.58281083E+03</totfact>
</mgrwt>
</event>
<event>
 7    1  0.1254976E-005  0.1903766E+03  0.7546771E-02  0.1182568E+00
         -2   -1    0    0    0  501 -0.00000000000E+00  0.00000000000E+00  0.34696152625E+02  0.34696152625E+02  0.00000000000E+00 0.  1.
          2   -1    0    0  501    0  0.00000000000E+00 -0.00000000000E+00 -0.83523496406E+03  0.83523496406E+03  0.00000000000E+00 0. -1.
         23    2    1    2    0    0 -0.70481865190E+02 -0.17905366461E+02 -0.51747743154E+03  0.52880507418E+03  0.81016164219E+02 0.  0.
          5    1    1    2  502    0  0.74213375038E+02  0.76134702816E+02 -0.25478050886E+03  0.27611467854E+03  0.47000000000E+01 0. -1.
         -5    1    1    2    0  502 -0.37315098477E+01 -0.58229336356E+02 -0.28280871039E+02  0.65011363967E+02  0.47000000000E+01 0.  1.
        -11    1    3    3    0    0 -0.40492975744E+02 -0.49656054482E+02 -0.26958312185E+03  0.27709288049E+03  0.00000000000E+00 0.  1.
         11    1    3    3    0    0 -0.29988889447E+02  0.31750688021E+02 -0.24789430969E+03  0.25171219370E+03  0.00000000000E+00 0. -1.
<mgrwt>
<rscale>  0 0.16555171E+03</rscale>
<asrwt>0</asrwt>
<pdfrwt beam="2">  1        2 0.12849767E+00 0.19037655E+03</pdfrwt>
<pdfrwt beam="1">  1       -2 0.53378703E-02 0.19037655E+03</pdfrwt>
<totfact> 0.58488102E+03</totfact>
</mgrwt>
</event>
<event>
 7    1  0.1254976E-005  0.1719695E+03  0.7546771E-02  0.1198334E+00
          1   -1    0    0  501    0  0.00000000000E+00  0.00000000000E+00  0.31949884562E+03  0.31949884562E+03  0.00000000000E+00 0. -1.
         -1   -1    0    0    0  501 -0.00000000000E+00 -0.00000000000E+00 -0.71186489787E+02  0.71186489787E+02  0.00000000000E+00 0.  1.
         23    2    1    2    0    0 -0.32287192029E+02 -0.37589216105E+02  0.17505687694E+03  0.20376322306E+03  0.91755811646E+02 0.  0.
          5    1    1    2  502    0  0.18410320465E+02 -0.41605570105E+02  0.93316025917E+02  0.10392273118E+03  0.47000000000E+01 0. -1.
         -5    1    1    2    0  502  0.13876871564E+02  0.79194786210E+02 -0.20060547023E+02  0.82999381167E+02  0.47000000000E+01 0.  1.
        -11    1    3    3    0    0 -0.52145766204E+02 -0.12011740283E+02  0.45560545560E+02  0.70279628267E+02  0.00000000000E+00 0.  1.
         11    1    3    3    0    0  0.19858574175E+02 -0.25577475822E+02  0.12949633138E+03  0.13348359479E+03  0.00000000000E+00 0. -1.
<mgrwt>
<rscale>  0 0.15175393E+03</rscale>
<asrwt>0</asrwt>
<pdfrwt beam="1">  1        1 0.49153668E-01 0.17196951E+03</pdfrwt>
<pdfrwt beam="2">  1       -1 0.10951768E-01 0.17196951E+03</pdfrwt>
<totfact> 0.41681963E+03</totfact>
</mgrwt>
</event>
<event>
 7    1  0.1254976E-005  0.1448843E+03  0.7546771E-02  0.1216909E+00
         -1   -1    0    0    0  501 -0.00000000000E+00  0.00000000000E+00  0.47338889970E+02  0.47338889970E+02  0.00000000000E+00 0.  1.
          1   -1    0    0  501    0  0.00000000000E+00 -0.00000000000E+00 -0.38338574416E+03  0.38338574416E+03  0.00000000000E+00 0. -1.
         23    2    1    2    0    0  0.63568309601E+02  0.36406926062E+02 -0.20122912844E+03  0.23281741172E+03  0.91347637155E+02 0.  0.
          5    1    1    2  502    0  0.25262615277E+02  0.17283350265E+02 -0.45852570527E+01  0.31305407029E+02  0.47000000000E+01 0. -1.
         -5    1    1    2    0  502 -0.88830924878E+02 -0.53690276328E+02 -0.13023246870E+03  0.16660181538E+03  0.47000000000E+01 0. -1.
        -11    1    3    3    0    0  0.42177231178E+02  0.74344892750E+01 -0.18635698971E+02  0.46706313671E+02  0.00000000000E+00 0.  1.
         11    1    3    3    0    0  0.21391078423E+02  0.28972436788E+02 -0.18259342947E+03  0.18611109805E+03  0.00000000000E+00 0. -1.
<mgrwt>
<rscale>  0 0.13737215E+03</rscale>
<asrwt>0</asrwt>
<pdfrwt beam="2">  1        1 0.58982424E-01 0.14488426E+03</pdfrwt>
<pdfrwt beam="1">  1       -1 0.72829059E-02 0.14488426E+03</pdfrwt>
<totfact> 0.61179408E+03</totfact>
</mgrwt>
</event>
<event>
 7    1  0.1254976E-005  0.1587472E+03  0.7546771E-02  0.1197204E+00
          1   -1    0    0  501    0  0.00000000000E+00  0.00000000000E+00  0.97402148307E+03  0.97402148307E+03  0.00000000000E+00 0. -1.
         -1   -1    0    0    0  501 -0.00000000000E+00 -0.00000000000E+00 -0.24128017060E+02  0.24128017060E+02  0.00000000000E+00 0.  1.
         23    2    1    2    0    0 -0.46374081028E+02  0.86240504199E+02  0.57865358542E+03  0.59439249308E+03  0.94204479442E+02 0.  0.
          5    1    1    2  502    0 -0.36451954911E+02  0.25445515830E+01  0.74838055142E+02  0.83414892298E+02  0.47000000000E+01 0. -1.
         -5    1    1    2    0  502  0.82826035939E+02 -0.88785055782E+02  0.29640182544E+03  0.32034211476E+03  0.47000000000E+01 0. -1.
        -11    1    3    3    0    0 -0.44710760631E+02  0.10509227781E+03  0.53048286094E+03  0.54263754452E+03  0.00000000000E+00 0.  1.
         11    1    3    3    0    0 -0.16633203968E+01 -0.18851773608E+02  0.48170724481E+02  0.51754948555E+02  0.00000000000E+00 0. -1.
<mgrwt>
<rscale>  0 0.15269181E+03</rscale>
<asrwt>0</asrwt>
<pdfrwt beam="1">  1        1 0.14984943E+00 0.15874719E+03</pdfrwt>
<pdfrwt beam="2">  1       -1 0.37120034E-02 0.15874719E+03</pdfrwt>
<totfact> 0.45212167E+03</totfact>
</mgrwt>
</event>
<event>
 7    1  0.1254976E-005  0.2266531E+03  0.7546771E-02  0.1132263E+00
          1   -1    0    0  501    0  0.00000000000E+00  0.00000000000E+00  0.15690284878E+04  0.15690284878E+04  0.00000000000E+00 0. -1.
         -1   -1    0    0    0  501 -0.00000000000E+00 -0.00000000000E+00 -0.31127777044E+02  0.31127777044E+02  0.00000000000E+00 0.  1.
         23    2    1    2    0    0  0.17428354130E+03  0.73244532726E+02  0.60752769902E+03  0.64257307849E+03  0.89837307257E+02 0.  0.
          5    1    1    2  502    0 -0.10472065934E+03 -0.92602421935E+02  0.43448591605E+03  0.45644465852E+03  0.47000000000E+01 0. -1.
         -5    1    1    2    0  502 -0.69562881961E+02  0.19357889209E+02  0.49588709567E+03  0.50113852783E+03  0.47000000000E+01 0. -1.
        -11    1    3    3    0    0  0.15751789694E+03  0.33428064615E+02  0.52876096456E+03  0.55273635759E+03  0.00000000000E+00 0.  1.
         11    1    3    3    0    0  0.16765644363E+02  0.39816468111E+02  0.78766734462E+02  0.89836720897E+02  0.00000000000E+00 0. -1.
<mgrwt>
<rscale>  0 0.22218677E+03</rscale>
<asrwt>0</asrwt>
<pdfrwt beam="1">  1        1 0.24138894E+00 0.22665308E+03</pdfrwt>
<pdfrwt beam="2">  1       -1 0.47888900E-02 0.22665308E+03</pdfrwt>
<totfact> 0.12129761E+03</totfact>
</mgrwt>
</event>
<event>
 7    1  0.1254976E-005  0.3547556E+03  0.7546771E-02  0.1061743E+00
         -2   -1    0    0    0  501 -0.00000000000E+00  0.00000000000E+00  0.55466652406E+03  0.55466652406E+03  0.00000000000E+00 0.  1.
          2   -1    0    0  501    0  0.00000000000E+00 -0.00000000000E+00 -0.22837627723E+03  0.22837627723E+03  0.00000000000E+00 0. -1.
         23    2    1    2    0    0 -0.10001439624E+03  0.31658048988E+03  0.87229350280E+02  0.35525591616E+03  0.91497105921E+02 0.  0.
          5    1    1    2  502    0  0.31996244731E+01 -0.75632765522E+02  0.15745550535E+01  0.75862520660E+02  0.47000000000E+01 0. -1.
         -5    1    1    2    0  502  0.96814771768E+02 -0.24094772435E+03  0.23748634150E+03  0.35192436447E+03  0.47000000000E+01 0. -1.
        -11    1    3    3    0    0 -0.10197623168E+02  0.18098806192E+03  0.55169410823E+02  0.18948438977E+03  0.00000000000E+00 0.  1.
         11    1    3    3    0    0 -0.89816773073E+02  0.13559242795E+03  0.32059939457E+02  0.16577152639E+03  0.00000000000E+00 0. -1.
<mgrwt>
<rscale>  0 0.35213281E+03</rscale>
<asrwt>0</asrwt>
<pdfrwt beam="2">  1        2 0.35134812E-01 0.35475556E+03</pdfrwt>
<pdfrwt beam="1">  1       -2 0.85333311E-01 0.35475556E+03</pdfrwt>
<totfact> 0.18203542E+02</totfact>
</mgrwt>
</event>
<event>
 7    1  0.1254976E-005  0.1359787E+03  0.7546771E-02  0.1230813E+00
          1   -1    0    0  501    0  0.00000000000E+00  0.00000000000E+00  0.20635943547E+02  0.20635943547E+02  0.00000000000E+00 0.  1.
         -1   -1    0    0    0  501 -0.00000000000E+00 -0.00000000000E+00 -0.76541340811E+03  0.76541340811E+03  0.00000000000E+00 0. -1.
         23    2    1    2    0    0 -0.24535233322E+02  0.47579994947E+02 -0.22387767603E+03  0.24769371157E+03  0.91461070043E+02 0.  0.
          5    1    1    2  502    0  0.63137478480E+02 -0.24417028391E+02 -0.14915369156E+03  0.16386410886E+03  0.47000000000E+01 0. -1.
         -5    1    1    2    0  502 -0.38602245158E+02 -0.23162966557E+02 -0.37174609697E+03  0.37449153123E+03  0.47000000000E+01 0. -1.
        -11    1    3    3    0    0 -0.27245278398E+02  0.25468547499E+01 -0.10038401232E+02  0.29147232517E+02  0.00000000000E+00 0.  1.
         11    1    3    3    0    0  0.27100450766E+01  0.45033140198E+02 -0.21383927480E+03  0.21854647905E+03  0.00000000000E+00 0. -1.
<mgrwt>
<rscale>  0 0.12776305E+03</rscale>
<asrwt>0</asrwt>
<pdfrwt beam="1">  1        1 0.31747606E-02 0.13597870E+03</pdfrwt>
<pdfrwt beam="2">  1       -1 0.11775591E+00 0.13597870E+03</pdfrwt>
<totfact> 0.21103525E+03</totfact>
</mgrwt>
</event>
<event>
 7    1  0.1254976E-005  0.1751645E+03  0.7546771E-02  0.1177755E+00
         -1   -1    0    0    0  501 -0.00000000000E+00  0.00000000000E+00  0.28924523757E+02  0.28924523757E+02  0.00000000000E+00 0.  1.
          1   -1    0    0  501    0  0.00000000000E+00 -0.00000000000E+00 -0.96973252286E+03  0.96973252286E+03  0.00000000000E+00 0. -1.
         23    2    1    2    0    0 -0.31014740314E+02  0.11872353607E+03 -0.52085823798E+03  0.54364012437E+03  0.95885810276E+02 0.  0.
          5    1    1    2  502    0  0.32958822345E+02  0.42433646240E+01 -0.20157010626E+03  0.20434502160E+03  0.47000000000E+01 0.  1.
         -5    1    1    2    0  502 -0.19440820306E+01 -0.12296690069E+03 -0.21837965486E+03  0.25067190065E+03  0.47000000000E+01 0.  1.
        -11    1    3    3    0    0 -0.45298219075E+02  0.56576414869E+02 -0.40461756462E+03  0.41105740836E+03  0.00000000000E+00 0.  1.
         11    1    3    3    0    0  0.14283478760E+02  0.62147121200E+02 -0.11624067336E+03  0.13258271600E+03  0.00000000000E+00 0. -1.
<mgrwt>
<rscale>  0 0.17008906E+03</rscale>
<asrwt>0</asrwt>
<pdfrwt beam="2">  1        1 0.14918962E+00 0.17516449E+03</pdfrwt>
<pdfrwt beam="1">  1       -1 0.44499268E-02 0.17516449E+03</pdfrwt>
<totfact> 0.34952070E+03</totfact>
</mgrwt>
</event>
<event>
 7    1  0.1254976E-005  0.1324890E+03  0.7546771E-02  0.1237166E+00
          1   -1    0    0  501    0  0.00000000000E+00  0.00000000000E+00  0.10898195667E+03  0.10898195667E+03  0.00000000000E+00 0. -1.
         -1   -1    0    0    0  501 -0.00000000000E+00 -0.00000000000E+00 -0.12559915341E+03  0.12559915341E+03  0.00000000000E+00 0.  1.
         23    2    1    2    0    0 -0.41689294122E+02  0.13823179703E+02  0.31638532972E+01  0.10062352496E+03  0.90476550919E+02 0.  0.
          5    1    1    2  502    0 -0.36516569361E+02  0.77222166387E-01  0.23202863458E+02  0.43519290824E+02  0.47000000000E+01 0. -1.
         -5    1    1    2    0  502  0.78205863483E+02 -0.13900401870E+02 -0.42983913503E+02  0.90438294297E+02  0.47000000000E+01 0. -1.
        -11    1    3    3    0    0 -0.40723818842E+02 -0.14742687515E+02 -0.33056492224E+02  0.54484015403E+02  0.00000000000E+00 0.  1.
         11    1    3    3    0    0 -0.96547527986E+00  0.28565867218E+02  0.36220345522E+02  0.46139509557E+02  0.00000000000E+00 0. -1.
<mgrwt>
<rscale>  0 0.12366766E+03</rscale>
<asrwt>0</asrwt>
<pdfrwt beam="1">  1        1 0.16766455E-01 0.13248904E+03</pdfrwt>
<pdfrwt beam="2">  1       -1 0.19322947E-01 0.13248904E+03</pdfrwt>
<totfact> 0.65016763E+03</totfact>
</mgrwt>
</event>
<event>
 7    1  0.1254976E-005  0.1401949E+03  0.7546771E-02  0.1223672E+00
         -1   -1    0    0    0  501 -0.00000000000E+00  0.00000000000E+00  0.80409142753E+03  0.80409142753E+03  0.00000000000E+00 0.  1.
          1   -1    0    0  501    0  0.00000000000E+00 -0.00000000000E+00 -0.24111666071E+02  0.24111666071E+02  0.00000000000E+00 0. -1.
         23    2    1    2    0    0  0.14350180014E+02  0.61839031191E+02  0.18010177901E+03  0.21216072053E+03  0.92442020141E+02 0.  0.
          5    1    1    2  502    0  0.30900665214E+02 -0.22102649127E+01  0.41982424143E+03  0.42099194776E+03  0.47000000000E+01 0.  1.
         -5    1    1    2    0  502 -0.45250845228E+02 -0.59628766278E+02  0.18005374101E+03  0.19505042531E+03  0.47000000000E+01 0.  1.
        -11    1    3    3    0    0  0.13242208396E+02 -0.21444340189E+02  0.21971357319E+02  0.33435854286E+02  0.00000000000E+00 0. -1.
         11    1    3    3    0    0  0.11079716178E+01  0.83283371380E+02  0.15813042170E+03  0.17872486625E+03  0.00000000000E+00 0.  1.
<mgrwt>
<rscale>  0 0.13258363E+03</rscale>
<asrwt>0</asrwt>
<pdfrwt beam="2">  1        1 0.37094877E-02 0.14019491E+03</pdfrwt>
<pdfrwt beam="1">  1       -1 0.12370635E+00 0.14019491E+03</pdfrwt>
<totfact> 0.15171055E+03</totfact>
</mgrwt>
</event>
<event>
 7    1  0.1254976E-005  0.1400548E+03  0.7546771E-02  0.1224475E+00
          1   -1    0    0  501    0  0.00000000000E+00  0.00000000000E+00  0.62165170654E+03  0.62165170654E+03  0.00000000000E+00 0. -1.
         -1   -1    0    0    0  501 -0.00000000000E+00 -0.00000000000E+00 -0.25268618127E+02  0.25268618127E+02  0.00000000000E+00 0.  1.
         23    2    1    2    0    0 -0.27106098578E+02 -0.57066372388E+02  0.26400838617E+03  0.28624277202E+03  0.90791988222E+02 0.  0.
          5    1    1    2  502    0 -0.34992555967E+02 -0.14938289490E+00  0.28860913520E+02  0.45602013305E+02  0.47000000000E+01 0.  1.
         -5    1    1    2    0  502  0.62098654544E+02  0.57215755283E+02  0.30351378872E+03  0.31507553934E+03  0.47000000000E+01 0.  1.
        -11    1    3    3    0    0 -0.15370369284E+02  0.89028694601E+01  0.46392413350E+01  0.18358428493E+02  0.00000000000E+00 0.  1.
         11    1    3    3    0    0 -0.11735729293E+02 -0.65969241848E+02  0.25936914484E+03  0.26788434352E+03  0.00000000000E+00 0. -1.
<mgrwt>
<rscale>  0 0.13202976E+03</rscale>
<asrwt>0</asrwt>
<pdfrwt beam="1">  1        1 0.95638712E-01 0.14005483E+03</pdfrwt>
<pdfrwt beam="2">  1       -1 0.38874802E-02 0.14005483E+03</pdfrwt>
<totfact> 0.82503831E+03</totfact>
</mgrwt>
</event>
<event>
 7    1  0.1254976E-005  0.1208641E+03  0.7546771E-02  0.1246339E+00
          2   -1    0    0  501    0  0.00000000000E+00  0.00000000000E+00  0.10345754324E+03  0.10345754324E+03  0.00000000000E+00 0. -1.
         -2   -1    0    0    0  501 -0.00000000000E+00 -0.00000000000E+00 -0.71478183008E+03  0.71478183008E+03  0.00000000000E+00 0.  1.
         23    2    1    2    0    0 -0.31107933999E+02  0.13889306183E+02  0.67278120077E+02  0.12895759696E+03  0.10460927296E+03 0.  0.
          5    1    1    2  502    0 -0.16264378475E+02  0.34813041864E+02 -0.10995069719E+03  0.11656639183E+03  0.47000000000E+01 0. -1.
         -5    1    1    2    0  502  0.47372312474E+02 -0.48702348048E+02 -0.56865170973E+03  0.57271538452E+03  0.47000000000E+01 0.  1.
        -11    1    3    3    0    0 -0.35719100314E+02 -0.15539109485E+02 -0.14778226254E+02  0.41661901326E+02  0.00000000000E+00 0.  1.
         11    1    3    3    0    0  0.46111663157E+01  0.29428415668E+02  0.82056346331E+02  0.87295695637E+02  0.00000000000E+00 0. -1.
<mgrwt>
<rscale>  0 0.11805597E+03</rscale>
<asrwt>0</asrwt>
<pdfrwt beam="1">  1        2 0.15916544E-01 0.12086414E+03</pdfrwt>
<pdfrwt beam="2">  1       -2 0.10996644E+00 0.12086414E+03</pdfrwt>
<totfact> 0.24860645E+02</totfact>
</mgrwt>
</event>
<event>
 7    1  0.1254976E-005  0.1504623E+03  0.7546771E-02  0.1208618E+00
         -2   -1    0    0    0  501 -0.00000000000E+00  0.00000000000E+00  0.48089271778E+02  0.48089271778E+02  0.00000000000E+00 0.  1.
          2   -1    0    0  501    0  0.00000000000E+00 -0.00000000000E+00 -0.43614606801E+03  0.43614606801E+03  0.00000000000E+00 0. -1.
         23    2    1    2    0    0 -0.24405135857E+02 -0.80111203922E+02 -0.25295349500E+03  0.28201809114E+03  0.92386781758E+02 0.  0.
          5    1    1    2  502    0  0.74157589757E+02  0.63246048088E+02 -0.83483133121E+02  0.12841703249E+03  0.47000000000E+01 0. -1.
         -5    1    1    2    0  502 -0.49752453900E+02  0.16865155834E+02 -0.51620168108E+02  0.73800216164E+02  0.47000000000E+01 0. -1.
        -11    1    3    3    0    0  0.15077249347E+02 -0.34522622776E+02 -0.19420331147E+03  0.19782330782E+03  0.00000000000E+00 0. -1.
         11    1    3    3    0    0 -0.39482385204E+02 -0.45588581146E+02 -0.58750183534E+02  0.84194783316E+02  0.00000000000E+00 0.  1.
<mgrwt>
<rscale>  0 0.14355976E+03</rscale>
<asrwt>0</asrwt>
<pdfrwt beam="2">  1        2 0.67099396E-01 0.15046233E+03</pdfrwt>
<pdfrwt beam="1">  1       -2 0.73983494E-02 0.15046233E+03</pdfrwt>
<totfact> 0.74574151E+03</totfact>
</mgrwt>
</event>
<event>
 7    1  0.1254976E-005  0.1344891E+03  0.7546771E-02  0.1232744E+00
          2   -1    0    0  501    0  0.00000000000E+00  0.00000000000E+00  0.18546698279E+03  0.18546698279E+03  0.00000000000E+00 0. -1.
         -2   -1    0    0    0  501 -0.00000000000E+00 -0.00000000000E+00 -0.77671614404E+02  0.77671614404E+02  0.00000000000E+00 0.  1.
         23    2    1    2    0    0 -0.30491559711E+02 -0.39137863517E+02  0.53750289839E+02  0.11819661781E+03  0.92843089293E+02 0.  0.
          5    1    1    2  502    0 -0.97020812034E+01  0.26284615613E+02 -0.35720796627E+02  0.45640735196E+02  0.47000000000E+01 0. -1.
         -5    1    1    2    0  502  0.40193640914E+02  0.12853247905E+02  0.89765875176E+02  0.99301244191E+02  0.47000000000E+01 0. -1.
        -11    1    3    3    0    0 -0.78279758889E+01  0.30291453954E+02  0.23572177323E+02  0.39172655423E+02  0.00000000000E+00 0.  1.
         11    1    3    3    0    0 -0.22663583822E+02 -0.69429317471E+02  0.30178112516E+02  0.79023962386E+02  0.00000000000E+00 0. -1.
<mgrwt>
<rscale>  0 0.12649964E+03</rscale>
<asrwt>0</asrwt>
<pdfrwt beam="1">  1        2 0.28533382E-01 0.13448906E+03</pdfrwt>
<pdfrwt beam="2">  1       -2 0.11949479E-01 0.13448906E+03</pdfrwt>
<totfact> 0.87178724E+03</totfact>
</mgrwt>
</event>
<event>
 7    1  0.1254976E-005  0.1363976E+03  0.7546771E-02  0.1234024E+00
         -2   -1    0    0    0  501 -0.00000000000E+00  0.00000000000E+00  0.32876790222E+02  0.32876790222E+02  0.00000000000E+00 0.  1.
          2   -1    0    0  501    0  0.00000000000E+00 -0.00000000000E+00 -0.51755352684E+03  0.51755352684E+03  0.00000000000E+00 0. -1.
         23    2    1    2    0    0 -0.39913046795E+02 -0.37217108490E+02 -0.32940625651E+03  0.34375852603E+03  0.81751317534E+02 0.  0.
          5    1    1    2  502    0 -0.29894743311E+01  0.96103257028E+01 -0.15504057400E+03  0.15543797767E+03  0.47000000000E+01 0. -1.
         -5    1    1    2    0  502  0.42902521126E+02  0.27606782787E+02 -0.22990610760E+00  0.51233813363E+02  0.47000000000E+01 0. -1.
        -11    1    3    3    0    0  0.41816427897E+01  0.16976997977E+02 -0.20013502529E+02  0.26575268206E+02  0.00000000000E+00 0.  1.
         11    1    3    3    0    0 -0.44094689585E+02 -0.54194106467E+02 -0.30939275398E+03  0.31718325782E+03  0.00000000000E+00 0. -1.
<mgrwt>
<rscale>  0 0.12567107E+03</rscale>
<asrwt>0</asrwt>
<pdfrwt beam="2">  1        2 0.79623625E-01 0.13639761E+03</pdfrwt>
<pdfrwt beam="1">  1       -2 0.50579674E-02 0.13639761E+03</pdfrwt>
<totfact> 0.10957897E+04</totfact>
</mgrwt>
</event>
<event>
 7    1  0.1254976E-005  0.1572146E+03  0.7546771E-02  0.1199755E+00
         -2   -1    0    0    0  501 -0.00000000000E+00  0.00000000000E+00  0.20197644500E+03  0.20197644500E+03  0.00000000000E+00 0.  1.
          2   -1    0    0  501    0  0.00000000000E+00 -0.00000000000E+00 -0.14201691408E+03  0.14201691408E+03  0.00000000000E+00 0. -1.
         23    2    1    2    0    0  0.75688701283E+02 -0.57982362490E+02 -0.60919618049E+02  0.14567998430E+03  0.91764503485E+02 0.  0.
          5    1    1    2  502    0 -0.45490446945E+02 -0.30222455605E+02  0.14335722157E+02  0.56660219871E+02  0.47000000000E+01 0.  1.
         -5    1    1    2    0  502 -0.30198254339E+02  0.88204818095E+02  0.10654342681E+03  0.14165315491E+03  0.47000000000E+01 0.  1.
        -11    1    3    3    0    0  0.31884434076E+01 -0.42406800953E+02  0.93251360380E+01  0.43536893557E+02  0.00000000000E+00 0.  1.
         11    1    3    3    0    0  0.72500257876E+02 -0.15575561536E+02 -0.70244754087E+02  0.10214309074E+03  0.00000000000E+00 0. -1.
<mgrwt>
<rscale>  0 0.15058611E+03</rscale>
<asrwt>0</asrwt>
<pdfrwt beam="2">  1        2 0.21848756E-01 0.15721459E+03</pdfrwt>
<pdfrwt beam="1">  1       -2 0.31073299E-01 0.15721459E+03</pdfrwt>
<totfact> 0.23448114E+03</totfact>
</mgrwt>
</event>
<event>
 7    1  0.1254976E-005  0.6819544E+03  0.7546771E-02  0.1036988E+00
          2   -1    0    0  501    0  0.00000000000E+00  0.00000000000E+00  0.60625386632E+03  0.60625386632E+03  0.00000000000E+00 0. -1.
         -2   -1    0    0    0  501 -0.00000000000E+00 -0.00000000000E+00 -0.26054331417E+03  0.26054331417E+03  0.00000000000E+00 0.  1.
         23    2    1    2    0    0  0.26765682654E+02  0.25381578132E+02  0.10436163355E+03  0.14339469362E+03  0.91159537762E+02 0.  0.
          5    1    1    2  502    0  0.27549800411E+02  0.55292954801E+02  0.47042746157E+03  0.47448960890E+03  0.47000000000E+01 0. -1.
         -5    1    1    2    0  502 -0.54315483065E+02 -0.80674532933E+02 -0.22907854298E+03  0.24891287797E+03  0.47000000000E+01 0.  1.
        -11    1    3    3    0    0 -0.18515376247E+01  0.46897074981E+02  0.18645532120E+02  0.50501680184E+02  0.00000000000E+00 0.  1.
         11    1    3    3    0    0  0.28617220279E+02 -0.21515496849E+02  0.85716101429E+02  0.92893013436E+02  0.00000000000E+00 0. -1.
<mgrwt>
<rscale>  0 0.42024126E+03</rscale>
<asrwt>0</asrwt>
<pdfrwt beam="1">  1        2 0.93269825E-01 0.68195444E+03</pdfrwt>
<pdfrwt beam="2">  1       -2 0.40083587E-01 0.68195444E+03</pdfrwt>
<totfact> 0.29145487E+02</totfact>
</mgrwt>
</event>
<event>
 7    1  0.1254976E-005  0.1746138E+03  0.7546771E-02  0.1179063E+00
          1   -1    0    0  501    0  0.00000000000E+00  0.00000000000E+00  0.44545348768E+03  0.44545348768E+03  0.00000000000E+00 0. -1.
         -1   -1    0    0    0  501 -0.00000000000E+00 -0.00000000000E+00 -0.61126433523E+02  0.61126433523E+02  0.00000000000E+00 0.  1.
         23    2    1    2    0    0  0.11970668622E+03  0.23153532046E+02  0.21216002273E+03  0.26136275604E+03  0.91830486364E+02 0.  0.
          5    1    1    2  502    0 -0.10238045293E+03 -0.69583867265E+02  0.13401258121E+03  0.18249694147E+03  0.47000000000E+01 0.  1.
         -5    1    1    2    0  502 -0.17326233285E+02  0.46430335219E+02  0.38154450214E+02  0.62720223688E+02  0.47000000000E+01 0.  1.
        -11    1    3    3    0    0  0.72334963773E+02  0.40024262284E+01  0.42095043936E+02  0.83787583350E+02  0.00000000000E+00 0.  1.
         11    1    3    3    0    0  0.47371722445E+02  0.19151105818E+02  0.17006497880E+03  0.17757517269E+03  0.00000000000E+00 0. -1.
<mgrwt>
<rscale>  0 0.16883992E+03</rscale>
<asrwt>0</asrwt>
<pdfrwt beam="1">  1        1 0.68531304E-01 0.17461378E+03</pdfrwt>
<pdfrwt beam="2">  1       -1 0.94040670E-02 0.17461378E+03</pdfrwt>
<totfact> 0.34609396E+03</totfact>
</mgrwt>
</event>
<event>
 7    1  0.1254976E-005  0.1681933E+03  0.7546771E-02  0.1184670E+00
         -1   -1    0    0    0  501 -0.00000000000E+00  0.00000000000E+00  0.41622553613E+03  0.41622553613E+03  0.00000000000E+00 0.  1.
          1   -1    0    0  501    0  0.00000000000E+00 -0.00000000000E+00 -0.12289713048E+03  0.12289713048E+03  0.00000000000E+00 0. -1.
         23    2    1    2    0    0 -0.72789074036E+02  0.95528823478E+02 -0.48424153910E+02  0.15822399873E+03  0.90917158321E+02 0.  0.
          5    1    1    2  502    0  0.41655006247E+02  0.13178795783E+02  0.43227998015E+02  0.61640652301E+02  0.47000000000E+01 0. -1.
         -5    1    1    2    0  502  0.31134067788E+02 -0.10870761926E+03  0.29852456155E+03  0.31925801558E+03  0.47000000000E+01 0.  1.
        -11    1    3    3    0    0 -0.68455751042E+01  0.26823630138E+02  0.25523302355E+02  0.37653791249E+02  0.00000000000E+00 0.  1.
         11    1    3    3    0    0 -0.65943498932E+02  0.68705193340E+02 -0.73947456265E+02  0.12057020748E+03  0.00000000000E+00 0. -1.
<mgrwt>
<rscale>  0 0.16361973E+03</rscale>
<asrwt>0</asrwt>
<pdfrwt beam="2">  1        1 0.18907251E-01 0.16819329E+03</pdfrwt>
<pdfrwt beam="1">  1       -1 0.64034697E-01 0.16819329E+03</pdfrwt>
<totfact> 0.70189030E+02</totfact>
</mgrwt>
</event>
<event>
 7    1  0.1254976E-005  0.1770427E+03  0.7546771E-02  0.1176444E+00
          1   -1    0    0  501    0  0.00000000000E+00  0.00000000000E+00  0.35655560082E+02  0.35655560082E+02  0.00000000000E+00 0. -1.
         -1   -1    0    0    0  501 -0.00000000000E+00 -0.00000000000E+00 -0.78514984681E+03  0.78514984681E+03  0.00000000000E+00 0.  1.
         23    2    1    2    0    0  0.45397028855E+02 -0.11686982348E+03 -0.30340331205E+03  0.34086659285E+03  0.91744310382E+02 0.  0.
          5    1    1    2  502    0 -0.63051565302E+02  0.11175617507E+03 -0.23327200204E+03  0.26627590858E+03  0.47000000000E+01 0. -1.
         -5    1    1    2    0  502  0.17654536447E+02  0.51136484154E+01 -0.21281897264E+03  0.21366290547E+03  0.47000000000E+01 0. -1.
        -11    1    3    3    0    0 -0.31537223575E+01 -0.45237999847E+02 -0.20442406167E+03  0.20939345641E+03  0.00000000000E+00 0.  1.
         11    1    3    3    0    0  0.48550751213E+02 -0.71631823637E+02 -0.98979250376E+02  0.13147313644E+03  0.00000000000E+00 0. -1.
<mgrwt>
<rscale>  0 0.17135338E+03</rscale>
<asrwt>0</asrwt>
<pdfrwt beam="1">  1        1 0.54854714E-02 0.17704267E+03</pdfrwt>
<pdfrwt beam="2">  1       -1 0.12079227E+00 0.17704267E+03</pdfrwt>
<totfact> 0.94399604E+02</totfact>
</mgrwt>
</event>
<event>
 7    1  0.1254976E-005  0.1919578E+03  0.7546771E-02  0.1161667E+00
          1   -1    0    0  501    0  0.00000000000E+00  0.00000000000E+00  0.50265653634E+03  0.50265653634E+03  0.00000000000E+00 0. -1.
         -1   -1    0    0    0  501 -0.00000000000E+00 -0.00000000000E+00 -0.13082214211E+03  0.13082214211E+03  0.00000000000E+00 0.  1.
         23    2    1    2    0    0  0.13476155287E+03  0.52636939850E+02  0.40413396656E+03  0.43882242968E+03  0.91156668954E+02 0.  0.
          5    1    1    2  502    0  0.14845654007E+02  0.45226231168E+01  0.20334980880E+02  0.26008633377E+02  0.47000000000E+01 0. -1.
         -5    1    1    2    0  502 -0.14960720687E+03 -0.57159562967E+02 -0.52634553216E+02  0.16864761540E+03  0.47000000000E+01 0.  1.
        -11    1    3    3    0    0 -0.22145159818E+01  0.29497268457E+02  0.10351250507E+03  0.10765608034E+03  0.00000000000E+00 0.  1.
         11    1    3    3    0    0  0.13697606885E+03  0.23139671393E+02  0.30062146149E+03  0.33116634934E+03  0.00000000000E+00 0. -1.
<mgrwt>
<rscale>  0 0.18648894E+03</rscale>
<asrwt>0</asrwt>
<pdfrwt beam="1">  1        1 0.77331774E-01 0.19195779E+03</pdfrwt>
<pdfrwt beam="2">  1       -1 0.20126484E-01 0.19195779E+03</pdfrwt>
<totfact> 0.89639088E+02</totfact>
</mgrwt>
</event>
<event>
 7    1  0.1254976E-005  0.1369912E+03  0.7546771E-02  0.1229907E+00
          3   -1    0    0  501    0  0.00000000000E+00  0.00000000000E+00  0.21310661100E+03  0.21310661100E+03  0.00000000000E+00 0. -1.
         -3   -1    0    0    0  501 -0.00000000000E+00 -0.00000000000E+00 -0.70948374488E+02  0.70948374488E+02  0.00000000000E+00 0.  1.
         23    2    1    2    0    0 -0.48263845347E+02  0.28500929650E+02  0.85238430943E+02  0.13570922471E+03  0.89496937399E+02 0.  0.
          5    1    1    2  502    0  0.10687899347E+02 -0.57217532382E+02  0.77095032510E+02  0.96715103485E+02  0.47000000000E+01 0.  1.
         -5    1    1    2    0  502  0.37575946000E+02  0.28716602732E+02 -0.20175226940E+02  0.51630657292E+02  0.47000000000E+01 0.  1.
        -11    1    3    3    0    0 -0.50028853511E+02 -0.17340049424E+02  0.69153017381E+02  0.87095943135E+02  0.00000000000E+00 0. -1.
         11    1    3    3    0    0  0.17650081638E+01  0.45840979074E+02  0.16085413562E+02  0.48613281578E+02  0.00000000000E+00 0.  1.
<mgrwt>
<rscale>  0 0.12836180E+03</rscale>
<asrwt>0</asrwt>
<pdfrwt beam="1">  1        3 0.32785632E-01 0.13699124E+03</pdfrwt>
<pdfrwt beam="2">  1       -3 0.10915135E-01 0.13699124E+03</pdfrwt>
<totfact> 0.13346818E+03</totfact>
</mgrwt>
</event>
<event>
 7    1  0.1254976E-005  0.2165284E+03  0.7546771E-02  0.1136498E+00
         -2   -1    0    0    0  501 -0.00000000000E+00  0.00000000000E+00  0.22000490288E+02  0.22000490288E+02  0.00000000000E+00 0.  1.
          2   -1    0    0  501    0  0.00000000000E+00 -0.00000000000E+00 -0.53276697471E+03  0.53276697471E+03  0.00000000000E+00 0. -1.
         23    2    1    2    0    0  0.49744448705E+01 -0.13480563290E+01 -0.19795059082E+03  0.21786483694E+03  0.90852013804E+02 0.  0.
          5    1    1    2  502    0  0.14025669465E+02 -0.34993148665E+02 -0.23532005151E+02  0.44688758361E+02  0.47000000000E+01 0. -1.
         -5    1    1    2    0  502 -0.19000114336E+02  0.36341204994E+02 -0.28928388845E+03  0.29221386969E+03  0.47000000000E+01 0. -1.
        -11    1    3    3    0    0 -0.40239296834E+02 -0.16243125778E+02 -0.94322052366E+02  0.10382528453E+03  0.00000000000E+00 0. -1.
         11    1    3    3    0    0  0.45213741704E+02  0.14895069449E+02 -0.10362853845E+03  0.11403955241E+03  0.00000000000E+00 0.  1.
<mgrwt>
<rscale>  0 0.21652838E+03</rscale>
<asrwt>0</asrwt>
<pdfrwt beam="2">  1        2 0.81964138E-01 0.21652838E+03</pdfrwt>
<pdfrwt beam="1">  1       -2 0.33846913E-02 0.21652838E+03</pdfrwt>
<totfact> 0.20011729E+04</totfact>
</mgrwt>
</event>
<event>
 7    1  0.1254976E-005  0.2709703E+03  0.7546771E-02  0.1102746E+00
         -4   -1    0    0    0  501 -0.00000000000E+00  0.00000000000E+00  0.21953845807E+03  0.21953845807E+03  0.00000000000E+00 0.  1.
          4   -1    0    0  501    0  0.00000000000E+00 -0.00000000000E+00 -0.36340434726E+03  0.36340434726E+03  0.00000000000E+00 0. -1.
         23    2    1    2    0    0  0.61250661867E+02 -0.23248376026E+03 -0.17369104231E+03  0.31033604444E+03  0.91321081556E+02 0.  0.
          5    1    1    2  502    0 -0.27869960685E+02  0.11171678099E+03  0.77052471732E+02  0.13862376154E+03  0.47000000000E+01 0.  1.
         -5    1    1    2    0  502 -0.33380701182E+02  0.12076697927E+03 -0.47227318608E+02  0.13398299935E+03  0.47000000000E+01 0.  1.
        -11    1    3    3    0    0  0.40755116969E+02 -0.75517304585E+02 -0.16762881870E+02  0.87434758875E+02  0.00000000000E+00 0.  1.
         11    1    3    3    0    0  0.20495544898E+02 -0.15696645567E+03 -0.15692816044E+03  0.22290128556E+03  0.00000000000E+00 0. -1.
<mgrwt>
<rscale>  0 0.26745406E+03</rscale>
<asrwt>0</asrwt>
<pdfrwt beam="2">  1        4 0.55908360E-01 0.27097031E+03</pdfrwt>
<pdfrwt beam="1">  1       -4 0.33775148E-01 0.27097031E+03</pdfrwt>
<totfact> 0.47897465E+01</totfact>
</mgrwt>
</event>
<event>
 7    1  0.1254976E-005  0.1692473E+03  0.7546771E-02  0.1184864E+00
          2   -1    0    0  501    0  0.00000000000E+00  0.00000000000E+00  0.11566577300E+03  0.11566577300E+03  0.00000000000E+00 0. -1.
         -2   -1    0    0    0  501 -0.00000000000E+00 -0.00000000000E+00 -0.24282550104E+03  0.24282550104E+03  0.00000000000E+00 0.  1.
         23    2    1    2    0    0  0.41103764642E+02 -0.10644088107E+03 -0.66686697816E+00  0.14719744252E+03  0.92991729434E+02 0.  0.
          5    1    1    2  502    0 -0.76919992638E+02  0.10842055264E+03 -0.97281183623E+02  0.16479508545E+03  0.47000000000E+01 0.  1.
         -5    1    1    2    0  502  0.35816227995E+02 -0.19796715657E+01 -0.29211677435E+02  0.46498746068E+02  0.47000000000E+01 0.  1.
        -11    1    3    3    0    0  0.27428022643E+02 -0.75256988277E+02  0.43719852625E+02  0.91254239486E+02  0.00000000000E+00 0. -1.
         11    1    3    3    0    0  0.13675742000E+02 -0.31183892795E+02 -0.44386719603E+02  0.55943203039E+02  0.00000000000E+00 0.  1.
<mgrwt>
<rscale>  0 0.16344258E+03</rscale>
<asrwt>0</asrwt>
<pdfrwt beam="1">  1        2 0.17794734E-01 0.16924727E+03</pdfrwt>
<pdfrwt beam="2">  1       -2 0.37357769E-01 0.16924727E+03</pdfrwt>
<totfact> 0.21154016E+03</totfact>
</mgrwt>
</event>
<event>
 7    1  0.1254976E-005  0.1789667E+03  0.7546771E-02  0.1174596E+00
          2   -1    0    0  501    0  0.00000000000E+00  0.00000000000E+00  0.52624960175E+02  0.52624960175E+02  0.00000000000E+00 0. -1.
         -2   -1    0    0    0  501 -0.00000000000E+00 -0.00000000000E+00 -0.60562769014E+03  0.60562769014E+03  0.00000000000E+00 0.  1.
         23    2    1    2    0    0 -0.12202657684E+03 -0.38908412012E+02 -0.14873832133E+03  0.21614543470E+03  0.90506412630E+02 0.  0.
          5    1    1    2  502    0 -0.18561272952E+02  0.31647899713E+02 -0.65417477726E+02  0.75150827020E+02  0.47000000000E+01 0.  1.
         -5    1    1    2    0  502  0.14058784979E+03  0.72605122990E+01 -0.33884693091E+03  0.36695638860E+03  0.47000000000E+01 0.  1.
        -11    1    3    3    0    0 -0.16991999463E+02 -0.22229784379E+02  0.57743693998E+01  0.28569821512E+02  0.00000000000E+00 0. -1.
         11    1    3    3    0    0 -0.10503457738E+03 -0.16678627634E+02 -0.15451269073E+03  0.18757561319E+03  0.00000000000E+00 0.  1.
<mgrwt>
<rscale>  0 0.17315566E+03</rscale>
<asrwt>0</asrwt>
<pdfrwt beam="1">  1        2 0.80961473E-02 0.17896670E+03</pdfrwt>
<pdfrwt beam="2">  1       -2 0.93173496E-01 0.17896670E+03</pdfrwt>
<totfact> 0.83463532E+02</totfact>
</mgrwt>
</event>
<event>
 7    1  0.1254976E-005  0.1456913E+03  0.7546771E-02  0.1217249E+00
         -2   -1    0    0    0  501 -0.00000000000E+00  0.00000000000E+00  0.12576383534E+03  0.12576383534E+03  0.00000000000E+00 0. -1.
          2   -1    0    0  501    0  0.00000000000E+00 -0.00000000000E+00 -0.19591595372E+03  0.19591595372E+03  0.00000000000E+00 0.  1.
         23    2    1    2    0    0 -0.30857058248E+02  0.68167799258E+02 -0.12184596846E+03  0.16708937877E+03  0.86448907274E+02 0.  0.
          5    1    1    2  502    0 -0.46874593878E+02 -0.95777600208E+01  0.13638237478E+02  0.49970516905E+02  0.47000000000E+01 0.  1.
         -5    1    1    2    0  502  0.77731652126E+02 -0.58590039238E+02  0.38055612603E+02  0.10461989338E+03  0.47000000000E+01 0.  1.
        -11    1    3    3    0    0 -0.35726367064E+02  0.57242165630E+02 -0.13400397886E+03  0.15003368015E+03  0.00000000000E+00 0.  1.
         11    1    3    3    0    0  0.48693088163E+01  0.10925633628E+02  0.12158010400E+02  0.17055698620E+02  0.00000000000E+00 0. -1.
<mgrwt>
<rscale>  0 0.13712594E+03</rscale>
<asrwt>0</asrwt>
<pdfrwt beam="2">  1        2 0.30140916E-01 0.14569125E+03</pdfrwt>
<pdfrwt beam="1">  1       -2 0.19348282E-01 0.14569125E+03</pdfrwt>
<totfact> 0.37476784E+03</totfact>
</mgrwt>
</event>
<event>
 7    1  0.1728195E-005  0.4000184E+03  0.7546771E-02  0.1044624E+00
          1   -1    0    0  501    0  0.00000000000E+00  0.00000000000E+00  0.23579067268E+03  0.23579067268E+03  0.00000000000E+00 0. -1.
         -1   -1    0    0    0  501 -0.00000000000E+00 -0.00000000000E+00 -0.98394221963E+03  0.98394221963E+03  0.00000000000E+00 0.  1.
         23    2    1    2    0    0  0.32576779335E+03 -0.19561416213E+03 -0.22297362519E+02  0.39095126102E+03  0.89197312215E+02 0.  0.
          5    1    1    2  502    0 -0.66633305651E+02 -0.11602816691E+02 -0.13732759990E+03  0.15315215464E+03  0.47000000000E+01 0. -1.
         -5    1    1    2    0  502 -0.25913448770E+03  0.20721697882E+03 -0.58852658453E+03  0.67562947665E+03  0.47000000000E+01 0. -1.
        -11    1    3    3    0    0  0.17520957642E+03 -0.54733490321E+02 -0.23317295625E-01  0.18355966653E+03  0.00000000000E+00 0.  1.
         11    1    3    3    0    0  0.15055821693E+03 -0.14088067181E+03 -0.22274045223E+02  0.20739159449E+03  0.00000000000E+00 0. -1.
<mgrwt>
<rscale>  0 0.39757012E+03</rscale>
<asrwt>0</asrwt>
<pdfrwt beam="1">  1        1 0.36275488E-01 0.40001837E+03</pdfrwt>
<pdfrwt beam="2">  1       -1 0.15137573E+00 0.40001837E+03</pdfrwt>
<totfact> 0.43311065E+01</totfact>
</mgrwt>
</event>
<event>
 7    1  0.1254976E-005  0.1646899E+03  0.7546771E-02  0.1190997E+00
          2   -1    0    0  501    0  0.00000000000E+00  0.00000000000E+00  0.18141554280E+03  0.18141554280E+03  0.00000000000E+00 0. -1.
         -2   -1    0    0    0  501 -0.00000000000E+00 -0.00000000000E+00 -0.13410478088E+03  0.13410478088E+03  0.00000000000E+00 0.  1.
         23    2    1    2    0    0 -0.26574533436E+02 -0.10388114049E+03  0.56775142199E+02  0.15055865783E+03  0.89145922511E+02 0.  0.
          5    1    1    2  502    0  0.49940454083E+02  0.12077829196E+03 -0.22957827305E+02  0.13278025680E+03  0.47000000000E+01 0.  1.
         -5    1    1    2    0  502 -0.23365920646E+02 -0.16897151468E+02  0.13493447022E+02  0.32181409041E+02  0.47000000000E+01 0.  1.
        -11    1    3    3    0    0 -0.58720594099E+02 -0.61002983975E+02  0.25132488878E+02  0.88323916480E+02  0.00000000000E+00 0. -1.
         11    1    3    3    0    0  0.32146060663E+02 -0.42878156513E+02  0.31642653322E+02  0.62234741353E+02  0.00000000000E+00 0.  1.
<mgrwt>
<rscale>  0 0.15797919E+03</rscale>
<asrwt>0</asrwt>
<pdfrwt beam="1">  1        2 0.27910084E-01 0.16468994E+03</pdfrwt>
<pdfrwt beam="2">  1       -2 0.20631505E-01 0.16468994E+03</pdfrwt>
<totfact> 0.36780810E+03</totfact>
</mgrwt>
</event>
<event>
 7    1  0.1254976E-005  0.1655357E+03  0.7546771E-02  0.1189334E+00
         -2   -1    0    0    0  501 -0.00000000000E+00  0.00000000000E+00  0.80450562237E+02  0.80450562237E+02  0.00000000000E+00 0.  1.
          2   -1    0    0  501    0  0.00000000000E+00 -0.00000000000E+00 -0.35423219084E+03  0.35423219084E+03  0.00000000000E+00 0. -1.
         23    2    1    2    0    0  0.22172021075E+02 -0.10623676284E+03 -0.21719076534E+03  0.25974105146E+03  0.92280750781E+02 0.  0.
          5    1    1    2  502    0 -0.55848512583E+02  0.11483608257E+03 -0.30900623559E+02  0.13146604411E+03  0.47000000000E+01 0. -1.
         -5    1    1    2    0  502  0.33676491508E+02 -0.85993197266E+01 -0.25690239708E+02  0.43475657514E+02  0.47000000000E+01 0. -1.
        -11    1    3    3    0    0  0.41503950470E+02 -0.11287741579E+02 -0.90884026453E+02  0.10054798496E+03  0.00000000000E+00 0.  1.
         11    1    3    3    0    0 -0.19331929395E+02 -0.94949021265E+02 -0.12630673889E+03  0.15919306650E+03  0.00000000000E+00 0. -1.
<mgrwt>
<rscale>  0 0.15943682E+03</rscale>
<asrwt>0</asrwt>
<pdfrwt beam="2">  1        2 0.54497260E-01 0.16553572E+03</pdfrwt>
<pdfrwt beam="1">  1       -2 0.12377010E-01 0.16553572E+03</pdfrwt>
<totfact> 0.41735801E+03</totfact>
</mgrwt>
</event>
<event>
 7    1  0.1254976E-005  0.1538265E+03  0.7546771E-02  0.1206438E+00
          3   -1    0    0  501    0  0.00000000000E+00  0.00000000000E+00  0.14899898091E+03  0.14899898091E+03  0.00000000000E+00 0. -1.
         -3   -1    0    0    0  501 -0.00000000000E+00 -0.00000000000E+00 -0.12790759882E+03  0.12790759882E+03  0.00000000000E+00 0.  1.
         23    2    1    2    0    0  0.78960260772E+02 -0.42449216906E+02  0.94847516366E+01  0.12264280509E+03  0.83154304343E+02 0.  0.
          5    1    1    2  502    0 -0.56999322121E+02 -0.33526433155E+02  0.30256026571E+02  0.72872913940E+02  0.47000000000E+01 0.  1.
         -5    1    1    2    0  502 -0.21960938651E+02  0.75975650061E+02 -0.18649396122E+02  0.81390860693E+02  0.47000000000E+01 0.  1.
        -11    1    3    3    0    0  0.25387147368E+02 -0.52859206407E+02  0.28041004425E+02  0.64999237554E+02  0.00000000000E+00 0. -1.
         11    1    3    3    0    0  0.53573113404E+02  0.10409989501E+02 -0.18556252788E+02  0.57643567540E+02  0.00000000000E+00 0.  1.
<mgrwt>
<rscale>  0 0.14524737E+03</rscale>
<asrwt>0</asrwt>
<pdfrwt beam="1">  1        3 0.22922920E-01 0.15382652E+03</pdfrwt>
<pdfrwt beam="2">  1       -3 0.19678092E-01 0.15382652E+03</pdfrwt>
<totfact> 0.95494479E+02</totfact>
</mgrwt>
</event>
<event>
 7    1  0.1254976E-005  0.2264037E+03  0.7546771E-02  0.1131848E+00
         -2   -1    0    0    0  501 -0.00000000000E+00  0.00000000000E+00  0.52561675964E+02  0.52561675964E+02  0.00000000000E+00 0.  1.
          2   -1    0    0  501    0  0.00000000000E+00 -0.00000000000E+00 -0.10181267613E+04  0.10181267613E+04  0.00000000000E+00 0. -1.
         23    2    1    2    0    0 -0.14637825050E+03  0.11920329508E+03 -0.63918125895E+03  0.67346680175E+03  0.96792734659E+02 0.  0.
          5    1    1    2  502    0  0.72918927649E+00 -0.56267756065E+02 -0.38081270047E+02  0.68109215368E+02  0.47000000000E+01 0. -1.
         -5    1    1    2    0  502  0.14564906122E+03 -0.62935539013E+02 -0.28830255632E+03  0.32911242013E+03  0.47000000000E+01 0. -1.
        -11    1    3    3    0    0 -0.13025468010E+03  0.70025864575E+02 -0.35433554691E+03  0.38395778831E+03  0.00000000000E+00 0.  1.
         11    1    3    3    0    0 -0.16123570393E+02  0.49177430503E+02 -0.28484571204E+03  0.28950901344E+03  0.00000000000E+00 0. -1.
<mgrwt>
<rscale>  0 0.22275119E+03</rscale>
<asrwt>0</asrwt>
<pdfrwt beam="2">  1        2 0.15663488E+00 0.22640368E+03</pdfrwt>
<pdfrwt beam="1">  1       -2 0.80864119E-02 0.22640368E+03</pdfrwt>
<totfact> 0.23723055E+03</totfact>
</mgrwt>
</event>
<event>
 7    1  0.1254976E-005  0.2041114E+03  0.7546771E-02  0.1164604E+00
          2   -1    0    0  501    0  0.00000000000E+00  0.00000000000E+00  0.38623773362E+03  0.38623773362E+03  0.00000000000E+00 0. -1.
         -2   -1    0    0    0  501 -0.00000000000E+00 -0.00000000000E+00 -0.95921751206E+02  0.95921751206E+02  0.00000000000E+00 0.  1.
         23    2    1    2    0    0  0.85958219940E+02 -0.47823357750E+02  0.23616806800E+03  0.27098781117E+03  0.89348465772E+02 0.  0.
          5    1    1    2  502    0 -0.10845949785E+03  0.55568919894E+01  0.97788097689E+02  0.14621540196E+03  0.47000000000E+01 0. -1.
         -5    1    1    2    0  502  0.22501277907E+02  0.42266465760E+02 -0.43640183281E+02  0.64956271692E+02  0.47000000000E+01 0.  1.
        -11    1    3    3    0    0  0.13713780900E+02  0.22392358368E+02  0.21805072382E+02  0.34131315260E+02  0.00000000000E+00 0.  1.
         11    1    3    3    0    0  0.72244439040E+02 -0.70215716117E+02  0.21436299562E+03  0.23685649591E+03  0.00000000000E+00 0. -1.
<mgrwt>
<rscale>  0 0.18334598E+03</rscale>
<asrwt>0</asrwt>
<pdfrwt beam="1">  1        2 0.59421189E-01 0.20411144E+03</pdfrwt>
<pdfrwt beam="2">  1       -2 0.14757193E-01 0.20411144E+03</pdfrwt>
<totfact> 0.28806310E+03</totfact>
</mgrwt>
</event>
<event>
 7    1  0.1254976E-005  0.2191276E+03  0.7546771E-02  0.1137838E+00
         -2   -1    0    0    0  501 -0.00000000000E+00  0.00000000000E+00  0.90746476872E+02  0.90746476872E+02  0.00000000000E+00 0.  1.
          2   -1    0    0  501    0  0.00000000000E+00 -0.00000000000E+00 -0.50034997039E+03  0.50034997039E+03  0.00000000000E+00 0. -1.
         23    2    1    2    0    0 -0.87898197041E+02  0.15705197208E+03 -0.24099193032E+03  0.31460636491E+03  0.92242286320E+02 0.  0.
          5    1    1    2  502    0  0.25777471416E+02 -0.12903408013E+03 -0.16065876130E+03  0.20772000253E+03  0.47000000000E+01 0.  1.
         -5    1    1    2    0  502  0.62120725625E+02 -0.28017891946E+02 -0.79528018966E+01  0.68770079826E+02  0.47000000000E+01 0.  1.
        -11    1    3    3    0    0 -0.19164573929E+02 -0.21115292641E+01 -0.20437818669E+01  0.19388566065E+02  0.00000000000E+00 0.  1.
         11    1    3    3    0    0 -0.68733623111E+02  0.15916350134E+03 -0.23894814846E+03  0.29521779885E+03  0.00000000000E+00 0. -1.
<mgrwt>
<rscale>  0 0.21477726E+03</rscale>
<asrwt>0</asrwt>
<pdfrwt beam="2">  1        2 0.76976917E-01 0.21912760E+03</pdfrwt>
<pdfrwt beam="1">  1       -2 0.13960997E-01 0.21912760E+03</pdfrwt>
<totfact> 0.23804940E+03</totfact>
</mgrwt>
</event>
<event>
 7    1  0.1254976E-005  0.1488525E+03  0.7546771E-02  0.1210717E+00
         -1   -1    0    0    0  501 -0.00000000000E+00  0.00000000000E+00  0.69772433001E+03  0.69772433001E+03  0.00000000000E+00 0.  1.
          1   -1    0    0  501    0  0.00000000000E+00 -0.00000000000E+00 -0.41939314973E+02  0.41939314973E+02  0.00000000000E+00 0. -1.
         23    2    1    2    0    0  0.43072349094E+02 -0.68403626048E+02  0.84586848561E+02  0.14938877214E+03  0.92885881482E+02 0.  0.
          5    1    1    2  502    0 -0.23405120424E+02 -0.35468014433E+02  0.14850527708E+03  0.15453700861E+03  0.47000000000E+01 0.  1.
         -5    1    1    2    0  502 -0.19667228670E+02  0.10387164048E+03  0.42269288940E+03  0.43573786424E+03  0.47000000000E+01 0.  1.
        -11    1    3    3    0    0  0.33214984608E+02 -0.33732901655E+02 -0.98080746020E+01  0.48346066892E+02  0.00000000000E+00 0. -1.
         11    1    3    3    0    0  0.98573644856E+01 -0.34670724394E+02  0.94394923163E+02  0.10104270525E+03  0.00000000000E+00 0.  1.
<mgrwt>
<rscale>  0 0.14195870E+03</rscale>
<asrwt>0</asrwt>
<pdfrwt beam="2">  1        1 0.64522028E-02 0.14885254E+03</pdfrwt>
<pdfrwt beam="1">  1       -1 0.10734220E+00 0.14885254E+03</pdfrwt>
<totfact> 0.98951483E+02</totfact>
</mgrwt>
</event>
<event>
 7    1  0.1254976E-005  0.1645086E+03  0.7546771E-02  0.1190502E+00
          2   -1    0    0  501    0  0.00000000000E+00  0.00000000000E+00  0.37052574577E+02  0.37052574577E+02  0.00000000000E+00 0. -1.
         -2   -1    0    0    0  501 -0.00000000000E+00 -0.00000000000E+00 -0.65659191638E+03  0.65659191638E+03  0.00000000000E+00 0.  1.
         23    2    1    2    0    0  0.91255290702E+02  0.55772242438E+02 -0.21978721422E+03  0.26136581211E+03  0.92561315330E+02 0.  0.
          5    1    1    2  502    0  0.68473240949E+01  0.23054148670E+02 -0.15603101550E+03  0.15794349437E+03  0.47000000000E+01 0.  1.
         -5    1    1    2    0  502 -0.98102614797E+02 -0.78826391109E+02 -0.24372111208E+03  0.27433518447E+03  0.47000000000E+01 0.  1.
        -11    1    3    3    0    0  0.74603198862E+02 -0.69068190419E+01 -0.97677777995E+02  0.12310276091E+03  0.00000000000E+00 0.  1.
         11    1    3    3    0    0  0.16652091840E+02  0.62679061480E+02 -0.12210943623E+03  0.13826305120E+03  0.00000000000E+00 0. -1.
<mgrwt>
<rscale>  0 0.15841112E+03</rscale>
<asrwt>0</asrwt>
<pdfrwt beam="1">  1        2 0.57003966E-02 0.16450864E+03</pdfrwt>
<pdfrwt beam="2">  1       -2 0.10101413E+00 0.16450864E+03</pdfrwt>
<totfact> 0.10838665E+03</totfact>
</mgrwt>
</event>
<event>
 7    1  0.1254976E-005  0.1436163E+03  0.7546771E-02  0.1218164E+00
         -1   -1    0    0    0  501 -0.00000000000E+00  0.00000000000E+00  0.41482519329E+03  0.41482519329E+03  0.00000000000E+00 0.  1.
          1   -1    0    0  501    0  0.00000000000E+00 -0.00000000000E+00 -0.46850865841E+02  0.46850865841E+02  0.00000000000E+00 0. -1.
         23    2    1    2    0    0 -0.21778255159E+02 -0.67287860232E+02  0.86133616480E+02  0.14535370938E+03  0.93309980227E+02 0.  0.
          5    1    1    2  502    0 -0.16566885739E+02  0.26251096557E+02  0.26581400331E+01  0.31507736859E+02  0.47000000000E+01 0. -1.
         -5    1    1    2    0  502  0.38345140898E+02  0.41036763676E+02  0.27918257094E+03  0.28481461289E+03  0.47000000000E+01 0. -1.
        -11    1    3    3    0    0  0.22278445295E+02 -0.61238647739E+02  0.75301866858E+02  0.99583493883E+02  0.00000000000E+00 0.  1.
         11    1    3    3    0    0 -0.44056700454E+02 -0.60492124933E+01  0.10831749622E+02  0.45770215496E+02  0.00000000000E+00 0. -1.
<mgrwt>
<rscale>  0 0.13646691E+03</rscale>
<asrwt>0</asrwt>
<pdfrwt beam="2">  1        1 0.72078258E-02 0.14361630E+03</pdfrwt>
<pdfrwt beam="1">  1       -1 0.63819258E-01 0.14361630E+03</pdfrwt>
<totfact> 0.25076322E+03</totfact>
</mgrwt>
</event>
<event>
 7    1  0.1254976E-005  0.1606753E+03  0.7546771E-02  0.1194832E+00
         -1   -1    0    0    0  501 -0.00000000000E+00  0.00000000000E+00  0.81566293115E+02  0.81566293115E+02  0.00000000000E+00 0.  1.
          1   -1    0    0  501    0  0.00000000000E+00 -0.00000000000E+00 -0.28481954538E+03  0.28481954538E+03  0.00000000000E+00 0. -1.
         23    2    1    2    0    0 -0.37363391995E+02  0.93779589049E+02 -0.13071912509E+03  0.19009698006E+03  0.94120867916E+02 0.  0.
          5    1    1    2  502    0  0.35282521980E+02 -0.94404482187E+02 -0.10370817291E+03  0.14468772492E+03  0.47000000000E+01 0. -1.
         -5    1    1    2    0  502  0.20808700148E+01  0.62489313830E+00  0.31174045744E+02  0.31601133516E+02  0.47000000000E+01 0. -1.
        -11    1    3    3    0    0 -0.55693545639E+02  0.26213237430E+02 -0.32865664524E+02  0.69778626720E+02  0.00000000000E+00 0. -1.
         11    1    3    3    0    0  0.18330153644E+02  0.67566351619E+02 -0.97853460571E+02  0.12031835334E+03  0.00000000000E+00 0.  1.
<mgrwt>
<rscale>  0 0.15468457E+03</rscale>
<asrwt>0</asrwt>
<pdfrwt beam="2">  1        1 0.43818391E-01 0.16067533E+03</pdfrwt>
<pdfrwt beam="1">  1       -1 0.12548661E-01 0.16067533E+03</pdfrwt>
<totfact> 0.38834905E+03</totfact>
</mgrwt>
</event>
<event>
 7    1  0.1254976E-005  0.2276183E+03  0.7546771E-02  0.1131321E+00
         -2   -1    0    0    0  501 -0.00000000000E+00  0.00000000000E+00  0.10713770322E+03  0.10713770322E+03  0.00000000000E+00 0.  1.
          2   -1    0    0  501    0  0.00000000000E+00 -0.00000000000E+00 -0.45008098715E+03  0.45008098715E+03  0.00000000000E+00 0. -1.
         23    2    1    2    0    0 -0.18671717914E+03 -0.36608258506E+02 -0.15964792813E+03  0.26497346837E+03  0.92303891606E+02 0.  0.
          5    1    1    2  502    0  0.77710635149E+02  0.22670505447E+02 -0.16063550629E+03  0.17994096397E+03  0.47000000000E+01 0.  1.
         -5    1    1    2    0  502  0.10900654399E+03  0.13937753059E+02 -0.22659849509E+02  0.11230425804E+03  0.47000000000E+01 0.  1.
        -11    1    3    3    0    0 -0.43512207670E+02 -0.25751561167E+02 -0.44312010961E+00  0.50563341210E+02  0.00000000000E+00 0.  1.
         11    1    3    3    0    0 -0.14320497147E+03 -0.10856697339E+02 -0.15920480802E+03  0.21441012716E+03  0.00000000000E+00 0. -1.
<mgrwt>
<rscale>  0 0.22347158E+03</rscale>
<asrwt>0</asrwt>
<pdfrwt beam="2">  1        2 0.69243227E-01 0.22761828E+03</pdfrwt>
<pdfrwt beam="1">  1       -2 0.16482724E-01 0.22761828E+03</pdfrwt>
<totfact> 0.20359483E+03</totfact>
</mgrwt>
</event>
<event>
 7    1  0.1254976E-005  0.5612992E+03  0.7546771E-02  0.1053871E+00
          2   -1    0    0  501    0  0.00000000000E+00  0.00000000000E+00  0.16818440214E+03  0.16818440214E+03  0.00000000000E+00 0. -1.
         -2   -1    0    0    0  501 -0.00000000000E+00 -0.00000000000E+00 -0.76167978356E+03  0.76167978356E+03  0.00000000000E+00 0.  1.
         23    2    1    2    0    0 -0.39401174924E+02  0.42841199835E+02  0.59692095773E+01  0.10863668516E+03  0.91534020511E+02 0.  0.
          5    1    1    2  502    0  0.23927239041E+03  0.16304561856E+02 -0.66480082657E+02  0.24891526056E+03  0.47000000000E+01 0. -1.
         -5    1    1    2    0  502 -0.19987121548E+03 -0.59145761691E+02 -0.53298450833E+03  0.57231223998E+03  0.47000000000E+01 0.  1.
        -11    1    3    3    0    0  0.16745354277E+02  0.17674655170E+02 -0.28999548075E+02  0.37865209808E+02  0.00000000000E+00 0. -1.
         11    1    3    3    0    0 -0.56146529201E+02  0.25166544665E+02  0.34968757652E+02  0.70771475352E+02  0.00000000000E+00 0.  1.
<mgrwt>
<rscale>  0 0.37215667E+03</rscale>
<asrwt>0</asrwt>
<pdfrwt beam="1">  1        2 0.25874523E-01 0.56129922E+03</pdfrwt>
<pdfrwt beam="2">  1       -2 0.11718151E+00 0.56129922E+03</pdfrwt>
<totfact> 0.12057380E+02</totfact>
</mgrwt>
</event>
<event>
 7    1  0.1254976E-005  0.2132096E+03  0.7546771E-02  0.1142261E+00
         -1   -1    0    0    0  501 -0.00000000000E+00  0.00000000000E+00  0.14892311410E+03  0.14892311410E+03  0.00000000000E+00 0.  1.
          1   -1    0    0  501    0  0.00000000000E+00 -0.00000000000E+00 -0.28976196229E+03  0.28976196229E+03  0.00000000000E+00 0. -1.
         23    2    1    2    0    0  0.13777038629E+03  0.10415987522E+03 -0.34135578620E+02  0.20026541928E+03  0.95451775717E+02 0.  0.
          5    1    1    2  502    0 -0.78902549012E+02 -0.12639949207E+03 -0.64068972749E+02  0.16226326481E+03  0.47000000000E+01 0.  1.
         -5    1    1    2    0  502 -0.58867837279E+02  0.22239616850E+02 -0.42634296816E+02  0.76156392303E+02  0.47000000000E+01 0.  1.
        -11    1    3    3    0    0  0.13690087377E+03  0.11943127611E+03 -0.28162974012E+02  0.18384458670E+03  0.00000000000E+00 0. -1.
         11    1    3    3    0    0  0.86951251780E+00 -0.15271400885E+02 -0.59726046082E+01  0.16420832586E+02  0.00000000000E+00 0.  1.
<mgrwt>
<rscale>  0 0.20912502E+03</rscale>
<asrwt>0</asrwt>
<pdfrwt beam="2">  1        1 0.44578763E-01 0.21320963E+03</pdfrwt>
<pdfrwt beam="1">  1       -1 0.22911248E-01 0.21320963E+03</pdfrwt>
<totfact> 0.14677033E+03</totfact>
</mgrwt>
</event>
<event>
 7    1  0.1254976E-005  0.1291217E+03  0.7546771E-02  0.1242562E+00
         -2   -1    0    0    0  501 -0.00000000000E+00  0.00000000000E+00  0.17790633807E+02  0.17790633807E+02  0.00000000000E+00 0.  1.
          2   -1    0    0  501    0  0.00000000000E+00 -0.00000000000E+00 -0.81980673632E+03  0.81980673632E+03  0.00000000000E+00 0. -1.
         23    2    1    2    0    0 -0.31693411799E+02 -0.64624588352E+01 -0.49580569522E+03  0.50527640356E+03  0.91840736338E+02 0.  0.
          5    1    1    2  502    0  0.70746183177E+02  0.13143484857E+02 -0.10618613148E+03  0.12835637166E+03  0.47000000000E+01 0. -1.
         -5    1    1    2    0  502 -0.39052771378E+02 -0.66810260217E+01 -0.20002427582E+03  0.20396459491E+03  0.47000000000E+01 0. -1.
        -11    1    3    3    0    0 -0.60905063164E+02 -0.20937740824E+02 -0.30790461356E+03  0.31456806380E+03  0.00000000000E+00 0. -1.
         11    1    3    3    0    0  0.29211651364E+02  0.14475281988E+02 -0.18790108166E+03  0.19070833976E+03  0.00000000000E+00 0.  1.
<mgrwt>
<rscale>  0 0.12032502E+03</rscale>
<asrwt>0</asrwt>
<pdfrwt beam="2">  1        2 0.12612407E+00 0.12912169E+03</pdfrwt>
<pdfrwt beam="1">  1       -2 0.27370215E-02 0.12912169E+03</pdfrwt>
<totfact> 0.15849306E+04</totfact>
</mgrwt>
</event>
<event>
 7    1  0.1254976E-005  0.2523088E+03  0.7546771E-02  0.1114339E+00
          1   -1    0    0  501    0  0.00000000000E+00  0.00000000000E+00  0.29539195805E+03  0.29539195805E+03  0.00000000000E+00 0. -1.
         -1   -1    0    0    0  501 -0.00000000000E+00 -0.00000000000E+00 -0.20721757029E+03  0.20721757029E+03  0.00000000000E+00 0.  1.
         23    2    1    2    0    0 -0.21982048699E+02 -0.21806004179E+03  0.50916577222E+01  0.23697359720E+03  0.89984268073E+02 0.  0.
          5    1    1    2  502    0  0.25849417251E+02 -0.48304152998E+01  0.21565127419E+02  0.34331763787E+02  0.47000000000E+01 0.  1.
         -5    1    1    2    0  502 -0.38673685521E+01  0.22289045709E+03  0.61517602615E+02  0.23130416735E+03  0.47000000000E+01 0.  1.
        -11    1    3    3    0    0  0.10248594179E+01 -0.58474252755E+02 -0.38414826998E+02  0.69971333455E+02  0.00000000000E+00 0.  1.
         11    1    3    3    0    0 -0.23006908116E+02 -0.15958578904E+03  0.43506484721E+02  0.16700226375E+03  0.00000000000E+00 0. -1.
<mgrwt>
<rscale>  0 0.24837001E+03</rscale>
<asrwt>0</asrwt>
<pdfrwt beam="1">  1        1 0.45444917E-01 0.25230876E+03</pdfrwt>
<pdfrwt beam="2">  1       -1 0.31879626E-01 0.25230876E+03</pdfrwt>
<totfact> 0.82396321E+02</totfact>
</mgrwt>
</event>
<event>
 7    1  0.1254976E-005  0.1233784E+03  0.7546771E-02  0.1243813E+00
         -1   -1    0    0    0  501 -0.00000000000E+00  0.00000000000E+00  0.31971885247E+03  0.31971885247E+03  0.00000000000E+00 0.  1.
          1   -1    0    0  501    0  0.00000000000E+00 -0.00000000000E+00 -0.51647456313E+02  0.51647456313E+02  0.00000000000E+00 0. -1.
         23    2    1    2    0    0  0.42345551628E+02 -0.19307737971E+02  0.47724916765E+02  0.11882960183E+03  0.98371093841E+02 0.  0.
          5    1    1    2  502    0  0.76861566072E+01 -0.41911807027E+02  0.95584822718E+02  0.10475793481E+03  0.47000000000E+01 0. -1.
         -5    1    1    2    0  502 -0.50031708236E+02  0.61219544999E+02  0.12476165668E+03  0.14777877214E+03  0.47000000000E+01 0.  1.
        -11    1    3    3    0    0 -0.17496231628E+02  0.16473335824E+02  0.42609634545E+02  0.48919013383E+02  0.00000000000E+00 0.  1.
         11    1    3    3    0    0  0.59841783256E+02 -0.35781073795E+02  0.51152822200E+01  0.69910588450E+02  0.00000000000E+00 0. -1.
<mgrwt>
<rscale>  0 0.11956692E+03</rscale>
<asrwt>0</asrwt>
<pdfrwt beam="2">  1        1 0.79457627E-02 0.12337835E+03</pdfrwt>
<pdfrwt beam="1">  1       -1 0.49187514E-01 0.12337835E+03</pdfrwt>
<totfact> 0.35503671E+03</totfact>
</mgrwt>
</event>
<event>
 7    1  0.1254976E-005  0.1432481E+03  0.7546771E-02  0.1220079E+00
          2   -1    0    0  501    0  0.00000000000E+00  0.00000000000E+00  0.20408911462E+03  0.20408911462E+03  0.00000000000E+00 0. -1.
         -2   -1    0    0    0  501 -0.00000000000E+00 -0.00000000000E+00 -0.84232074020E+02  0.84232074020E+02  0.00000000000E+00 0.  1.
         23    2    1    2    0    0 -0.60633027461E+02  0.34896299328E+02  0.82806067972E+02  0.14035901084E+03  0.89161041408E+02 0.  0.
          5    1    1    2  502    0  0.44455644575E+02 -0.73292015750E+02 -0.82384759962E+01  0.86243761479E+02  0.47000000000E+01 0. -1.
         -5    1    1    2    0  502  0.16177382885E+02  0.38395716423E+02  0.45289448626E+02  0.61718416324E+02  0.47000000000E+01 0. -1.
        -11    1    3    3    0    0 -0.67022868535E+02  0.43822085490E+02  0.28567613887E+02  0.85020871829E+02  0.00000000000E+00 0.  1.
         11    1    3    3    0    0  0.63898410740E+01 -0.89257861629E+01  0.54238454086E+02  0.55338139011E+02  0.00000000000E+00 0. -1.
<mgrwt>
<rscale>  0 0.13509942E+03</rscale>
<asrwt>0</asrwt>
<pdfrwt beam="1">  1        2 0.31398325E-01 0.14324815E+03</pdfrwt>
<pdfrwt beam="2">  1       -2 0.12958781E-01 0.14324815E+03</pdfrwt>
<totfact> 0.69316459E+03</totfact>
</mgrwt>
</event>
<event>
 7    1  0.1254976E-005  0.1547457E+03  0.7546771E-02  0.1203310E+00
         -2   -1    0    0    0  501 -0.00000000000E+00  0.00000000000E+00  0.26456089650E+03  0.26456089650E+03  0.00000000000E+00 0. -1.
          2   -1    0    0  501    0  0.00000000000E+00 -0.00000000000E+00 -0.76265238485E+02  0.76265238485E+02  0.00000000000E+00 0.  1.
         23    2    1    2    0    0  0.41086436948E+02  0.81424873610E+02  0.98695161927E+02  0.16201205175E+03  0.90493450484E+02 0.  0.
          5    1    1    2  502    0 -0.10464309670E+02 -0.32889316351E+02 -0.30066868973E+02  0.46014296873E+02  0.47000000000E+01 0.  1.
         -5    1    1    2    0  502 -0.30622127278E+02 -0.48535557259E+02  0.11966736506E+03  0.13279978636E+03  0.47000000000E+01 0.  1.
        -11    1    3    3    0    0  0.24946730650E+02  0.32649361857E+02  0.10256568767E+03  0.11049000175E+03  0.00000000000E+00 0. -1.
         11    1    3    3    0    0  0.16139706299E+02  0.48775511752E+02 -0.38705257458E+01  0.51522049995E+02  0.00000000000E+00 0.  1.
<mgrwt>
<rscale>  0 0.14771445E+03</rscale>
<asrwt>0</asrwt>
<pdfrwt beam="2">  1        2 0.11733114E-01 0.15474569E+03</pdfrwt>
<pdfrwt beam="1">  1       -2 0.40701676E-01 0.15474569E+03</pdfrwt>
<totfact> 0.29304304E+03</totfact>
</mgrwt>
</event>
<event>
 7    1  0.1254976E-005  0.1734216E+03  0.7546771E-02  0.1180301E+00
         -2   -1    0    0    0  501 -0.00000000000E+00  0.00000000000E+00  0.17302187072E+03  0.17302187072E+03  0.00000000000E+00 0.  1.
          2   -1    0    0  501    0  0.00000000000E+00 -0.00000000000E+00 -0.15480953502E+03  0.15480953502E+03  0.00000000000E+00 0. -1.
         23    2    1    2    0    0 -0.48745949201E+02 -0.10986535622E+03 -0.11159587241E+02  0.15194011145E+03  0.92275115925E+02 0.  0.
          5    1    1    2  502    0  0.62022332764E+02  0.80184395322E+02 -0.31892177741E+02  0.10637437669E+03  0.47000000000E+01 0.  1.
         -5    1    1    2    0  502 -0.13276383563E+02  0.29680960895E+02  0.61264100680E+02  0.69516917598E+02  0.47000000000E+01 0.  1.
        -11    1    3    3    0    0 -0.59318027235E+02 -0.41160972670E+02 -0.32567283018E+02  0.79205315159E+02  0.00000000000E+00 0. -1.
         11    1    3    3    0    0  0.10572078035E+02 -0.68704383548E+02  0.21407695777E+02  0.72734796288E+02  0.00000000000E+00 0.  1.
<mgrwt>
<rscale>  0 0.16766862E+03</rscale>
<asrwt>0</asrwt>
<pdfrwt beam="2">  1        2 0.23816852E-01 0.17342156E+03</pdfrwt>
<pdfrwt beam="1">  1       -2 0.26618749E-01 0.17342156E+03</pdfrwt>
<totfact> 0.28218054E+03</totfact>
</mgrwt>
</event>
<event>
 7    1  0.1254976E-005  0.2221149E+03  0.7546771E-02  0.1157894E+00
          1   -1    0    0  501    0  0.00000000000E+00  0.00000000000E+00  0.58038889814E+03  0.58038889814E+03  0.00000000000E+00 0. -1.
         -1   -1    0    0    0  501 -0.00000000000E+00 -0.00000000000E+00 -0.56734823178E+02  0.56734823178E+02  0.00000000000E+00 0.  1.
         23    2    1    2    0    0  0.69885967334E+02  0.36586978853E+02  0.29346254683E+03  0.31724377239E+03  0.91108118606E+02 0.  0.
          5    1    1    2  502    0 -0.21375120330E+02 -0.11750255060E+03  0.17021368131E+03  0.20798685649E+03  0.47000000000E+01 0. -1.
         -5    1    1    2    0  502 -0.48510847005E+02  0.80915571744E+02  0.59977846828E+02  0.11189309245E+03  0.47000000000E+01 0.  1.
        -11    1    3    3    0    0  0.36519961185E+02 -0.18012092195E+02  0.19917070711E+03  0.20329071204E+03  0.00000000000E+00 0. -1.
         11    1    3    3    0    0  0.33366006150E+02  0.54599071047E+02  0.94291839719E+02  0.11395306035E+03  0.00000000000E+00 0.  1.
<mgrwt>
<rscale>  0 0.19063017E+03</rscale>
<asrwt>0</asrwt>
<pdfrwt beam="1">  1        1 0.89290596E-01 0.22211493E+03</pdfrwt>
<pdfrwt beam="2">  1       -1 0.87284347E-02 0.22211493E+03</pdfrwt>
<totfact> 0.27521575E+03</totfact>
</mgrwt>
</event>
<event>
 7    1  0.1254976E-005  0.1528880E+03  0.7546771E-02  0.1206168E+00
         -2   -1    0    0    0  501 -0.00000000000E+00  0.00000000000E+00  0.32815069468E+02  0.32815069468E+02  0.00000000000E+00 0.  1.
          2   -1    0    0  501    0  0.00000000000E+00 -0.00000000000E+00 -0.82625865044E+03  0.82625865044E+03  0.00000000000E+00 0. -1.
         23    2    1    2    0    0  0.35969623048E+02 -0.80347676647E+02 -0.59776959485E+03  0.61075325203E+03  0.89115000995E+02 0.  0.
          5    1    1    2  502    0 -0.63112657087E+02  0.71590904519E+02 -0.19745485560E+03  0.21936037722E+03  0.47000000000E+01 0.  1.
         -5    1    1    2    0  502  0.27143034039E+02  0.87567721276E+01  0.17808694839E+01  0.28960090661E+02  0.47000000000E+01 0.  1.
        -11    1    3    3    0    0 -0.69887142067E+01 -0.80699125975E+02 -0.43056505501E+03  0.43811808642E+03  0.00000000000E+00 0. -1.
         11    1    3    3    0    0  0.42958337255E+02  0.35144932808E+00 -0.16720453985E+03  0.17263516560E+03  0.00000000000E+00 0.  1.
<mgrwt>
<rscale>  0 0.14545765E+03</rscale>
<asrwt>0</asrwt>
<pdfrwt beam="2">  1        2 0.12711671E+00 0.15288802E+03</pdfrwt>
<pdfrwt beam="1">  1       -2 0.50484724E-02 0.15288802E+03</pdfrwt>
<totfact> 0.63917330E+03</totfact>
</mgrwt>
</event>
<event>
 7    1  0.1254976E-005  0.1693531E+03  0.7546771E-02  0.1185064E+00
          1   -1    0    0  501    0  0.00000000000E+00  0.00000000000E+00  0.40707531553E+03  0.40707531553E+03  0.00000000000E+00 0. -1.
         -1   -1    0    0    0  501 -0.00000000000E+00 -0.00000000000E+00 -0.99268012111E+02  0.99268012111E+02  0.00000000000E+00 0.  1.
         23    2    1    2    0    0 -0.94953328360E+02 -0.63555278873E+02  0.30353259397E+03  0.33693629215E+03  0.91316051883E+02 0.  0.
          5    1    1    2  502    0  0.12329300741E+03  0.34018367560E+02  0.30112147781E-01  0.12798635050E+03  0.47000000000E+01 0. -1.
         -5    1    1    2    0  502 -0.28339679051E+02  0.29536911313E+02  0.42445973090E+01  0.41420684989E+02  0.47000000000E+01 0. -1.
        -11    1    3    3    0    0 -0.11310071817E+03 -0.55248384191E+02  0.27029244291E+03  0.29816465434E+03  0.00000000000E+00 0. -1.
         11    1    3    3    0    0  0.18147389811E+02 -0.83068946817E+01  0.33240151060E+02  0.38771637813E+02  0.00000000000E+00 0.  1.
<mgrwt>
<rscale>  0 0.16326061E+03</rscale>
<asrwt>0</asrwt>
<pdfrwt beam="1">  1        1 0.62626971E-01 0.16935309E+03</pdfrwt>
<pdfrwt beam="2">  1       -1 0.15272002E-01 0.16935309E+03</pdfrwt>
<totfact> 0.18277071E+03</totfact>
</mgrwt>
</event>
<event>
 7    1  0.1254976E-005  0.1730491E+03  0.7546771E-02  0.1181254E+00
         -2   -1    0    0    0  501 -0.00000000000E+00  0.00000000000E+00  0.14931893253E+03  0.14931893253E+03  0.00000000000E+00 0.  1.
          2   -1    0    0  501    0  0.00000000000E+00 -0.00000000000E+00 -0.20051531804E+03  0.20051531804E+03  0.00000000000E+00 0. -1.
         23    2    1    2    0    0 -0.11390092348E+03  0.36810905720E+02 -0.87474523340E+02  0.17302336803E+03  0.89201067819E+02 0.  0.
          5    1    1    2  502    0  0.10586178256E+03  0.26256053816E+02  0.26175294481E+02  0.11226456881E+03  0.47000000000E+01 0.  1.
         -5    1    1    2    0  502  0.80391409191E+01 -0.63066959536E+02  0.10102843354E+02  0.64546313726E+02  0.47000000000E+01 0.  1.
        -11    1    3    3    0    0 -0.71826647643E+02  0.50701808265E+02 -0.16650849956E+02  0.89481794110E+02  0.00000000000E+00 0. -1.
         11    1    3    3    0    0 -0.42074275839E+02 -0.13890902546E+02 -0.70823673384E+02  0.83541573917E+02  0.00000000000E+00 0.  1.
<mgrwt>
<rscale>  0 0.16677436E+03</rscale>
<asrwt>0</asrwt>
<pdfrwt beam="2">  1        2 0.30848511E-01 0.17304908E+03</pdfrwt>
<pdfrwt beam="1">  1       -2 0.22972143E-01 0.17304908E+03</pdfrwt>
<totfact> 0.27468994E+03</totfact>
</mgrwt>
</event>
<event>
 7    1  0.1254976E-005  0.1364829E+03  0.7546771E-02  0.1229653E+00
         -2   -1    0    0    0  501 -0.00000000000E+00  0.00000000000E+00  0.13163578826E+03  0.13163578826E+03  0.00000000000E+00 0. -1.
          2   -1    0    0  501    0  0.00000000000E+00 -0.00000000000E+00 -0.11582658264E+03  0.11582658264E+03  0.00000000000E+00 0.  1.
         23    2    1    2    0    0 -0.36489283243E+02 -0.40889051677E+02 -0.12509721416E+02  0.10807250881E+03  0.92302717686E+02 0.  0.
          5    1    1    2  502    0  0.70043027558E+02  0.64189107198E+02  0.15956167283E+02  0.96451834958E+02  0.47000000000E+01 0. -1.
         -5    1    1    2    0  502 -0.33553744315E+02 -0.23300055521E+02  0.12362759755E+02  0.42938027128E+02  0.47000000000E+01 0. -1.
        -11    1    3    3    0    0  0.15527947942E+02 -0.45320412729E+02 -0.25506007602E+02  0.54273505516E+02  0.00000000000E+00 0.  1.
         11    1    3    3    0    0 -0.52017231185E+02  0.44313610514E+01  0.12996286186E+02  0.53799003295E+02  0.00000000000E+00 0. -1.
<mgrwt>
<rscale>  0 0.12853018E+03</rscale>
<asrwt>0</asrwt>
<pdfrwt beam="2">  1        2 0.17819474E-01 0.13648286E+03</pdfrwt>
<pdfrwt beam="1">  1       -2 0.20251660E-01 0.13648286E+03</pdfrwt>
<totfact> 0.62059653E+03</totfact>
</mgrwt>
</event>
<event>
 7    1  0.1254976E-005  0.1321999E+03  0.7546771E-02  0.1237849E+00
         -1   -1    0    0    0  501 -0.00000000000E+00  0.00000000000E+00  0.48910592545E+03  0.48910592545E+03  0.00000000000E+00 0.  1.
          1   -1    0    0  501    0  0.00000000000E+00 -0.00000000000E+00 -0.30693526226E+02  0.30693526226E+02  0.00000000000E+00 0. -1.
         23    2    1    2    0    0  0.27043740751E+02  0.33462977089E+02  0.11770266842E+03  0.15434093983E+03  0.90089249111E+02 0.  0.
          5    1    1    2  502    0  0.44737649096E+02 -0.29504846071E+02  0.20342817370E+03  0.21042125616E+03  0.47000000000E+01 0.  1.
         -5    1    1    2    0  502 -0.71781389847E+02 -0.39581310180E+01  0.13728155710E+03  0.15503725568E+03  0.47000000000E+01 0.  1.
        -11    1    3    3    0    0  0.49826797428E+02  0.20770787059E+01  0.99922990819E+02  0.11167644377E+03  0.00000000000E+00 0.  1.
         11    1    3    3    0    0 -0.22783056677E+02  0.31385898383E+02  0.17779677598E+02  0.42664496063E+02  0.00000000000E+00 0. -1.
<mgrwt>
<rscale>  0 0.12323808E+03</rscale>
<asrwt>0</asrwt>
<pdfrwt beam="2">  1        1 0.47220813E-02 0.13219986E+03</pdfrwt>
<pdfrwt beam="1">  1       -1 0.75247060E-01 0.13219986E+03</pdfrwt>
<totfact> 0.32077918E+03</totfact>
</mgrwt>
</event>
<event>
 7    1  0.1254976E-005  0.1302091E+03  0.7546771E-02  0.1241254E+00
          3   -1    0    0  501    0  0.00000000000E+00  0.00000000000E+00  0.13239742171E+03  0.13239742171E+03  0.00000000000E+00 0. -1.
         -3   -1    0    0    0  501 -0.00000000000E+00 -0.00000000000E+00 -0.97907919769E+02  0.97907919769E+02  0.00000000000E+00 0.  1.
         23    2    1    2    0    0 -0.36376689840E+02  0.23372695469E+01  0.14801135434E+02  0.98616168934E+02  0.90428694408E+02 0.  0.
          5    1    1    2  502    0  0.24367179294E+02  0.53279911174E+02  0.39994646026E+02  0.71092686489E+02  0.47000000000E+01 0.  1.
         -5    1    1    2    0  502  0.12009510546E+02 -0.55617180721E+02 -0.20306279516E+02  0.60596486059E+02  0.47000000000E+01 0.  1.
        -11    1    3    3    0    0 -0.44854083168E+02  0.38917104527E+02  0.14219025562E+02  0.61062349198E+02  0.00000000000E+00 0.  1.
         11    1    3    3    0    0  0.84773933287E+01 -0.36579834980E+02  0.58210987228E+00  0.37553819736E+02  0.00000000000E+00 0. -1.
<mgrwt>
<rscale>  0 0.12112426E+03</rscale>
<asrwt>0</asrwt>
<pdfrwt beam="1">  1        3 0.20368834E-01 0.13020909E+03</pdfrwt>
<pdfrwt beam="2">  1       -3 0.15062757E-01 0.13020909E+03</pdfrwt>
<totfact> 0.18236006E+03</totfact>
</mgrwt>
</event>
<event>
 7    1  0.1254976E-005  0.1658036E+03  0.7546771E-02  0.1190109E+00
         -1   -1    0    0    0  501 -0.00000000000E+00  0.00000000000E+00  0.61106212129E+03  0.61106212129E+03  0.00000000000E+00 0.  1.
          1   -1    0    0  501    0  0.00000000000E+00 -0.00000000000E+00 -0.13127315681E+03  0.13127315681E+03  0.00000000000E+00 0. -1.
         23    2    1    2    0    0 -0.80337459309E+02 -0.69025313386E+02 -0.78499629470E+02  0.15994622984E+03  0.90564912386E+02 0.  0.
          5    1    1    2  502    0  0.59516678836E+02  0.81704762479E+02  0.20889422715E+03  0.23211374670E+03  0.47000000000E+01 0. -1.
         -5    1    1    2    0  502  0.20820780473E+02 -0.12679449094E+02  0.34939436680E+03  0.35027530155E+03  0.47000000000E+01 0.  1.
        -11    1    3    3    0    0 -0.54394972999E+02 -0.89723648244E+02 -0.68419894221E+02  0.12526143887E+03  0.00000000000E+00 0. -1.
         11    1    3    3    0    0 -0.25942486310E+02  0.20698334858E+02 -0.10079735249E+02  0.34684790969E+02  0.00000000000E+00 0.  1.
<mgrwt>
<rscale>  0 0.15875536E+03</rscale>
<asrwt>0</asrwt>
<pdfrwt beam="2">  1        1 0.20195871E-01 0.16580365E+03</pdfrwt>
<pdfrwt beam="1">  1       -1 0.94009556E-01 0.16580365E+03</pdfrwt>
<totfact> 0.29441172E+02</totfact>
</mgrwt>
</event>
<event>
 7    1  0.1254976E-005  0.1656635E+03  0.7546771E-02  0.1197191E+00
          2   -1    0    0  501    0  0.00000000000E+00  0.00000000000E+00  0.51335619924E+03  0.51335619924E+03  0.00000000000E+00 0. -1.
         -2   -1    0    0    0  501 -0.00000000000E+00 -0.00000000000E+00 -0.40814545916E+02  0.40814545916E+02  0.00000000000E+00 0.  1.
         23    2    1    2    0    0  0.71601384416E+02  0.36132465767E+02  0.24587897874E+03  0.27342108531E+03  0.88714735942E+02 0.  0.
          5    1    1    2  502    0  0.57276017215E+01 -0.54695325947E+02  0.18033762949E+03  0.18859516089E+03  0.47000000000E+01 0. -1.
         -5    1    1    2    0  502 -0.77328986138E+02  0.18562860180E+02  0.46325045101E+02  0.92154498961E+02  0.47000000000E+01 0.  1.
        -11    1    3    3    0    0 -0.16716219484E+02  0.23350228012E+02  0.42124841725E+02  0.50982030485E+02  0.00000000000E+00 0.  1.
         11    1    3    3    0    0  0.88317603900E+02  0.12782237755E+02  0.20375413701E+03  0.22243905482E+03  0.00000000000E+00 0. -1.
<mgrwt>
<rscale>  0 0.15270284E+03</rscale>
<asrwt>0</asrwt>
<pdfrwt beam="1">  1        2 0.78977872E-01 0.16566352E+03</pdfrwt>
<pdfrwt beam="2">  1       -2 0.62791613E-02 0.16566352E+03</pdfrwt>
<totfact> 0.80685996E+03</totfact>
</mgrwt>
</event>
<event>
 7    1  0.1254976E-005  0.1253984E+03  0.7546771E-02  0.1249954E+00
          1   -1    0    0  501    0  0.00000000000E+00  0.00000000000E+00  0.53432338986E+03  0.53432338986E+03  0.00000000000E+00 0. -1.
         -1   -1    0    0    0  501 -0.00000000000E+00 -0.00000000000E+00 -0.22430724018E+02  0.22430724018E+02  0.00000000000E+00 0.  1.
         23    2    1    2    0    0 -0.43771310232E+01  0.89449459367E+01  0.25326479116E+03  0.26932909082E+03  0.91082014608E+02 0.  0.
          5    1    1    2  502    0 -0.24763555709E+02  0.30606793316E+02  0.21277542612E+02  0.44998147829E+02  0.47000000000E+01 0.  1.
         -5    1    1    2    0  502  0.29140686733E+02 -0.39551739252E+02  0.23735033207E+03  0.24242687523E+03  0.47000000000E+01 0.  1.
        -11    1    3    3    0    0  0.21142405368E+02 -0.34507194677E+02  0.95782022293E+02  0.10398049617E+03  0.00000000000E+00 0.  1.
         11    1    3    3    0    0 -0.25519536391E+02  0.43452140614E+02  0.15748276887E+03  0.16534859465E+03  0.00000000000E+00 0. -1.
<mgrwt>
<rscale>  0 0.11593708E+03</rscale>
<asrwt>0</asrwt>
<pdfrwt beam="1">  1        1 0.82203589E-01 0.12539843E+03</pdfrwt>
<pdfrwt beam="2">  1       -1 0.34508810E-02 0.12539843E+03</pdfrwt>
<totfact> 0.11950845E+04</totfact>
</mgrwt>
</event>
<event>
 7    1  0.1254976E-005  0.1255231E+03  0.7546771E-02  0.1234618E+00
          2   -1    0    0  501    0  0.00000000000E+00  0.00000000000E+00  0.35776828341E+02  0.35776828341E+02  0.00000000000E+00 0. -1.
         -2   -1    0    0    0  501 -0.00000000000E+00 -0.00000000000E+00 -0.49283087688E+03  0.49283087688E+03  0.00000000000E+00 0.  1.
         23    2    1    2    0    0 -0.36333726642E+01 -0.10822079706E+02 -0.13891344708E+03  0.18659966573E+03  0.12406518716E+03 0.  0.
          5    1    1    2  502    0 -0.91840225895E+01 -0.51323604944E+02 -0.80721277359E+02  0.96210567579E+02  0.47000000000E+01 0.  1.
         -5    1    1    2    0  502  0.12817395254E+02  0.62145684650E+02 -0.23741932410E+03  0.24579747191E+03  0.47000000000E+01 0.  1.
        -11    1    3    3    0    0 -0.56555894357E+02  0.16688010129E+01 -0.11297896550E+03  0.12635505819E+03  0.00000000000E+00 0.  1.
         11    1    3    3    0    0  0.52922521693E+02 -0.12490880719E+02 -0.25934481577E+02  0.60244607544E+02  0.00000000000E+00 0. -1.
<mgrwt>
<rscale>  0 0.12528902E+03</rscale>
<asrwt>0</asrwt>
<pdfrwt beam="1">  1        2 0.55041275E-02 0.12552313E+03</pdfrwt>
<pdfrwt beam="2">  1       -2 0.75820135E-01 0.12552313E+03</pdfrwt>
<totfact> 0.21221716E+03</totfact>
</mgrwt>
</event>
<event>
 7    1  0.1254976E-005  0.1289918E+03  0.7546771E-02  0.1241375E+00
          2   -1    0    0  501    0  0.00000000000E+00  0.00000000000E+00  0.19724681190E+03  0.19724681190E+03  0.00000000000E+00 0. -1.
         -2   -1    0    0    0  501 -0.00000000000E+00 -0.00000000000E+00 -0.70708525170E+02  0.70708525170E+02  0.00000000000E+00 0.  1.
         23    2    1    2    0    0  0.17805869291E+02  0.27375223416E+02  0.88247424500E+02  0.13340024459E+03  0.94559851351E+02 0.  0.
          5    1    1    2  502    0 -0.60744165640E+02 -0.43167019621E+02  0.46320006614E+02  0.87868528239E+02  0.47000000000E+01 0. -1.
         -5    1    1    2    0  502  0.42938296349E+02  0.15791796205E+02 -0.80291443871E+01  0.46686564238E+02  0.47000000000E+01 0. -1.
        -11    1    3    3    0    0  0.59616504333E+00  0.59590276997E+02  0.35902652477E+02  0.69572674092E+02  0.00000000000E+00 0.  1.
         11    1    3    3    0    0  0.17209704248E+02 -0.32215053582E+02  0.52344772023E+02  0.63827570498E+02  0.00000000000E+00 0. -1.
<mgrwt>
<rscale>  0 0.12105008E+03</rscale>
<asrwt>0</asrwt>
<pdfrwt beam="1">  1        2 0.30345663E-01 0.12899179E+03</pdfrwt>
<pdfrwt beam="2">  1       -2 0.10878235E-01 0.12899179E+03</pdfrwt>
<totfact> 0.94364122E+03</totfact>
</mgrwt>
</event>
<event>
 7    1  0.1254976E-005  0.1372641E+03  0.7546771E-02  0.1228868E+00
          2   -1    0    0  501    0  0.00000000000E+00  0.00000000000E+00  0.42189335340E+03  0.42189335340E+03  0.00000000000E+00 0.  1.
         -2   -1    0    0    0  501 -0.00000000000E+00 -0.00000000000E+00 -0.35707265407E+02  0.35707265407E+02  0.00000000000E+00 0. -1.
         23    2    1    2    0    0 -0.56410822234E+02  0.58977850088E+01  0.18966248806E+03  0.21788630046E+03  0.91025358114E+02 0.  0.
          5    1    1    2  502    0 -0.72308306719E+00 -0.55885413272E+02  0.11657166316E+03  0.12936284211E+03  0.47000000000E+01 0.  1.
         -5    1    1    2    0  502  0.57133905301E+02  0.49987628264E+02  0.79951936780E+02  0.11035147624E+03  0.47000000000E+01 0.  1.
        -11    1    3    3    0    0 -0.51174565590E+02 -0.19965961099E+02  0.45499269320E+02  0.71327829594E+02  0.00000000000E+00 0. -1.
         11    1    3    3    0    0 -0.52362566437E+01  0.25863746108E+02  0.14416321874E+03  0.14655847087E+03  0.00000000000E+00 0.  1.
<mgrwt>
<rscale>  0 0.12905270E+03</rscale>
<asrwt>0</asrwt>
<pdfrwt beam="1">  1        2 0.64906666E-01 0.13726409E+03</pdfrwt>
<pdfrwt beam="2">  1       -2 0.54934257E-02 0.13726409E+03</pdfrwt>
<totfact> 0.12091709E+04</totfact>
</mgrwt>
</event>
<event>
 7    1  0.1254976E-005  0.1297159E+03  0.7546771E-02  0.1242077E+00
          2   -1    0    0  501    0  0.00000000000E+00  0.00000000000E+00  0.58140381344E+03  0.58140381344E+03  0.00000000000E+00 0. -1.
         -2   -1    0    0    0  501 -0.00000000000E+00 -0.00000000000E+00 -0.25675743911E+02  0.25675743911E+02  0.00000000000E+00 0.  1.
         23    2    1    2    0    0  0.28322881403E+02 -0.20002241515E+02  0.35560805913E+03  0.36859637464E+03  0.90575495566E+02 0.  0.
          5    1    1    2  502    0  0.15770295476E+02 -0.32500304855E+02  0.12242072851E+02  0.38430851965E+02  0.47000000000E+01 0.  1.
         -5    1    1    2    0  502 -0.44093176879E+02  0.52502546370E+02  0.18787793755E+03  0.20005233075E+03  0.47000000000E+01 0.  1.
        -11    1    3    3    0    0  0.13119440563E+02  0.28486399458E+02  0.51698077733E+02  0.60467230100E+02  0.00000000000E+00 0.  1.
         11    1    3    3    0    0  0.15203440840E+02 -0.48488640973E+02  0.30390998140E+03  0.30812914453E+03  0.00000000000E+00 0. -1.
<mgrwt>
<rscale>  0 0.12062064E+03</rscale>
<asrwt>0</asrwt>
<pdfrwt beam="1">  1        2 0.89446731E-01 0.12971588E+03</pdfrwt>
<pdfrwt beam="2">  1       -2 0.39501149E-02 0.12971588E+03</pdfrwt>
<totfact> 0.13869292E+04</totfact>
</mgrwt>
</event>
<event>
 7    1  0.1254976E-005  0.1294826E+03  0.7546771E-02  0.1241468E+00
          2   -1    0    0  501    0  0.00000000000E+00  0.00000000000E+00  0.41967319166E+03  0.41967319166E+03  0.00000000000E+00 0. -1.
         -2   -1    0    0    0  501 -0.00000000000E+00 -0.00000000000E+00 -0.31179353640E+02  0.31179353640E+02  0.00000000000E+00 0.  1.
         23    2    1    2    0    0 -0.22229273560E+02  0.25432806669E+02  0.18405677498E+03  0.20886028176E+03  0.92761805829E+02 0.  0.
          5    1    1    2  502    0  0.26348746197E+02  0.48334971565E+02  0.80762212264E+02  0.97852699667E+02  0.47000000000E+01 0. -1.
         -5    1    1    2    0  502 -0.41194726368E+01 -0.73767778234E+02  0.12367485077E+03  0.14413956388E+03  0.47000000000E+01 0. -1.
        -11    1    3    3    0    0  0.34492411290E+02  0.23048257156E+02  0.67849735189E+02  0.79526946124E+02  0.00000000000E+00 0.  1.
         11    1    3    3    0    0 -0.56721684850E+02  0.23845495128E+01  0.11620703980E+03  0.12933333564E+03  0.00000000000E+00 0. -1.
<mgrwt>
<rscale>  0 0.12099301E+03</rscale>
<asrwt>0</asrwt>
<pdfrwt beam="1">  1        2 0.64565102E-01 0.12948260E+03</pdfrwt>
<pdfrwt beam="2">  1       -2 0.47968239E-02 0.12948260E+03</pdfrwt>
<totfact> 0.14840573E+04</totfact>
</mgrwt>
</event>
<event>
 7    1  0.1254976E-005  0.1324337E+03  0.7546771E-02  0.1236821E+00
          2   -1    0    0  501    0  0.00000000000E+00  0.00000000000E+00  0.16625893103E+03  0.16625893103E+03  0.00000000000E+00 0. -1.
         -2   -1    0    0    0  501 -0.00000000000E+00 -0.00000000000E+00 -0.89259957684E+02  0.89259957684E+02  0.00000000000E+00 0.  1.
         23    2    1    2    0    0  0.28513491743E+02 -0.33160441178E+02  0.69363568670E+02  0.12286529275E+03  0.91498313824E+02 0.  0.
          5    1    1    2  502    0 -0.42442467673E+02 -0.38999106762E+02  0.11285179945E+02  0.58921461937E+02  0.47000000000E+01 0.  1.
         -5    1    1    2    0  502  0.13928975930E+02  0.72159547941E+02 -0.36497752659E+01  0.73732134033E+02  0.47000000000E+01 0.  1.
        -11    1    3    3    0    0  0.45807484647E+02 -0.37709639621E+02  0.91269352174E+01  0.60030354959E+02  0.00000000000E+00 0.  1.
         11    1    3    3    0    0 -0.17293992904E+02  0.45491984429E+01  0.60236633453E+02  0.62834937787E+02  0.00000000000E+00 0. -1.
<mgrwt>
<rscale>  0 0.12388597E+03</rscale>
<asrwt>0</asrwt>
<pdfrwt beam="1">  1        2 0.25578297E-01 0.13243367E+03</pdfrwt>
<pdfrwt beam="2">  1       -2 0.13732301E-01 0.13243367E+03</pdfrwt>
<totfact> 0.78492688E+03</totfact>
</mgrwt>
</event>
<event>
 7    1  0.1254976E-005  0.1316677E+03  0.7546771E-02  0.1227778E+00
          1   -1    0    0  501    0  0.00000000000E+00  0.00000000000E+00  0.10005311670E+03  0.10005311670E+03  0.00000000000E+00 0. -1.
         -1   -1    0    0    0  501 -0.00000000000E+00 -0.00000000000E+00 -0.16462641329E+03  0.16462641329E+03  0.00000000000E+00 0.  1.
         23    2    1    2    0    0 -0.12961939420E+02 -0.57585254542E+02 -0.41302438697E+02  0.13097116210E+03  0.10937769629E+03 0.  0.
          5    1    1    2  502    0 -0.44274277693E+02  0.46868287987E+00  0.10834295340E+02  0.45824701684E+02  0.47000000000E+01 0. -1.
         -5    1    1    2    0  502  0.57236217113E+02  0.57116571662E+02 -0.34105153240E+02  0.87883666204E+02  0.47000000000E+01 0.  1.
        -11    1    3    3    0    0  0.29843869833E+02  0.19076053802E+02 -0.19783053912E+02  0.40569959543E+02  0.00000000000E+00 0.  1.
         11    1    3    3    0    0 -0.42805809253E+02 -0.76661308344E+02 -0.21519384786E+02  0.90401202560E+02  0.00000000000E+00 0. -1.
<mgrwt>
<rscale>  0 0.12978276E+03</rscale>
<asrwt>0</asrwt>
<pdfrwt beam="1">  1        1 0.15392787E-01 0.13166774E+03</pdfrwt>
<pdfrwt beam="2">  1       -1 0.25327141E-01 0.13166774E+03</pdfrwt>
<totfact> 0.46793699E+03</totfact>
</mgrwt>
</event>
<event>
 7    1  0.1254976E-005  0.2333704E+03  0.7546771E-02  0.1127129E+00
          2   -1    0    0  501    0  0.00000000000E+00  0.00000000000E+00  0.59012414132E+03  0.59012414132E+03  0.00000000000E+00 0. -1.
         -2   -1    0    0    0  501 -0.00000000000E+00 -0.00000000000E+00 -0.95254957553E+02  0.95254957553E+02  0.00000000000E+00 0.  1.
         23    2    1    2    0    0 -0.64384909174E+01 -0.19699840410E+03  0.34556749072E+03  0.40833623855E+03  0.92042206013E+02 0.  0.
          5    1    1    2  502    0  0.17416106172E+02  0.20973097691E+03  0.11831243423E+03  0.24147531037E+03  0.47000000000E+01 0. -1.
         -5    1    1    2    0  502 -0.10977615255E+02 -0.12732572809E+02  0.30989258824E+02  0.35567549951E+02  0.47000000000E+01 0. -1.
        -11    1    3    3    0    0  0.41295836646E+02 -0.11393167836E+03  0.17854530020E+03  0.21578739000E+03  0.00000000000E+00 0.  1.
         11    1    3    3    0    0 -0.47734327564E+02 -0.83066725738E+02  0.16702219052E+03  0.19254884855E+03  0.00000000000E+00 0. -1.
<mgrwt>
<rscale>  0 0.22930671E+03</rscale>
<asrwt>0</asrwt>
<pdfrwt beam="1">  1        2 0.90788327E-01 0.23337042E+03</pdfrwt>
<pdfrwt beam="2">  1       -2 0.14654609E-01 0.23337042E+03</pdfrwt>
<totfact> 0.18247865E+03</totfact>
</mgrwt>
</event>
<event>
 7    1  0.1254976E-005  0.1283455E+03  0.7546771E-02  0.1245342E+00
          1   -1    0    0  501    0  0.00000000000E+00  0.00000000000E+00  0.12458520992E+03  0.12458520992E+03  0.00000000000E+00 0. -1.
         -1   -1    0    0    0  501 -0.00000000000E+00 -0.00000000000E+00 -0.29915249451E+03  0.29915249451E+03  0.00000000000E+00 0.  1.
         23    2    1    2    0    0  0.16605467590E+02  0.23873449985E+02  0.89832395529E+02  0.12983338084E+03  0.89113210719E+02 0.  0.
          5    1    1    2  502    0 -0.29964108906E+02  0.61119160153E+00 -0.24537487615E+01  0.30435707002E+02  0.47000000000E+01 0.  1.
         -5    1    1    2    0  502  0.13358641316E+02 -0.24484641586E+02 -0.26194593136E+03  0.26346861659E+03  0.47000000000E+01 0.  1.
        -11    1    3    3    0    0  0.35252889392E+02  0.22227705729E+02  0.38681754221E+01  0.41854508641E+02  0.00000000000E+00 0.  1.
         11    1    3    3    0    0 -0.18647421802E+02  0.16457442553E+01  0.85964220107E+02  0.87978872194E+02  0.00000000000E+00 0. -1.
<mgrwt>
<rscale>  0 0.11864913E+03</rscale>
<asrwt>0</asrwt>
<pdfrwt beam="1">  1        1 0.19166955E-01 0.12834547E+03</pdfrwt>
<pdfrwt beam="2">  1       -1 0.46023461E-01 0.12834547E+03</pdfrwt>
<totfact> 0.12693480E+03</totfact>
</mgrwt>
</event>
<event>
 7    1  0.1254976E-005  0.1877054E+03  0.7546771E-02  0.1165576E+00
          1   -1    0    0  501    0  0.00000000000E+00  0.00000000000E+00  0.27362780997E+03  0.27362780997E+03  0.00000000000E+00 0. -1.
         -1   -1    0    0    0  501 -0.00000000000E+00 -0.00000000000E+00 -0.11515762624E+03  0.11515762624E+03  0.00000000000E+00 0.  1.
         23    2    1    2    0    0  0.89169846598E+02 -0.10797017343E+03  0.81818430684E+02  0.18603236380E+03  0.91131580081E+02 0.  0.
          5    1    1    2  502    0 -0.29175680408E+02  0.12150841173E+03  0.60900757238E+02  0.13909172039E+03  0.47000000000E+01 0.  1.
         -5    1    1    2    0  502 -0.59994166191E+02 -0.13538238301E+02  0.15750995810E+02  0.63661352029E+02  0.47000000000E+01 0.  1.
        -11    1    3    3    0    0  0.25645340680E+02 -0.85808457425E+02  0.14259026707E+02  0.90686794557E+02  0.00000000000E+00 0.  1.
         11    1    3    3    0    0  0.63524505918E+02 -0.22161716005E+02  0.67559403977E+02  0.95345569242E+02  0.00000000000E+00 0. -1.
<mgrwt>
<rscale>  0 0.18232025E+03</rscale>
<asrwt>0</asrwt>
<pdfrwt beam="1">  1        1 0.42096586E-01 0.18770540E+03</pdfrwt>
<pdfrwt beam="2">  1       -1 0.17716558E-01 0.18770540E+03</pdfrwt>
<totfact> 0.23850456E+03</totfact>
</mgrwt>
</event>
<event>
 7    1  0.1254976E-005  0.2084536E+03  0.7546771E-02  0.1146611E+00
          2   -1    0    0  501    0  0.00000000000E+00  0.00000000000E+00  0.28429938400E+03  0.28429938400E+03  0.00000000000E+00 0. -1.
         -2   -1    0    0    0  501 -0.00000000000E+00 -0.00000000000E+00 -0.31449554460E+03  0.31449554460E+03  0.00000000000E+00 0.  1.
         23    2    1    2    0    0 -0.15596329456E+03  0.59202794072E+02  0.20824483291E+03  0.28208208313E+03  0.91514321897E+02 0.  0.
          5    1    1    2  502    0  0.14187694443E+02 -0.43794748701E+01  0.14690985610E+02  0.21409940027E+02  0.47000000000E+01 0.  1.
         -5    1    1    2    0  502  0.14177560012E+03 -0.54823319202E+02 -0.25313197911E+03  0.29530290545E+03  0.47000000000E+01 0.  1.
        -11    1    3    3    0    0 -0.14417973821E+03  0.80960067748E+02  0.18508371184E+03  0.24819006804E+03  0.00000000000E+00 0.  1.
         11    1    3    3    0    0 -0.11783556344E+02 -0.21757273676E+02  0.23161121064E+02  0.33892015090E+02  0.00000000000E+00 0. -1.
<mgrwt>
<rscale>  0 0.20375218E+03</rscale>
<asrwt>0</asrwt>
<pdfrwt beam="1">  1        2 0.43738367E-01 0.20845364E+03</pdfrwt>
<pdfrwt beam="2">  1       -2 0.48383930E-01 0.20845364E+03</pdfrwt>
<totfact> 0.47767365E+02</totfact>
</mgrwt>
</event>
<event>
 7    1  0.1254976E-005  0.2613042E+03  0.7546771E-02  0.1108543E+00
         -1   -1    0    0    0  501 -0.00000000000E+00  0.00000000000E+00  0.22867855160E+03  0.22867855160E+03  0.00000000000E+00 0.  1.
          1   -1    0    0  501    0  0.00000000000E+00 -0.00000000000E+00 -0.28842305140E+03  0.28842305140E+03  0.00000000000E+00 0. -1.
         23    2    1    2    0    0  0.11276702522E+03  0.19984689085E+03  0.76727753685E+01  0.24724055430E+03  0.91726977752E+02 0.  0.
          5    1    1    2  502    0  0.73809238423E+01 -0.57371913024E+02  0.23289599794E+02  0.62534069909E+02  0.47000000000E+01 0.  1.
         -5    1    1    2    0  502 -0.12014794906E+03 -0.14247497783E+03 -0.90706874956E+02  0.20732697879E+03  0.47000000000E+01 0.  1.
        -11    1    3    3    0    0  0.78704985118E+02  0.19758357379E+03  0.10829261871E+02  0.21295778039E+03  0.00000000000E+00 0. -1.
         11    1    3    3    0    0  0.34062040100E+02  0.22633170600E+01 -0.31564865024E+01  0.34282773910E+02  0.00000000000E+00 0.  1.
<mgrwt>
<rscale>  0 0.25768399E+03</rscale>
<asrwt>0</asrwt>
<pdfrwt beam="2">  1        1 0.44372777E-01 0.26130422E+03</pdfrwt>
<pdfrwt beam="1">  1       -1 0.35181316E-01 0.26130422E+03</pdfrwt>
<totfact> 0.71600325E+02</totfact>
</mgrwt>
</event>
<event>
 7    1  0.1254976E-005  0.1753486E+03  0.7546771E-02  0.1178283E+00
          2   -1    0    0  501    0  0.00000000000E+00  0.00000000000E+00  0.81631124118E+03  0.81631124118E+03  0.00000000000E+00 0. -1.
         -2   -1    0    0    0  501 -0.00000000000E+00 -0.00000000000E+00 -0.33370323769E+02  0.33370323769E+02  0.00000000000E+00 0.  1.
         23    2    1    2    0    0  0.72314802164E+02 -0.99465668964E+02  0.40377150113E+03  0.43192973214E+03  0.91700700456E+02 0.  0.
          5    1    1    2  502    0 -0.76601487335E+02  0.12346071121E+03  0.35259573952E+03  0.38138717939E+03  0.47000000000E+01 0. -1.
         -5    1    1    2    0  502  0.42866851702E+01 -0.23995042242E+02  0.26573676753E+02  0.36364653417E+02  0.47000000000E+01 0. -1.
        -11    1    3    3    0    0 -0.11938924943E+02 -0.55456265329E+02  0.18227478532E+03  0.19089796400E+03  0.00000000000E+00 0. -1.
         11    1    3    3    0    0  0.84253727108E+02 -0.44009403635E+02  0.22149671581E+03  0.24103176815E+03  0.00000000000E+00 0.  1.
<mgrwt>
<rscale>  0 0.16958361E+03</rscale>
<asrwt>0</asrwt>
<pdfrwt beam="1">  1        2 0.12558633E+00 0.17534865E+03</pdfrwt>
<pdfrwt beam="2">  1       -2 0.51338966E-02 0.17534865E+03</pdfrwt>
<totfact> 0.63668575E+03</totfact>
</mgrwt>
</event>
<event>
 7    1  0.1254976E-005  0.2067811E+03  0.7546771E-02  0.1148002E+00
         -3   -1    0    0    0  501 -0.00000000000E+00  0.00000000000E+00  0.91336648963E+03  0.91336648963E+03  0.00000000000E+00 0.  1.
          3   -1    0    0  501    0  0.00000000000E+00 -0.00000000000E+00 -0.42830144976E+02  0.42830144976E+02  0.00000000000E+00 0. -1.
         23    2    1    2    0    0  0.50130988538E+02 -0.15690761484E+03  0.39957501636E+03  0.44183976371E+03  0.91809953119E+02 0.  0.
          5    1    1    2  502    0 -0.14426925997E+02 -0.19671625084E+02  0.81886299467E+02  0.85571987633E+02  0.47000000000E+01 0.  1.
         -5    1    1    2    0  502 -0.35704062541E+02  0.17657923993E+03  0.38907502883E+03  0.42878488326E+03  0.47000000000E+01 0.  1.
        -11    1    3    3    0    0 -0.85015856563E+00 -0.80193993830E+02  0.98664197329E+02  0.12714725027E+03  0.00000000000E+00 0. -1.
         11    1    3    3    0    0  0.50981147103E+02 -0.76713621012E+02  0.30091081903E+03  0.31469251345E+03  0.00000000000E+00 0.  1.
<mgrwt>
<rscale>  0 0.20207224E+03</rscale>
<asrwt>0</asrwt>
<pdfrwt beam="2">  1        3 0.65892538E-02 0.20678109E+03</pdfrwt>
<pdfrwt beam="1">  1       -3 0.14051791E+00 0.20678109E+03</pdfrwt>
<totfact> 0.14457359E+02</totfact>
</mgrwt>
</event>
<event>
 7    1  0.1254976E-005  0.1250630E+03  0.7546771E-02  0.1250912E+00
          1   -1    0    0  501    0  0.00000000000E+00  0.00000000000E+00  0.26957173080E+03  0.26957173080E+03  0.00000000000E+00 0. -1.
         -1   -1    0    0    0  501 -0.00000000000E+00 -0.00000000000E+00 -0.43468210213E+02  0.43468210213E+02  0.00000000000E+00 0.  1.
         23    2    1    2    0    0 -0.28967638429E+01  0.29714860239E+01  0.10856551438E+03  0.14141258489E+03  0.90519761831E+02 0.  0.
          5    1    1    2  502    0 -0.17085495639E+02 -0.30986341907E+02  0.12993628652E+03  0.13475012468E+03  0.47000000000E+01 0.  1.
         -5    1    1    2    0  502  0.19982259482E+02  0.28014855883E+02 -0.12398280317E+02  0.36877231444E+02  0.47000000000E+01 0.  1.
        -11    1    3    3    0    0  0.30295774055E+02 -0.28442404920E+02  0.32838080080E+02  0.52963608511E+02  0.00000000000E+00 0.  1.
         11    1    3    3    0    0 -0.33192537898E+02  0.31413890944E+02  0.75727434298E+02  0.88448976374E+02  0.00000000000E+00 0. -1.
<mgrwt>
<rscale>  0 0.11538426E+03</rscale>
<asrwt>0</asrwt>
<pdfrwt beam="1">  1        1 0.41472573E-01 0.12506305E+03</pdfrwt>
<pdfrwt beam="2">  1       -1 0.66874171E-02 0.12506305E+03</pdfrwt>
<totfact> 0.10659340E+04</totfact>
</mgrwt>
</event>
<event>
 7    1  0.1254976E-005  0.6165122E+03  0.7546771E-02  0.1040496E+00
         -2   -1    0    0    0  501 -0.00000000000E+00  0.00000000000E+00  0.43141962292E+03  0.43141962292E+03  0.00000000000E+00 0.  1.
          2   -1    0    0  501    0  0.00000000000E+00 -0.00000000000E+00 -0.38454522861E+03  0.38454522861E+03  0.00000000000E+00 0. -1.
         23    2    1    2    0    0  0.14941151593E+02 -0.78392424036E+02 -0.12757272495E+03  0.17524719028E+03  0.89822978096E+02 0.  0.
          5    1    1    2  502    0 -0.23310551667E+03  0.94329813836E+02 -0.11608853405E+03  0.27701070994E+03  0.47000000000E+01 0. -1.
         -5    1    1    2    0  502  0.21816436508E+03 -0.15937389800E+02  0.29053565332E+03  0.36370695131E+03  0.47000000000E+01 0.  1.
        -11    1    3    3    0    0 -0.27274444015E+02 -0.72577506709E+02 -0.83146339304E+02  0.11368686607E+03  0.00000000000E+00 0. -1.
         11    1    3    3    0    0  0.42215595609E+02 -0.58149173269E+01 -0.44426385644E+02  0.61560324215E+02  0.00000000000E+00 0.  1.
<mgrwt>
<rscale>  0 0.40962839E+03</rscale>
<asrwt>0</asrwt>
<pdfrwt beam="2">  1        2 0.59160804E-01 0.61651223E+03</pdfrwt>
<pdfrwt beam="1">  1       -2 0.66372250E-01 0.61651223E+03</pdfrwt>
<totfact> 0.17611827E+02</totfact>
</mgrwt>
</event>
<event>
 7    1  0.1254976E-005  0.1754323E+03  0.7546771E-02  0.1183014E+00
         -1   -1    0    0    0  501 -0.00000000000E+00  0.00000000000E+00  0.34097729943E+03  0.34097729943E+03  0.00000000000E+00 0.  1.
          1   -1    0    0  501    0  0.00000000000E+00 -0.00000000000E+00 -0.72692672738E+02  0.72692672738E+02  0.00000000000E+00 0. -1.
         23    2    1    2    0    0  0.10823274450E+03  0.58588502314E+02  0.96859127324E+02  0.16838813290E+03  0.61854128165E+02 0.  0.
          5    1    1    2  502    0 -0.90649268301E+02 -0.26206241539E+02  0.30101937714E+02  0.99157821645E+02  0.47000000000E+01 0.  1.
         -5    1    1    2    0  502 -0.17583476194E+02 -0.32382260775E+02  0.14132356165E+03  0.14612401762E+03  0.47000000000E+01 0.  1.
        -11    1    3    3    0    0  0.51908870750E+02 -0.57558658492E+01  0.37099154346E+02  0.64062532790E+02  0.00000000000E+00 0.  1.
         11    1    3    3    0    0  0.56323873746E+02  0.64344368163E+02  0.59759972978E+02  0.10432560011E+03  0.00000000000E+00 0. -1.
<mgrwt>
<rscale>  0 0.16513865E+03</rscale>
<asrwt>0</asrwt>
<pdfrwt beam="2">  1        1 0.11183488E-01 0.17543226E+03</pdfrwt>
<pdfrwt beam="1">  1       -1 0.52458045E-01 0.17543226E+03</pdfrwt>
<totfact> 0.20351015E+03</totfact>
</mgrwt>
</event>
<event>
 7    1  0.1254976E-005  0.1270558E+03  0.7546771E-02  0.1246653E+00
         -2   -1    0    0    0  501 -0.00000000000E+00  0.00000000000E+00  0.28931837652E+03  0.28931837652E+03  0.00000000000E+00 0.  1.
          2   -1    0    0  501    0  0.00000000000E+00 -0.00000000000E+00 -0.45208189617E+02  0.45208189617E+02  0.00000000000E+00 0. -1.
         23    2    1    2    0    0  0.43576942743E+00 -0.22776434945E+02  0.62831362279E+02  0.11315540103E+03  0.91309412511E+02 0.  0.
          5    1    1    2  502    0  0.59463246067E+02  0.29590736930E+02  0.95679048610E+02  0.11656783299E+03  0.47000000000E+01 0.  1.
         -5    1    1    2    0  502 -0.59899015494E+02 -0.68143019850E+01  0.85599776011E+02  0.10480333211E+03  0.47000000000E+01 0.  1.
        -11    1    3    3    0    0 -0.33616292027E+02  0.17296560653E+02  0.11129192879E+02  0.39409199868E+02  0.00000000000E+00 0. -1.
         11    1    3    3    0    0  0.34052061455E+02 -0.40072995598E+02  0.51702169400E+02  0.73746201164E+02  0.00000000000E+00 0.  1.
<mgrwt>
<rscale>  0 0.11786988E+03</rscale>
<asrwt>0</asrwt>
<pdfrwt beam="2">  1        2 0.69551063E-02 0.12705582E+03</pdfrwt>
<pdfrwt beam="1">  1       -2 0.44510518E-01 0.12705582E+03</pdfrwt>
<totfact> 0.46635586E+03</totfact>
</mgrwt>
</event>
<event>
 7    1  0.1254976E-005  0.2975495E+03  0.7546771E-02  0.1088098E+00
         -2   -1    0    0    0  501 -0.00000000000E+00  0.00000000000E+00  0.17626278065E+03  0.17626278065E+03  0.00000000000E+00 0.  1.
          2   -1    0    0  501    0  0.00000000000E+00 -0.00000000000E+00 -0.49228631520E+03  0.49228631520E+03  0.00000000000E+00 0. -1.
         23    2    1    2    0    0 -0.12199485811E+03  0.24090109880E+03 -0.20465787543E+03  0.35084162295E+03  0.91043470995E+02 0.  0.
          5    1    1    2  502    0  0.92428342676E+02 -0.84360905670E+02 -0.35305882824E+01  0.12527695713E+03  0.47000000000E+01 0.  1.
         -5    1    1    2    0  502  0.29566515435E+02 -0.15654019313E+03 -0.10783507083E+03  0.19243051577E+03  0.47000000000E+01 0.  1.
        -11    1    3    3    0    0 -0.74842069859E+02  0.10430038702E+03 -0.14723467317E+03  0.19534061313E+03  0.00000000000E+00 0. -1.
         11    1    3    3    0    0 -0.47152788252E+02  0.13660071178E+03 -0.57423202261E+02  0.15550100982E+03  0.00000000000E+00 0.  1.
<mgrwt>
<rscale>  0 0.29435221E+03</rscale>
<asrwt>0</asrwt>
<pdfrwt beam="2">  1        2 0.75736355E-01 0.29754954E+03</pdfrwt>
<pdfrwt beam="1">  1       -2 0.27117351E-01 0.29754954E+03</pdfrwt>
<totfact> 0.78082773E+02</totfact>
</mgrwt>
</event>
<event>
 7    1  0.1254976E-005  0.1422970E+03  0.7546771E-02  0.1220404E+00
          2   -1    0    0  501    0  0.00000000000E+00  0.00000000000E+00  0.18632356759E+02  0.18632356759E+02  0.00000000000E+00 0. -1.
         -2   -1    0    0    0  501 -0.00000000000E+00 -0.00000000000E+00 -0.91177122333E+03  0.91177122333E+03  0.00000000000E+00 0.  1.
         23    2    1    2    0    0 -0.58244430960E+02  0.35085347997E+02 -0.32408140902E+03  0.34382465820E+03  0.92537778963E+02 0.  0.
          5    1    1    2  502    0  0.89456454119E+02 -0.37031422601E+01 -0.27697069776E+03  0.29112029793E+03  0.47000000000E+01 0. -1.
         -5    1    1    2    0  502 -0.31212023159E+02 -0.31382205737E+02 -0.29208675979E+03  0.29545862396E+03  0.47000000000E+01 0. -1.
        -11    1    3    3    0    0  0.16357350682E+02  0.36464131784E+02 -0.10236756904E+03  0.10989228826E+03  0.00000000000E+00 0.  1.
         11    1    3    3    0    0 -0.74601781642E+02 -0.13787837866E+01 -0.22171383998E+03  0.23393236994E+03  0.00000000000E+00 0. -1.
<mgrwt>
<rscale>  0 0.13486946E+03</rscale>
<asrwt>0</asrwt>
<pdfrwt beam="1">  1        2 0.28665172E-02 0.14229702E+03</pdfrwt>
<pdfrwt beam="2">  1       -2 0.14027246E+00 0.14229702E+03</pdfrwt>
<totfact> 0.12154323E+03</totfact>
</mgrwt>
</event>
<event>
 7    1  0.1254976E-005  0.1391828E+03  0.7546771E-02  0.1226051E+00
          1   -1    0    0  501    0  0.00000000000E+00  0.00000000000E+00  0.31427472929E+03  0.31427472929E+03  0.00000000000E+00 0. -1.
         -1   -1    0    0    0  501 -0.00000000000E+00 -0.00000000000E+00 -0.52898409148E+02  0.52898409148E+02  0.00000000000E+00 0.  1.
         23    2    1    2    0    0  0.48325962109E+02 -0.37620935555E+02  0.16534721846E+03  0.19807717467E+03  0.90244839553E+02 0.  0.
          5    1    1    2  502    0  0.34094077390E+02 -0.20744976698E+01 -0.24931074169E+01  0.34568992439E+02  0.47000000000E+01 0. -1.
         -5    1    1    2    0  502 -0.82420039499E+02  0.39695433225E+02  0.98522209102E+02  0.13452697133E+03  0.47000000000E+01 0. -1.
        -11    1    3    3    0    0  0.29869043831E+02  0.77573639436E+01  0.60892142932E+01  0.31454967897E+02  0.00000000000E+00 0.  1.
         11    1    3    3    0    0  0.18456918278E+02 -0.45378299499E+02  0.15925800417E+03  0.16662220677E+03  0.00000000000E+00 0. -1.
<mgrwt>
<rscale>  0 0.13095110E+03</rscale>
<asrwt>0</asrwt>
<pdfrwt beam="1">  1        1 0.48349957E-01 0.13918282E+03</pdfrwt>
<pdfrwt beam="2">  1       -1 0.81382170E-02 0.13918282E+03</pdfrwt>
<totfact> 0.66169202E+03</totfact>
</mgrwt>
</event>
<event>
 7    1  0.1254976E-005  0.1335712E+03  0.7546771E-02  0.1234765E+00
          4   -1    0    0  501    0  0.00000000000E+00  0.00000000000E+00  0.10624762568E+03  0.10624762568E+03  0.00000000000E+00 0. -1.
         -4   -1    0    0    0  501 -0.00000000000E+00 -0.00000000000E+00 -0.13226920987E+03  0.13226920987E+03  0.00000000000E+00 0.  1.
         23    2    1    2    0    0  0.24237670259E+02 -0.40345594431E+02 -0.18491760400E+02  0.10473352757E+03  0.91716601252E+02 0.  0.
          5    1    1    2  502    0 -0.43252970772E+02  0.69763255664E+02  0.24807853239E+02  0.85879280993E+02  0.47000000000E+01 0. -1.
         -5    1    1    2    0  502  0.19015300514E+02 -0.29417661234E+02 -0.32337677029E+02  0.47904026989E+02  0.47000000000E+01 0. -1.
        -11    1    3    3    0    0  0.30791439156E+02 -0.83848396517E+01 -0.50039523280E+02  0.59349575832E+02  0.00000000000E+00 0.  1.
         11    1    3    3    0    0 -0.65537688970E+01 -0.31960754779E+02  0.31547762880E+02  0.45383951740E+02  0.00000000000E+00 0. -1.
<mgrwt>
<rscale>  0 0.12519497E+03</rscale>
<asrwt>0</asrwt>
<pdfrwt beam="1">  1        4 0.16345789E-01 0.13357124E+03</pdfrwt>
<pdfrwt beam="2">  1       -4 0.20349109E-01 0.13357124E+03</pdfrwt>
<totfact> 0.11638480E+03</totfact>
</mgrwt>
</event>
<event>
 7    1  0.1254976E-005  0.1662467E+03  0.7546771E-02  0.1188336E+00
         -2   -1    0    0    0  501 -0.00000000000E+00  0.00000000000E+00  0.28503919305E+03  0.28503919305E+03  0.00000000000E+00 0.  1.
          2   -1    0    0  501    0  0.00000000000E+00 -0.00000000000E+00 -0.87846974544E+02  0.87846974544E+02  0.00000000000E+00 0. -1.
         23    2    1    2    0    0  0.17184991993E+01  0.10958936950E+03  0.54371834945E+02  0.15371583202E+03  0.93056313227E+02 0.  0.
          5    1    1    2  502    0 -0.14774247119E+02 -0.19606603044E+02 -0.20406663965E+02  0.32267928274E+02  0.47000000000E+01 0.  1.
         -5    1    1    2    0  502  0.13055747920E+02 -0.89982766451E+02  0.16322704752E+03  0.18690240730E+03  0.47000000000E+01 0.  1.
        -11    1    3    3    0    0 -0.86961359052E+01  0.12442579000E+03  0.41380929219E+02  0.13141453991E+03  0.00000000000E+00 0. -1.
         11    1    3    3    0    0  0.10414635104E+02 -0.14836420508E+02  0.12990905726E+02  0.22301292103E+02  0.00000000000E+00 0.  1.
<mgrwt>
<rscale>  0 0.16032023E+03</rscale>
<asrwt>0</asrwt>
<pdfrwt beam="2">  1        2 0.13514919E-01 0.16624673E+03</pdfrwt>
<pdfrwt beam="1">  1       -2 0.43852183E-01 0.16624673E+03</pdfrwt>
<totfact> 0.21509156E+03</totfact>
</mgrwt>
</event>
<event>
 7    1  0.1254976E-005  0.3231236E+03  0.7546771E-02  0.1075723E+00
         -2   -1    0    0    0  501 -0.00000000000E+00  0.00000000000E+00  0.15151485785E+03  0.15151485785E+03  0.00000000000E+00 0.  1.
          2   -1    0    0  501    0  0.00000000000E+00 -0.00000000000E+00 -0.75659437008E+03  0.75659437008E+03  0.00000000000E+00 0. -1.
         23    2    1    2    0    0  0.27101697956E+03  0.11996490146E+03 -0.45783009410E+03  0.55301594608E+03  0.91523006745E+02 0.  0.
          5    1    1    2  502    0 -0.23188650028E+03 -0.14482689213E+03 -0.14225406863E+03  0.30822798014E+03  0.47000000000E+01 0. -1.
         -5    1    1    2    0  502 -0.39130479274E+02  0.24861990671E+02 -0.49953494999E+01  0.46865301716E+02  0.47000000000E+01 0. -1.
        -11    1    3    3    0    0  0.14009463003E+03  0.10255819167E+03 -0.30560672246E+03  0.35148279738E+03  0.00000000000E+00 0.  1.
         11    1    3    3    0    0  0.13092234953E+03  0.17406709797E+02 -0.15222337164E+03  0.20153314870E+03  0.00000000000E+00 0. -1.
<mgrwt>
<rscale>  0 0.31984065E+03</rscale>
<asrwt>0</asrwt>
<pdfrwt beam="2">  1        2 0.11639913E+00 0.32312358E+03</pdfrwt>
<pdfrwt beam="1">  1       -2 0.23309979E-01 0.32312358E+03</pdfrwt>
<totfact> 0.61408220E+02</totfact>
</mgrwt>
</event>
<event>
 7    1  0.1254976E-005  0.1301185E+03  0.7546771E-02  0.1241416E+00
         -2   -1    0    0    0  501 -0.00000000000E+00  0.00000000000E+00  0.11104810135E+03  0.11104810135E+03  0.00000000000E+00 0.  1.
          2   -1    0    0  501    0  0.00000000000E+00 -0.00000000000E+00 -0.12308272779E+03  0.12308272779E+03  0.00000000000E+00 0. -1.
         23    2    1    2    0    0  0.27126246663E+02 -0.23871306239E+02 -0.31964072363E+02  0.10249498747E+03  0.90431454788E+02 0.  0.
          5    1    1    2  502    0  0.45666200215E+01  0.66249677693E+02  0.36580030271E+02  0.75960926979E+02  0.47000000000E+01 0.  1.
         -5    1    1    2    0  502 -0.31692866684E+02 -0.42378371455E+02 -0.16650584346E+02  0.55674914682E+02  0.47000000000E+01 0.  1.
        -11    1    3    3    0    0  0.27044488136E+02  0.28380831780E+02 -0.31419361205E+02  0.50239946353E+02  0.00000000000E+00 0.  1.
         11    1    3    3    0    0  0.81758526855E-01 -0.52252138019E+02 -0.54471115857E+00  0.52255041118E+02  0.00000000000E+00 0. -1.
<mgrwt>
<rscale>  0 0.12102508E+03</rscale>
<asrwt>0</asrwt>
<pdfrwt beam="2">  1        2 0.18935804E-01 0.13011845E+03</pdfrwt>
<pdfrwt beam="1">  1       -2 0.17084323E-01 0.13011845E+03</pdfrwt>
<totfact> 0.76723932E+03</totfact>
</mgrwt>
</event>
<event>
 7    1  0.1254976E-005  0.1418293E+03  0.7546771E-02  0.1217474E+00
          1   -1    0    0  501    0  0.00000000000E+00  0.00000000000E+00  0.42811121294E+03  0.42811121294E+03  0.00000000000E+00 0. -1.
         -1   -1    0    0    0  501 -0.00000000000E+00 -0.00000000000E+00 -0.43125800159E+02  0.43125800159E+02  0.00000000000E+00 0.  1.
         23    2    1    2    0    0  0.62826257217E+02 -0.23320443071E+02  0.23113483172E+03  0.26198707225E+03  0.10355160033E+03 0.  0.
          5    1    1    2  502    0 -0.48326988822E+02 -0.34691473507E+02  0.20614585557E+02  0.63135151226E+02  0.47000000000E+01 0. -1.
         -5    1    1    2    0  502 -0.14499268396E+02  0.58011916578E+02  0.13323599551E+03  0.14611478963E+03  0.47000000000E+01 0. -1.
        -11    1    3    3    0    0  0.42049841037E+02  0.28557938147E+01  0.22384969827E+03  0.22778286174E+03  0.00000000000E+00 0. -1.
         11    1    3    3    0    0  0.20776416180E+02 -0.26176236886E+02  0.72851334521E+01  0.34204210504E+02  0.00000000000E+00 0.  1.
<mgrwt>
<rscale>  0 0.13696339E+03</rscale>
<asrwt>0</asrwt>
<pdfrwt beam="1">  1        1 0.65863261E-01 0.14182925E+03</pdfrwt>
<pdfrwt beam="2">  1       -1 0.66347388E-02 0.14182925E+03</pdfrwt>
<totfact> 0.61122762E+03</totfact>
</mgrwt>
</event>
<event>
 7    1  0.1254976E-005  0.1660216E+03  0.7546771E-02  0.1188993E+00
         -1   -1    0    0    0  501 -0.00000000000E+00  0.00000000000E+00  0.11473744893E+03  0.11473744893E+03  0.00000000000E+00 0.  1.
          1   -1    0    0  501    0  0.00000000000E+00 -0.00000000000E+00 -0.20763551606E+03  0.20763551606E+03  0.00000000000E+00 0. -1.
         23    2    1    2    0    0  0.17709656481E+02 -0.10781476530E+03 -0.51047689916E+02  0.15115779340E+03  0.91132630332E+02 0.  0.
          5    1    1    2  502    0 -0.60970555176E+02  0.28525298969E+02  0.79857863568E+01  0.67948245477E+02  0.47000000000E+01 0. -1.
         -5    1    1    2    0  502  0.43260898695E+02  0.79289466331E+02 -0.49836163571E+02  0.10326692610E+03  0.47000000000E+01 0. -1.
        -11    1    3    3    0    0  0.46432528507E+01 -0.94168162732E+02 -0.75124889386E+02  0.12055269252E+03  0.00000000000E+00 0.  1.
         11    1    3    3    0    0  0.13066403630E+02 -0.13646602568E+02  0.24077199470E+02  0.30605100879E+02  0.00000000000E+00 0. -1.
<mgrwt>
<rscale>  0 0.15973767E+03</rscale>
<asrwt>0</asrwt>
<pdfrwt beam="2">  1        1 0.31943925E-01 0.16602163E+03</pdfrwt>
<pdfrwt beam="1">  1       -1 0.17651915E-01 0.16602163E+03</pdfrwt>
<totfact> 0.33685930E+03</totfact>
</mgrwt>
</event>
<event>
 7    1  0.1254976E-005  0.1616379E+03  0.7546771E-02  0.1194064E+00
         -1   -1    0    0    0  501 -0.00000000000E+00  0.00000000000E+00  0.83955048349E+02  0.83955048349E+02  0.00000000000E+00 0.  1.
          1   -1    0    0  501    0  0.00000000000E+00 -0.00000000000E+00 -0.26742828915E+03  0.26742828915E+03  0.00000000000E+00 0. -1.
         23    2    1    2    0    0 -0.38499322191E+02  0.94972167333E+02 -0.90378328876E+02  0.16485328497E+03  0.92230433476E+02 0.  0.
          5    1    1    2  502    0 -0.10508998858E+02 -0.10965772098E+03 -0.63238932639E+02  0.12710825083E+03  0.47000000000E+01 0. -1.
         -5    1    1    2    0  502  0.49008321049E+02  0.14685553646E+02 -0.29855979286E+02  0.59421801698E+02  0.47000000000E+01 0. -1.
        -11    1    3    3    0    0  0.25573140812E+02  0.13152756596E+02 -0.40264982365E+02  0.49479787206E+02  0.00000000000E+00 0. -1.
         11    1    3    3    0    0 -0.64072463003E+02  0.81819410737E+02 -0.50113346511E+02  0.11537349777E+03  0.00000000000E+00 0.  1.
<mgrwt>
<rscale>  0 0.15533718E+03</rscale>
<asrwt>0</asrwt>
<pdfrwt beam="2">  1        1 0.41142814E-01 0.16163786E+03</pdfrwt>
<pdfrwt beam="1">  1       -1 0.12916161E-01 0.16163786E+03</pdfrwt>
<totfact> 0.40164058E+03</totfact>
</mgrwt>
</event>
<event>
 7    1  0.1254976E-005  0.1821726E+03  0.7546771E-02  0.1171020E+00
          2   -1    0    0  501    0  0.00000000000E+00  0.00000000000E+00  0.46855868635E+03  0.46855868635E+03  0.00000000000E+00 0. -1.
         -2   -1    0    0    0  501 -0.00000000000E+00 -0.00000000000E+00 -0.67877587251E+02  0.67877587251E+02  0.00000000000E+00 0.  1.
         23    2    1    2    0    0 -0.13237708223E+03  0.62601660128E+01  0.26121516291E+03  0.30700742780E+03  0.91963676587E+02 0.  0.
          5    1    1    2  502    0  0.20577780167E+02 -0.55743639844E+02  0.40508158258E+02  0.72068018601E+02  0.47000000000E+01 0.  1.
         -5    1    1    2    0  502  0.11179930206E+03  0.49483473832E+02  0.98957777929E+02  0.15736082720E+03  0.47000000000E+01 0.  1.
        -11    1    3    3    0    0 -0.73291319333E+02 -0.23519617880E+02  0.67755159881E+02  0.10254536365E+03  0.00000000000E+00 0.  1.
         11    1    3    3    0    0 -0.59085762897E+02  0.29779783893E+02  0.19346000303E+03  0.20446206415E+03  0.00000000000E+00 0. -1.
<mgrwt>
<rscale>  0 0.17671608E+03</rscale>
<asrwt>0</asrwt>
<pdfrwt beam="1">  1        2 0.72085950E-01 0.18217258E+03</pdfrwt>
<pdfrwt beam="2">  1       -2 0.10442706E-01 0.18217258E+03</pdfrwt>
<totfact> 0.40638349E+03</totfact>
</mgrwt>
</event>
<event>
 7    1  0.1254976E-005  0.1779379E+03  0.7546771E-02  0.1176085E+00
          2   -1    0    0  501    0  0.00000000000E+00  0.00000000000E+00  0.97606002193E+02  0.97606002193E+02  0.00000000000E+00 0.  1.
         -2   -1    0    0    0  501 -0.00000000000E+00 -0.00000000000E+00 -0.28540525739E+03  0.28540525739E+03  0.00000000000E+00 0. -1.
         23    2    1    2    0    0 -0.79647174767E+02  0.98454750683E+02 -0.68606140895E+02  0.16884099955E+03  0.88110556568E+02 0.  0.
          5    1    1    2  502    0  0.99800369810E+02 -0.26989065099E+02 -0.66980004332E+02  0.12327584690E+03  0.47000000000E+01 0.  1.
         -5    1    1    2    0  502 -0.20153195043E+02 -0.71465685583E+02 -0.52213109966E+02  0.90894413132E+02  0.47000000000E+01 0.  1.
        -11    1    3    3    0    0  0.14170701189E+02  0.18770427990E+01  0.53017462432E+01  0.15246001938E+02  0.00000000000E+00 0.  1.
         11    1    3    3    0    0 -0.93817875956E+02  0.96577707884E+02 -0.73907887138E+02  0.15359499761E+03  0.00000000000E+00 0. -1.
<mgrwt>
<rscale>  0 0.17170170E+03</rscale>
<asrwt>0</asrwt>
<pdfrwt beam="1">  1        2 0.15016308E-01 0.17793792E+03</pdfrwt>
<pdfrwt beam="2">  1       -2 0.43908501E-01 0.17793792E+03</pdfrwt>
<totfact> 0.18991645E+03</totfact>
</mgrwt>
</event>
<event>
 7    1  0.1254976E-005  0.2397887E+03  0.7546771E-02  0.1122600E+00
         -1   -1    0    0    0  501 -0.00000000000E+00  0.00000000000E+00  0.24766703778E+03  0.24766703778E+03  0.00000000000E+00 0.  1.
          1   -1    0    0  501    0  0.00000000000E+00 -0.00000000000E+00 -0.23321401935E+03  0.23321401935E+03  0.00000000000E+00 0. -1.
         23    2    1    2    0    0  0.61846183797E+02 -0.19505995434E+03 -0.55460233517E+02  0.23110814695E+03  0.91988052729E+02 0.  0.
          5    1    1    2  502    0 -0.22066457058E+02  0.19538514494E+03  0.42470819136E+02  0.20121665902E+03  0.47000000000E+01 0. -1.
         -5    1    1    2    0  502 -0.39779726739E+02 -0.32519059773E+00  0.27442432813E+02  0.48556251163E+02  0.47000000000E+01 0. -1.
        -11    1    3    3    0    0 -0.22555022953E+02 -0.68502915642E+02 -0.21306088544E+02  0.75201914343E+02  0.00000000000E+00 0.  1.
         11    1    3    3    0    0  0.84401206750E+02 -0.12655703870E+03 -0.34154144974E+02  0.15590623260E+03  0.00000000000E+00 0. -1.
<mgrwt>
<rscale>  0 0.23583351E+03</rscale>
<asrwt>0</asrwt>
<pdfrwt beam="2">  1        1 0.35879080E-01 0.23978875E+03</pdfrwt>
<pdfrwt beam="1">  1       -1 0.38102621E-01 0.23978875E+03</pdfrwt>
<totfact> 0.81329625E+02</totfact>
</mgrwt>
</event>
<event>
 7    1  0.1254976E-005  0.1511152E+03  0.7546771E-02  0.1220916E+00
          1   -1    0    0  501    0  0.00000000000E+00  0.00000000000E+00  0.24807153187E+03  0.24807153187E+03  0.00000000000E+00 0. -1.
         -1   -1    0    0    0  501 -0.00000000000E+00 -0.00000000000E+00 -0.75937769923E+02  0.75937769923E+02  0.00000000000E+00 0.  1.
         23    2    1    2    0    0 -0.45186572975E+01  0.21159470524E+02  0.14065373037E+03  0.16964996022E+03  0.92355268828E+02 0.  0.
          5    1    1    2  502    0  0.71245192125E+02 -0.35933036501E+02  0.31336681637E+02  0.85855332561E+02  0.47000000000E+01 0. -1.
         -5    1    1    2    0  502 -0.66726534827E+02  0.14773565978E+02  0.14334994632E+00  0.68504009014E+02  0.47000000000E+01 0.  1.
        -11    1    3    3    0    0 -0.43053019391E+02  0.16514178791E+02  0.37497791054E+02  0.59433701835E+02  0.00000000000E+00 0.  1.
         11    1    3    3    0    0  0.38534362093E+02  0.46452917330E+01  0.10315593931E+03  0.11021625839E+03  0.00000000000E+00 0. -1.
<mgrwt>
<rscale>  0 0.13450773E+03</rscale>
<asrwt>0</asrwt>
<pdfrwt beam="1">  1        1 0.38164851E-01 0.15111523E+03</pdfrwt>
<pdfrwt beam="2">  1       -1 0.11682734E-01 0.15111523E+03</pdfrwt>
<totfact> 0.51329109E+03</totfact>
</mgrwt>
</event>
<event>
 7    1  0.1254976E-005  0.1368783E+03  0.7546771E-02  0.1229889E+00
         -1   -1    0    0    0  501 -0.00000000000E+00  0.00000000000E+00  0.55257546674E+02  0.55257546674E+02  0.00000000000E+00 0.  1.
          1   -1    0    0  501    0  0.00000000000E+00 -0.00000000000E+00 -0.30313978732E+03  0.30313978732E+03  0.00000000000E+00 0. -1.
         23    2    1    2    0    0  0.55397167804E+02  0.65421016367E+01 -0.17173792410E+03  0.20176522571E+03  0.90020255703E+02 0.  0.
          5    1    1    2  502    0  0.40117525800E+02 -0.69594530192E+01 -0.18478103947E+02  0.44959761878E+02  0.47000000000E+01 0.  1.
         -5    1    1    2    0  502 -0.95514693604E+02  0.41735138251E+00 -0.57666212597E+02  0.11167234641E+03  0.47000000000E+01 0.  1.
        -11    1    3    3    0    0 -0.19744323062E+02  0.14772361727E+02 -0.75286383048E+02  0.79221843178E+02  0.00000000000E+00 0. -1.
         11    1    3    3    0    0  0.75141490866E+02 -0.82302600902E+01 -0.96451541055E+02  0.12254338253E+03  0.00000000000E+00 0.  1.
<mgrwt>
<rscale>  0 0.12837404E+03</rscale>
<asrwt>0</asrwt>
<pdfrwt beam="2">  1        1 0.46636890E-01 0.13687827E+03</pdfrwt>
<pdfrwt beam="1">  1       -1 0.85011612E-02 0.13687827E+03</pdfrwt>
<totfact> 0.64710207E+03</totfact>
</mgrwt>
</event>
<event>
 7    1  0.1254976E-005  0.1285834E+03  0.7546771E-02  0.1251718E+00
          1   -1    0    0  501    0  0.00000000000E+00  0.00000000000E+00  0.11378322775E+02  0.11378322775E+02  0.00000000000E+00 0. -1.
         -1   -1    0    0    0  501 -0.00000000000E+00 -0.00000000000E+00 -0.12434753263E+04  0.12434753263E+04  0.00000000000E+00 0.  1.
         23    2    1    2    0    0 -0.16682907037E+02  0.25124610668E+02 -0.22331263497E+03  0.23790744444E+03  0.76301072944E+02 0.  0.
          5    1    1    2  502    0 -0.68192827515E+01  0.67599356623E+01 -0.91461224357E+03  0.91467472111E+03  0.47000000000E+01 0.  1.
         -5    1    1    2    0  502  0.23502189789E+02 -0.31884546330E+02 -0.94172125015E+02  0.10227148356E+03  0.47000000000E+01 0.  1.
        -11    1    3    3    0    0 -0.30408326823E+02 -0.81626202039E+01 -0.39058989483E+02  0.50168709055E+02  0.00000000000E+00 0. -1.
         11    1    3    3    0    0  0.13725419786E+02  0.33287230872E+02 -0.18425364549E+03  0.18773873538E+03  0.00000000000E+00 0.  1.
<mgrwt>
<rscale>  0 0.11492167E+03</rscale>
<asrwt>0</asrwt>
<pdfrwt beam="1">  1        1 0.17505113E-02 0.12858336E+03</pdfrwt>
<pdfrwt beam="2">  1       -1 0.19130388E+00 0.12858336E+03</pdfrwt>
<totfact> 0.13599861E+03</totfact>
</mgrwt>
</event>
<event>
 7    1  0.1254976E-005  0.1292343E+03  0.7546771E-02  0.1242979E+00
         -4   -1    0    0    0  501 -0.00000000000E+00  0.00000000000E+00  0.36618995302E+02  0.36618995302E+02  0.00000000000E+00 0.  1.
          4   -1    0    0  501    0  0.00000000000E+00 -0.00000000000E+00 -0.35716576923E+03  0.35716576923E+03  0.00000000000E+00 0. -1.
         23    2    1    2    0    0  0.96001203358E+01 -0.31370518677E+02 -0.16996097457E+03  0.19534687520E+03  0.90539477682E+02 0.  0.
          5    1    1    2  502    0  0.39854378348E+02 -0.61125333785E+01 -0.60083148380E+01  0.41035647735E+02  0.47000000000E+01 0.  1.
         -5    1    1    2    0  502 -0.49454498684E+02  0.37483052056E+02 -0.14457748451E+03  0.15740224159E+03  0.47000000000E+01 0.  1.
        -11    1    3    3    0    0  0.43816216242E+02  0.33744947142E+01 -0.10727298846E+03  0.11592558852E+03  0.00000000000E+00 0. -1.
         11    1    3    3    0    0 -0.34216095906E+02 -0.34745013391E+02 -0.62687986111E+02  0.79421286676E+02  0.00000000000E+00 0.  1.
<mgrwt>
<rscale>  0 0.12007148E+03</rscale>
<asrwt>0</asrwt>
<pdfrwt beam="2">  1        4 0.54948582E-01 0.12923433E+03</pdfrwt>
<pdfrwt beam="1">  1       -4 0.56336914E-02 0.12923433E+03</pdfrwt>
<totfact> 0.10267129E+03</totfact>
</mgrwt>
</event>
<event>
 7    1  0.1254976E-005  0.1337941E+03  0.7546771E-02  0.1234681E+00
         -2   -1    0    0    0  501 -0.00000000000E+00  0.00000000000E+00  0.70501985012E+02  0.70501985012E+02  0.00000000000E+00 0.  1.
          2   -1    0    0  501    0  0.00000000000E+00 -0.00000000000E+00 -0.23152069097E+03  0.23152069097E+03  0.00000000000E+00 0. -1.
         23    2    1    2    0    0 -0.37561131513E+02 -0.29406627653E+02 -0.12813947771E+03  0.16424786258E+03  0.91005748518E+02 0.  0.
          5    1    1    2  502    0  0.23083122615E+01  0.72866359970E+02 -0.71246085538E+00  0.73057732796E+02  0.47000000000E+01 0.  1.
         -5    1    1    2    0  502  0.35252819252E+02 -0.43459732317E+02 -0.32166767397E+02  0.64717080613E+02  0.47000000000E+01 0.  1.
        -11    1    3    3    0    0 -0.54716441784E+00  0.27522548287E+02 -0.68676471591E+02  0.73988159886E+02  0.00000000000E+00 0. -1.
         11    1    3    3    0    0 -0.37013967095E+02 -0.56929175940E+02 -0.59463006117E+02  0.90259702691E+02  0.00000000000E+00 0.  1.
<mgrwt>
<rscale>  0 0.12524878E+03</rscale>
<asrwt>0</asrwt>
<pdfrwt beam="2">  1        2 0.35618568E-01 0.13379408E+03</pdfrwt>
<pdfrwt beam="1">  1       -2 0.10846459E-01 0.13379408E+03</pdfrwt>
<totfact> 0.80028615E+03</totfact>
</mgrwt>
</event>
<event>
 7    1  0.1254976E-005  0.1328493E+03  0.7546771E-02  0.1236774E+00
         -2   -1    0    0    0  501 -0.00000000000E+00  0.00000000000E+00  0.19797706167E+02  0.19797706167E+02  0.00000000000E+00 0.  1.
          2   -1    0    0  501    0  0.00000000000E+00 -0.00000000000E+00 -0.72677212935E+03  0.72677212935E+03  0.00000000000E+00 0. -1.
         23    2    1    2    0    0 -0.41658497443E+02  0.17015659705E+02 -0.22171824106E+03  0.24345703852E+03  0.89929906619E+02 0.  0.
          5    1    1    2  502    0  0.14561652803E+02  0.25815266205E+02 -0.22352710734E+02  0.37419291532E+02  0.47000000000E+01 0. -1.
         -5    1    1    2    0  502  0.27096844640E+02 -0.42830925909E+02 -0.46290347139E+03  0.46569350546E+03  0.47000000000E+01 0. -1.
        -11    1    3    3    0    0 -0.12802273261E+02 -0.23952959878E+02 -0.15570772504E+02  0.31306412186E+02  0.00000000000E+00 0.  1.
         11    1    3    3    0    0 -0.28856224182E+02  0.40968619582E+02 -0.20614746855E+03  0.21215062634E+03  0.00000000000E+00 0. -1.
<mgrwt>
<rscale>  0 0.12391556E+03</rscale>
<asrwt>0</asrwt>
<pdfrwt beam="2">  1        2 0.11181112E+00 0.13284925E+03</pdfrwt>
<pdfrwt beam="1">  1       -2 0.30458003E-02 0.13284925E+03</pdfrwt>
<totfact> 0.15739069E+04</totfact>
</mgrwt>
</event>
<event>
 7    1  0.1254976E-005  0.1298505E+03  0.7546771E-02  0.1241629E+00
          1   -1    0    0  501    0  0.00000000000E+00  0.00000000000E+00  0.22701360530E+02  0.22701360530E+02  0.00000000000E+00 0. -1.
         -1   -1    0    0    0  501 -0.00000000000E+00 -0.00000000000E+00 -0.58567449991E+03  0.58567449991E+03  0.00000000000E+00 0.  1.
         23    2    1    2    0    0  0.13515183978E+02 -0.32459158492E+02 -0.19264338262E+03  0.21594079027E+03  0.91009311980E+02 0.  0.
          5    1    1    2  502    0 -0.30460818432E+02  0.16309771356E+01 -0.35034934361E+03  0.35170623269E+03  0.47000000000E+01 0. -1.
         -5    1    1    2    0  502  0.16945634454E+02  0.30828181357E+02 -0.19980413151E+02  0.40728837480E+02  0.47000000000E+01 0. -1.
        -11    1    3    3    0    0  0.35238343605E+02 -0.53723485844E+02 -0.15332003806E+03  0.16623774500E+03  0.00000000000E+00 0.  1.
         11    1    3    3    0    0 -0.21723159628E+02  0.21264327352E+02 -0.39323344562E+02  0.49703045274E+02  0.00000000000E+00 0. -1.
<mgrwt>
<rscale>  0 0.12089446E+03</rscale>
<asrwt>0</asrwt>
<pdfrwt beam="1">  1        1 0.34925173E-02 0.12985051E+03</pdfrwt>
<pdfrwt beam="2">  1       -1 0.90103763E-01 0.12985051E+03</pdfrwt>
<totfact> 0.33438625E+03</totfact>
</mgrwt>
</event>
<event>
 7    1  0.1254976E-005  0.1581982E+03  0.7546771E-02  0.1191350E+00
         -2   -1    0    0    0  501 -0.00000000000E+00  0.00000000000E+00  0.31311182267E+03  0.31311182267E+03  0.00000000000E+00 0.  1.
          2   -1    0    0  501    0  0.00000000000E+00 -0.00000000000E+00 -0.85847089894E+02  0.85847089894E+02  0.00000000000E+00 0. -1.
         23    2    1    2    0    0  0.32100362770E+02  0.87825493364E+02  0.57480029080E+02  0.16831702029E+03  0.12760452579E+03 0.  0.
          5    1    1    2  502    0  0.89008375909E+01  0.26318270380E+02  0.62859224027E+02  0.68885762759E+02  0.47000000000E+01 0. -1.
         -5    1    1    2    0  502 -0.41001200361E+02 -0.11414376374E+03  0.10692547967E+03  0.16175612951E+03  0.47000000000E+01 0. -1.
        -11    1    3    3    0    0  0.53515019294E+02  0.10602418882E+03  0.18399709089E+02  0.12018125977E+03  0.00000000000E+00 0. -1.
         11    1    3    3    0    0 -0.21414656525E+02 -0.18198695459E+02  0.39080319991E+02  0.48135760522E+02  0.00000000000E+00 0.  1.
<mgrwt>
<rscale>  0 0.15767232E+03</rscale>
<asrwt>0</asrwt>
<pdfrwt beam="2">  1        2 0.13207245E-01 0.15819818E+03</pdfrwt>
<pdfrwt beam="1">  1       -2 0.48171049E-01 0.15819818E+03</pdfrwt>
<totfact> 0.18365947E+03</totfact>
</mgrwt>
</event>
<event>
 7    1  0.1254976E-005  0.1306110E+03  0.7546771E-02  0.1229758E+00
         -1   -1    0    0    0  501 -0.00000000000E+00  0.00000000000E+00  0.18633300490E+02  0.18633300490E+02  0.00000000000E+00 0.  1.
          1   -1    0    0  501    0  0.00000000000E+00 -0.00000000000E+00 -0.99766838723E+03  0.99766838723E+03  0.00000000000E+00 0. -1.
         23    2    1    2    0    0 -0.12532881994E+02  0.35739658802E+02 -0.66582935766E+03  0.67695368246E+03  0.11620309087E+03 0.  0.
          5    1    1    2  502    0 -0.24493358175E+02  0.31929726391E+02 -0.18718076240E+03  0.19151542976E+03  0.47000000000E+01 0. -1.
         -5    1    1    2    0  502  0.37026240169E+02 -0.67669385194E+02 -0.12602496667E+03  0.14783257550E+03  0.47000000000E+01 0. -1.
        -11    1    3    3    0    0  0.16134923360E+02 -0.38524996555E+02 -0.19275317000E+03  0.19722650850E+03  0.00000000000E+00 0. -1.
         11    1    3    3    0    0 -0.28667805354E+02  0.74264655358E+02 -0.47307618766E+03  0.47972717396E+03  0.00000000000E+00 0.  1.
<mgrwt>
<rscale>  0 0.12846056E+03</rscale>
<asrwt>0</asrwt>
<pdfrwt beam="2">  1        1 0.15348745E+00 0.13061103E+03</pdfrwt>
<pdfrwt beam="1">  1       -1 0.28666615E-02 0.13061103E+03</pdfrwt>
<totfact> 0.62867866E+03</totfact>
</mgrwt>
</event>
<event>
 7    1  0.1254976E-005  0.1451126E+03  0.7546771E-02  0.1216659E+00
         -1   -1    0    0    0  501 -0.00000000000E+00  0.00000000000E+00  0.41138908131E+02  0.41138908131E+02  0.00000000000E+00 0.  1.
          1   -1    0    0  501    0  0.00000000000E+00 -0.00000000000E+00 -0.41883420381E+03  0.41883420381E+03  0.00000000000E+00 0. -1.
         23    2    1    2    0    0 -0.73672468691E+02  0.23085867742E+01 -0.17889895528E+03  0.21384781743E+03  0.91066407664E+02 0.  0.
          5    1    1    2  502    0  0.33033629023E+02  0.80605414506E+01 -0.20095608802E+03  0.20386670225E+03  0.47000000000E+01 0.  1.
         -5    1    1    2    0  502  0.40638839668E+02 -0.10369128225E+02  0.21597476190E+01  0.42258592257E+02  0.47000000000E+01 0.  1.
        -11    1    3    3    0    0 -0.47140615984E+02 -0.36212650306E+01 -0.18052424062E+03  0.18661284170E+03  0.00000000000E+00 0. -1.
         11    1    3    3    0    0 -0.26531852707E+02  0.59298518048E+01  0.16252853452E+01  0.27234975729E+02  0.00000000000E+00 0.  1.
<mgrwt>
<rscale>  0 0.13755365E+03</rscale>
<asrwt>0</asrwt>
<pdfrwt beam="2">  1        1 0.64436031E-01 0.14511263E+03</pdfrwt>
<pdfrwt beam="1">  1       -1 0.63290629E-02 0.14511263E+03</pdfrwt>
<totfact> 0.67537476E+03</totfact>
</mgrwt>
</event>
<event>
 7    1  0.1254976E-005  0.1199834E+03  0.7546771E-02  0.1254390E+00
         -2   -1    0    0    0  501 -0.00000000000E+00  0.00000000000E+00  0.41369628529E+03  0.41369628529E+03  0.00000000000E+00 0.  1.
          2   -1    0    0  501    0  0.00000000000E+00 -0.00000000000E+00 -0.13611180338E+03  0.13611180338E+03  0.00000000000E+00 0. -1.
         23    2    1    2    0    0  0.25789049997E+02  0.83387013731E+01 -0.10896740340E+03  0.14506327087E+03  0.91841431333E+02 0.  0.
          5    1    1    2  502    0  0.41839911960E+02  0.10546692986E+02  0.89480653067E+02  0.99451939343E+02  0.47000000000E+01 0. -1.
         -5    1    1    2    0  502 -0.67628961957E+02 -0.18885394360E+02  0.29707123224E+03  0.30529287846E+03  0.47000000000E+01 0.  1.
        -11    1    3    3    0    0  0.21468471638E+02 -0.40778832090E+02 -0.58983045499E+02  0.74851907640E+02  0.00000000000E+00 0. -1.
         11    1    3    3    0    0  0.43205783595E+01  0.49117533463E+02 -0.49984357905E+02  0.70211363225E+02  0.00000000000E+00 0.  1.
<mgrwt>
<rscale>  0 0.11340540E+03</rscale>
<asrwt>0</asrwt>
<pdfrwt beam="2">  1        2 0.20940278E-01 0.11998336E+03</pdfrwt>
<pdfrwt beam="1">  1       -2 0.63645582E-01 0.11998336E+03</pdfrwt>
<totfact> 0.60806440E+02</totfact>
</mgrwt>
</event>
<event>
 7    1  0.1254976E-005  0.1381028E+03  0.7546771E-02  0.1224154E+00
          2   -1    0    0  501    0  0.00000000000E+00  0.00000000000E+00  0.10292494152E+04  0.10292494152E+04  0.00000000000E+00 0. -1.
         -2   -1    0    0    0  501 -0.00000000000E+00 -0.00000000000E+00 -0.15707265705E+02  0.15707265705E+02  0.00000000000E+00 0.  1.
         23    2    1    2    0    0 -0.67485943963E+02 -0.20867444522E+02  0.45231279941E+03  0.46698542823E+03  0.92188496019E+02 0.  0.
          5    1    1    2  502    0 -0.29978010466E+02  0.26589724064E+02  0.16747934551E+03  0.17227047255E+03  0.47000000000E+01 0. -1.
         -5    1    1    2    0  502  0.97463954429E+02 -0.57222795417E+01  0.39375000459E+03  0.40570078014E+03  0.47000000000E+01 0.  1.
        -11    1    3    3    0    0  0.80405033329E+01  0.11185886917E+02  0.97389890572E+01  0.16870734063E+02  0.00000000000E+00 0.  1.
         11    1    3    3    0    0 -0.75526447296E+02 -0.32053331439E+02  0.44257381035E+03  0.45011469417E+03  0.00000000000E+00 0. -1.
<mgrwt>
<rscale>  0 0.13225053E+03</rscale>
<asrwt>0</asrwt>
<pdfrwt beam="1">  1        2 0.15834601E+00 0.13810281E+03</pdfrwt>
<pdfrwt beam="2">  1       -2 0.24165032E-02 0.13810281E+03</pdfrwt>
<totfact> 0.14144394E+04</totfact>
</mgrwt>
</event>
<event>
 6    1  0.1254976E-005  0.1408738E+03  0.7546771E-02  0.1240055E+00
          2   -1    0    0  501    0  0.00000000000E+00  0.00000000000E+00  0.36756638926E+03  0.36756638926E+03  0.00000000000E+00 0. -1.
         -2   -1    0    0    0  501 -0.00000000000E+00 -0.00000000000E+00 -0.32903994617E+02  0.32903994617E+02  0.00000000000E+00 0.  1.
          5    1    1    2  502    0 -0.33874986671E+02 -0.42284110380E+02  0.19382535403E+03  0.20131025452E+03  0.47000000000E+01 0. -1.
         -5    1    1    2    0  502  0.32341470301E+02 -0.33730041959E+02  0.12640716324E+02  0.48637065505E+02  0.47000000000E+01 0.  1.
        -11    1    1    2    0    0  0.29761177901E+01  0.57495231065E+02  0.77598513436E+02  0.96623434837E+02  0.00000000000E+00 0.  1.
         11    1    1    2    0    0 -0.14426014204E+01  0.18518921274E+02  0.50597810853E+02  0.53899629007E+02  0.00000000000E+00 0. -1.
<mgrwt>
<rscale>  0 0.12186296E+03</rscale>
<asrwt>0</asrwt>
<pdfrwt beam="1">  1        2 0.56548672E-01 0.14087379E+03</pdfrwt>
<pdfrwt beam="2">  1       -2 0.50621533E-02 0.14087379E+03</pdfrwt>
<totfact> 0.15880092E+04</totfact>
</mgrwt>
</event>
<event>
 7    1  0.1254976E-005  0.1361053E+03  0.7546771E-02  0.1231204E+00
          2   -1    0    0  501    0  0.00000000000E+00  0.00000000000E+00  0.28864158007E+03  0.28864158007E+03  0.00000000000E+00 0. -1.
         -2   -1    0    0    0  501 -0.00000000000E+00 -0.00000000000E+00 -0.60378003580E+02  0.60378003580E+02  0.00000000000E+00 0.  1.
         23    2    1    2    0    0  0.53051910550E+02 -0.92243825430E+01  0.17266279990E+03  0.20199540020E+03  0.89945009777E+02 0.  0.
          5    1    1    2  502    0 -0.89718883938E+02  0.27530975636E+02  0.46227822258E+02  0.10472122185E+03  0.47000000000E+01 0. -1.
         -5    1    1    2    0  502  0.36666973388E+02 -0.18306593093E+02  0.93729543333E+01  0.42302961611E+02  0.47000000000E+01 0. -1.
        -11    1    3    3    0    0  0.48996479550E+02 -0.45068356201E+02  0.91288407168E+02  0.11298400339E+03  0.00000000000E+00 0.  1.
         11    1    3    3    0    0  0.40554309999E+01  0.35843973658E+02  0.81374392735E+02  0.89011396805E+02  0.00000000000E+00 0. -1.
<mgrwt>
<rscale>  0 0.12750570E+03</rscale>
<asrwt>0</asrwt>
<pdfrwt beam="1">  1        2 0.44406396E-01 0.13610534E+03</pdfrwt>
<pdfrwt beam="2">  1       -2 0.92889238E-02 0.13610534E+03</pdfrwt>
<totfact> 0.80854057E+03</totfact>
</mgrwt>
</event>
<event>
 7    1  0.1254976E-005  0.1432999E+03  0.7546771E-02  0.1216973E+00
          3   -1    0    0  501    0  0.00000000000E+00  0.00000000000E+00  0.19430585200E+03  0.19430585200E+03  0.00000000000E+00 0. -1.
         -3   -1    0    0    0  501 -0.00000000000E+00 -0.00000000000E+00 -0.90342076075E+02  0.90342076075E+02  0.00000000000E+00 0.  1.
         23    2    1    2    0    0  0.55540785581E+02 -0.42707994733E+02  0.58776145419E+02  0.13439219069E+03  0.98477784154E+02 0.  0.
          5    1    1    2  502    0  0.26028462649E+01  0.34987108674E+02  0.75996753619E+02  0.83835965686E+02  0.47000000000E+01 0.  1.
         -5    1    1    2    0  502 -0.58143631846E+02  0.77208860596E+01 -0.30809123109E+02  0.66419771699E+02  0.47000000000E+01 0.  1.
        -11    1    3    3    0    0  0.53794962457E+02 -0.10522774417E+02  0.79137452482E+02  0.96267144719E+02  0.00000000000E+00 0. -1.
         11    1    3    3    0    0  0.17458231246E+01 -0.32185220317E+02 -0.20361307063E+02  0.38125045974E+02  0.00000000000E+00 0.  1.
<mgrwt>
<rscale>  0 0.13732613E+03</rscale>
<asrwt>0</asrwt>
<pdfrwt beam="1">  1        3 0.29893208E-01 0.14329991E+03</pdfrwt>
<pdfrwt beam="2">  1       -3 0.13898781E-01 0.14329991E+03</pdfrwt>
<totfact> 0.10632040E+03</totfact>
</mgrwt>
</event>
<event>
 7    1  0.1254976E-005  0.1351513E+03  0.7546771E-02  0.1231615E+00
         -4   -1    0    0    0  501 -0.00000000000E+00  0.00000000000E+00  0.13580300872E+03  0.13580300872E+03  0.00000000000E+00 0.  1.
          4   -1    0    0  501    0  0.00000000000E+00 -0.00000000000E+00 -0.11530748488E+03  0.11530748488E+03  0.00000000000E+00 0. -1.
         23    2    1    2    0    0 -0.48031422519E+02  0.18269122147E+02 -0.23958657929E+02  0.10883593874E+03  0.92900300853E+02 0.  0.
          5    1    1    2  502    0  0.57682709292E+02 -0.55858377065E+02 -0.33725288088E+01  0.80504143932E+02  0.47000000000E+01 0.  1.
         -5    1    1    2    0  502 -0.96512867735E+01  0.37589254918E+02  0.47826710579E+02  0.61770410930E+02  0.47000000000E+01 0.  1.
        -11    1    3    3    0    0 -0.10973704813E+02  0.14153077982E+02 -0.56547535951E+02  0.59315728402E+02  0.00000000000E+00 0. -1.
         11    1    3    3    0    0 -0.37057717706E+02  0.41160441651E+01  0.32588878023E+02  0.49520210338E+02  0.00000000000E+00 0.  1.
<mgrwt>
<rscale>  0 0.12723648E+03</rscale>
<asrwt>0</asrwt>
<pdfrwt beam="2">  1        4 0.17739613E-01 0.13515130E+03</pdfrwt>
<pdfrwt beam="1">  1       -4 0.20892770E-01 0.13515130E+03</pdfrwt>
<totfact> 0.96264512E+02</totfact>
</mgrwt>
</event>
<event>
 7    1  0.1254976E-005  0.1366204E+03  0.7546771E-02  0.1229678E+00
         -1   -1    0    0    0  501 -0.00000000000E+00  0.00000000000E+00  0.83308322338E+02  0.83308322338E+02  0.00000000000E+00 0.  1.
          1   -1    0    0  501    0  0.00000000000E+00 -0.00000000000E+00 -0.23366650337E+03  0.23366650337E+03  0.00000000000E+00 0. -1.
         23    2    1    2    0    0  0.35216462311E+02  0.42406100933E+02 -0.14508235447E+03  0.18025264365E+03  0.91671420572E+02 0.  0.
          5    1    1    2  502    0  0.14755244498E+02 -0.68904639113E+02  0.21697382168E+02  0.73881208195E+02  0.47000000000E+01 0. -1.
         -5    1    1    2    0  502 -0.49971706809E+02  0.26498538180E+02 -0.26973208731E+02  0.62840973865E+02  0.47000000000E+01 0. -1.
        -11    1    3    3    0    0  0.16352905524E+02  0.66510718347E+02 -0.64614921639E+02  0.94160401829E+02  0.00000000000E+00 0.  1.
         11    1    3    3    0    0  0.18863556786E+02 -0.24104617414E+02 -0.80467432827E+02  0.86092241817E+02  0.00000000000E+00 0. -1.
<mgrwt>
<rscale>  0 0.12851384E+03</rscale>
<asrwt>0</asrwt>
<pdfrwt beam="2">  1        1 0.35948693E-01 0.13662035E+03</pdfrwt>
<pdfrwt beam="1">  1       -1 0.12816665E-01 0.13662035E+03</pdfrwt>
<totfact> 0.47623817E+03</totfact>
</mgrwt>
</event>
<event>
 6    1  0.1254976E-005  0.2411086E+03  0.7546771E-02  0.1124468E+00
          1   -1    0    0  501    0  0.00000000000E+00  0.00000000000E+00  0.34898487359E+03  0.34898487359E+03  0.00000000000E+00 0. -1.
         -1   -1    0    0    0  501 -0.00000000000E+00 -0.00000000000E+00 -0.15874586902E+03  0.15874586902E+03  0.00000000000E+00 0.  1.
          5    1    1    2  502    0 -0.88288917891E+02 -0.80712860521E+01  0.61403117037E+02  0.10794679922E+03  0.47000000000E+01 0. -1.
         -5    1    1    2    0  502 -0.80228033411E+02  0.48746584235E+02 -0.43345925232E+02  0.10350713045E+03  0.47000000000E+01 0.  1.
        -11    1    1    2    0    0 -0.57770260422E+01 -0.58554732596E+02  0.14587797147E+02  0.60620413763E+02  0.00000000000E+00 0.  1.
         11    1    1    2    0    0  0.17429397734E+03  0.17879434413E+02  0.15759401562E+03  0.23565639918E+03  0.00000000000E+00 0. -1.
<mgrwt>
<rscale>  0 0.23311283E+03</rscale>
<asrwt>0</asrwt>
<pdfrwt beam="1">  1        1 0.53689980E-01 0.24110863E+03</pdfrwt>
<pdfrwt beam="2">  1       -1 0.24422441E-01 0.24110863E+03</pdfrwt>
<totfact> 0.10463594E+03</totfact>
</mgrwt>
</event>
<event>
 7    1  0.1254976E-005  0.1371995E+03  0.7546771E-02  0.1227743E+00
         -2   -1    0    0    0  501 -0.00000000000E+00  0.00000000000E+00  0.66769373530E+02  0.66769373530E+02  0.00000000000E+00 0.  1.
          2   -1    0    0  501    0  0.00000000000E+00 -0.00000000000E+00 -0.23489068645E+03  0.23489068645E+03  0.00000000000E+00 0. -1.
         23    2    1    2    0    0  0.47109086683E+02  0.31294824938E+02 -0.99416359604E+02  0.14821925293E+03  0.94269307130E+02 0.  0.
          5    1    1    2  502    0 -0.43328432365E+02  0.36349808845E+02 -0.63744267085E+02  0.85346840835E+02  0.47000000000E+01 0.  1.
         -5    1    1    2    0  502 -0.37806543173E+01 -0.67644633783E+02 -0.49606862307E+01  0.68093966213E+02  0.47000000000E+01 0.  1.
        -11    1    3    3    0    0  0.33005510642E+02 -0.15855143395E+02  0.74115274741E+00  0.36623743832E+02  0.00000000000E+00 0.  1.
         11    1    3    3    0    0  0.14103576040E+02  0.47149968333E+02 -0.10015751235E+03  0.11159550910E+03  0.00000000000E+00 0. -1.
<mgrwt>
<rscale>  0 0.12980661E+03</rscale>
<asrwt>0</asrwt>
<pdfrwt beam="2">  1        2 0.36137029E-01 0.13719953E+03</pdfrwt>
<pdfrwt beam="1">  1       -2 0.10272211E-01 0.13719953E+03</pdfrwt>
<totfact> 0.86018174E+03</totfact>
</mgrwt>
</event>
<event>
 7    1  0.1254976E-005  0.1459635E+03  0.7546771E-02  0.1217198E+00
         -2   -1    0    0    0  501 -0.00000000000E+00  0.00000000000E+00  0.20919346361E+03  0.20919346361E+03  0.00000000000E+00 0.  1.
          2   -1    0    0  501    0  0.00000000000E+00 -0.00000000000E+00 -0.10343816781E+03  0.10343816781E+03  0.00000000000E+00 0. -1.
         23    2    1    2    0    0 -0.33849637551E+02  0.67303254910E+02 -0.25152825345E+02  0.11656458651E+03  0.85317712817E+02 0.  0.
          5    1    1    2  502    0 -0.11860886432E+02  0.77482034151E+01  0.10251866051E+03  0.10359961890E+03  0.47000000000E+01 0.  1.
         -5    1    1    2    0  502  0.45710523983E+02 -0.75051458326E+02  0.28389460634E+02  0.92467426020E+02  0.47000000000E+01 0.  1.
        -11    1    3    3    0    0 -0.14051625689E+01  0.44745523468E+02  0.26120694871E+02  0.51830753929E+02  0.00000000000E+00 0.  1.
         11    1    3    3    0    0 -0.32444474982E+02  0.22557731442E+02 -0.51273520216E+02  0.64733832576E+02  0.00000000000E+00 0. -1.
<mgrwt>
<rscale>  0 0.13716282E+03</rscale>
<asrwt>0</asrwt>
<pdfrwt beam="2">  1        2 0.15913564E-01 0.14596352E+03</pdfrwt>
<pdfrwt beam="1">  1       -2 0.32183610E-01 0.14596352E+03</pdfrwt>
<totfact> 0.31496909E+03</totfact>
</mgrwt>
</event>
<event>
 7    1  0.1254976E-005  0.1478455E+03  0.7546771E-02  0.1212449E+00
         -1   -1    0    0    0  501 -0.00000000000E+00  0.00000000000E+00  0.46214630054E+02  0.46214630054E+02  0.00000000000E+00 0.  1.
          1   -1    0    0  501    0  0.00000000000E+00 -0.00000000000E+00 -0.40574580636E+03  0.40574580636E+03  0.00000000000E+00 0. -1.
         23    2    1    2    0    0  0.57202528284E+02  0.54419271099E+02 -0.20492132745E+03  0.23803873935E+03  0.91848269868E+02 0.  0.
          5    1    1    2  502    0 -0.16764460125E+02 -0.89826819613E+02 -0.78080267871E+02  0.12028517313E+03  0.47000000000E+01 0. -1.
         -5    1    1    2    0  502 -0.40438068159E+02  0.35407548514E+02 -0.76529580988E+02  0.93636523934E+02  0.47000000000E+01 0. -1.
        -11    1    3    3    0    0  0.57138087560E+02  0.68159024902E+02 -0.20587547333E+03  0.22426574470E+03  0.00000000000E+00 0. -1.
         11    1    3    3    0    0  0.64440723907E-01 -0.13739753803E+02  0.95414588506E+00  0.13772994647E+02  0.00000000000E+00 0.  1.
<mgrwt>
<rscale>  0 0.14065613E+03</rscale>
<asrwt>0</asrwt>
<pdfrwt beam="2">  1        1 0.62422431E-01 0.14784548E+03</pdfrwt>
<pdfrwt beam="1">  1       -1 0.71099431E-02 0.14784548E+03</pdfrwt>
<totfact> 0.59121378E+03</totfact>
</mgrwt>
</event>
<event>
 7    1  0.1254976E-005  0.1262023E+03  0.7546771E-02  0.1246780E+00
         -1   -1    0    0    0  501 -0.00000000000E+00  0.00000000000E+00  0.53145992097E+03  0.53145992097E+03  0.00000000000E+00 0.  1.
          1   -1    0    0  501    0  0.00000000000E+00 -0.00000000000E+00 -0.25315259776E+02  0.25315259776E+02  0.00000000000E+00 0. -1.
         23    2    1    2    0    0 -0.15317286720E+02  0.80361985670E+01  0.14118247394E+03  0.17060887407E+03  0.94210918713E+02 0.  0.
          5    1    1    2  502    0  0.63246057260E+02 -0.30644011301E+02  0.16852572191E+03  0.18265302662E+03  0.47000000000E+01 0.  1.
         -5    1    1    2    0  502 -0.47928770541E+02  0.22607812734E+02  0.19643646534E+03  0.20351328005E+03  0.47000000000E+01 0.  1.
        -11    1    3    3    0    0 -0.16336471788E+02 -0.41411568459E+02  0.50535697540E+02  0.67347271946E+02  0.00000000000E+00 0. -1.
         11    1    3    3    0    0  0.10191850687E+01  0.49447767026E+02  0.90646776402E+02  0.10326160213E+03  0.00000000000E+00 0.  1.
<mgrwt>
<rscale>  0 0.11779465E+03</rscale>
<asrwt>0</asrwt>
<pdfrwt beam="2">  1        1 0.38946558E-02 0.12620229E+03</pdfrwt>
<pdfrwt beam="1">  1       -1 0.81763056E-01 0.12620229E+03</pdfrwt>
<totfact> 0.35186024E+03</totfact>
</mgrwt>
</event>
<event>
 7    1  0.1254976E-005  0.1297645E+03  0.7546771E-02  0.1241119E+00
          1   -1    0    0  501    0  0.00000000000E+00  0.00000000000E+00  0.93702405457E+02  0.93702405457E+02  0.00000000000E+00 0. -1.
         -1   -1    0    0    0  501 -0.00000000000E+00 -0.00000000000E+00 -0.14135255615E+03  0.14135255615E+03  0.00000000000E+00 0.  1.
         23    2    1    2    0    0 -0.18951993378E+02  0.29285672136E+02 -0.67787794089E+01  0.99006066954E+02  0.92408986565E+02 0.  0.
          5    1    1    2  502    0  0.35643850275E+02 -0.49655105620E+02  0.24033817428E+02  0.65847004159E+02  0.47000000000E+01 0. -1.
         -5    1    1    2    0  502 -0.16691856897E+02  0.20369433484E+02 -0.64905188714E+02  0.70201890496E+02  0.47000000000E+01 0. -1.
        -11    1    3    3    0    0 -0.21714015378E+02 -0.26136420117E+02 -0.23190763005E+02  0.41139061841E+02  0.00000000000E+00 0.  1.
         11    1    3    3    0    0  0.27620220004E+01  0.55422092253E+02  0.16411983596E+02  0.57867005114E+02  0.00000000000E+00 0. -1.
<mgrwt>
<rscale>  0 0.12120690E+03</rscale>
<asrwt>0</asrwt>
<pdfrwt beam="1">  1        1 0.14415755E-01 0.12976453E+03</pdfrwt>
<pdfrwt beam="2">  1       -1 0.21746547E-01 0.12976453E+03</pdfrwt>
<totfact> 0.65235761E+03</totfact>
</mgrwt>
</event>
<event>
 7    1  0.1254976E-005  0.1253840E+03  0.7546771E-02  0.1251976E+00
         -2   -1    0    0    0  501 -0.00000000000E+00  0.00000000000E+00  0.42565003758E+02  0.42565003758E+02  0.00000000000E+00 0.  1.
          2   -1    0    0  501    0  0.00000000000E+00 -0.00000000000E+00 -0.28349729409E+03  0.28349729409E+03  0.00000000000E+00 0. -1.
         23    2    1    2    0    0 -0.59043217961E+01  0.78628045904E+01 -0.13871565520E+03  0.16429277324E+03  0.87483699229E+02 0.  0.
          5    1    1    2  502    0  0.40209962100E+02 -0.52960878222E+02 -0.41190698515E+02  0.78361082932E+02  0.47000000000E+01 0. -1.
         -5    1    1    2    0  502 -0.34305640304E+02  0.45098073631E+02 -0.61025936614E+02  0.83408441668E+02  0.47000000000E+01 0. -1.
        -11    1    3    3    0    0  0.17927373560E+01 -0.35855569860E+02 -0.96788125060E+02  0.10323166641E+03  0.00000000000E+00 0. -1.
         11    1    3    3    0    0 -0.76970591521E+01  0.43718374450E+02 -0.41927530140E+02  0.61061106834E+02  0.00000000000E+00 0.  1.
<mgrwt>
<rscale>  0 0.11477434E+03</rscale>
<asrwt>0</asrwt>
<pdfrwt beam="2">  1        2 0.43614969E-01 0.12538396E+03</pdfrwt>
<pdfrwt beam="1">  1       -2 0.65484620E-02 0.12538396E+03</pdfrwt>
<totfact> 0.14030818E+04</totfact>
</mgrwt>
</event>
<event>
 7    1  0.1254976E-005  0.1396232E+03  0.7546771E-02  0.1234137E+00
         -1   -1    0    0    0  501 -0.00000000000E+00  0.00000000000E+00  0.30710007415E+02  0.30710007415E+02  0.00000000000E+00 0.  1.
          1   -1    0    0  501    0  0.00000000000E+00 -0.00000000000E+00 -0.44324377226E+03  0.44324377226E+03  0.00000000000E+00 0. -1.
         23    2    1    2    0    0  0.50456928572E+02  0.36422034971E+02 -0.19650736568E+03  0.21673396085E+03  0.66977598845E+02 0.  0.
          5    1    1    2  502    0 -0.33802329865E+01 -0.66375975458E+02 -0.53913616363E+02  0.85708600049E+02  0.47000000000E+01 0.  1.
         -5    1    1    2    0  502 -0.47076695585E+02  0.29953940487E+02 -0.16211278280E+03  0.17151121878E+03  0.47000000000E+01 0.  1.
        -11    1    3    3    0    0 -0.51346783417E+00  0.35141315054E+02 -0.46426676849E+02  0.58228961834E+02  0.00000000000E+00 0.  1.
         11    1    3    3    0    0  0.50970396406E+02  0.12807199164E+01 -0.15008068883E+03  0.15850499902E+03  0.00000000000E+00 0. -1.
<mgrwt>
<rscale>  0 0.12559835E+03</rscale>
<asrwt>0</asrwt>
<pdfrwt beam="2">  1        1 0.68191352E-01 0.13962317E+03</pdfrwt>
<pdfrwt beam="1">  1       -1 0.47246163E-02 0.13962317E+03</pdfrwt>
<totfact> 0.96784184E+03</totfact>
</mgrwt>
</event>
<event>
 7    1  0.1254976E-005  0.1830350E+03  0.7546771E-02  0.1170066E+00
         -2   -1    0    0    0  501 -0.00000000000E+00  0.00000000000E+00  0.23088397370E+02  0.23088397370E+02  0.00000000000E+00 0.  1.
          2   -1    0    0  501    0  0.00000000000E+00 -0.00000000000E+00 -0.12960604278E+04  0.12960604278E+04  0.00000000000E+00 0. -1.
         23    2    1    2    0    0  0.10142628999E+03  0.87116408293E+02 -0.63028159389E+03  0.65090274942E+03  0.92428029898E+02 0.  0.
          5    1    1    2  502    0  0.20529249167E+02 -0.41432892820E+01 -0.24001379613E+02  0.32198961796E+02  0.47000000000E+01 0.  1.
         -5    1    1    2    0  502 -0.12195553915E+03 -0.82973119011E+02 -0.61868905691E+03  0.63604711394E+03  0.47000000000E+01 0.  1.
        -11    1    3    3    0    0  0.16402085420E+02  0.35467631050E+02 -0.57343993806E+02  0.69392469938E+02  0.00000000000E+00 0.  1.
         11    1    3    3    0    0  0.85024204568E+02  0.51648777242E+02 -0.57293760008E+03  0.58151027948E+03  0.00000000000E+00 0. -1.
<mgrwt>
<rscale>  0 0.17768110E+03</rscale>
<asrwt>0</asrwt>
<pdfrwt beam="2">  1        2 0.19939392E+00 0.18303503E+03</pdfrwt>
<pdfrwt beam="1">  1       -2 0.35520609E-02 0.18303503E+03</pdfrwt>
<totfact> 0.57353748E+03</totfact>
</mgrwt>
</event>
<event>
 7    1  0.1254976E-005  0.3543115E+03  0.7546771E-02  0.1061934E+00
         -2   -1    0    0    0  501 -0.00000000000E+00  0.00000000000E+00  0.38373893052E+03  0.38373893052E+03  0.00000000000E+00 0.  1.
          2   -1    0    0  501    0  0.00000000000E+00 -0.00000000000E+00 -0.41685701703E+03  0.41685701703E+03  0.00000000000E+00 0. -1.
         23    2    1    2    0    0  0.12127536168E+03  0.30854824168E+03 -0.21173558003E+03  0.40380775497E+03  0.91208641768E+02 0.  0.
          5    1    1    2  502    0 -0.16698843327E+02 -0.13224799805E+03  0.12959718317E+03  0.18597285888E+03  0.47000000000E+01 0.  1.
         -5    1    1    2    0  502 -0.10457651836E+03 -0.17630024363E+03  0.49020310352E+02  0.21081533370E+03  0.47000000000E+01 0.  1.
        -11    1    3    3    0    0  0.25267090259E+02  0.18000571254E+03 -0.92779805503E+02  0.20407982435E+03  0.00000000000E+00 0.  1.
         11    1    3    3    0    0  0.96008271423E+02  0.12854252914E+03 -0.11895577452E+03  0.19972793063E+03  0.00000000000E+00 0. -1.
<mgrwt>
<rscale>  0 0.35166517E+03</rscale>
<asrwt>0</asrwt>
<pdfrwt beam="2">  1        2 0.64131849E-01 0.35431153E+03</pdfrwt>
<pdfrwt beam="1">  1       -2 0.59036758E-01 0.35431153E+03</pdfrwt>
<totfact> 0.20915982E+02</totfact>
</mgrwt>
</event>
<event>
 7    1  0.1254976E-005  0.1494039E+03  0.7546771E-02  0.1206663E+00
         -1   -1    0    0    0  501 -0.00000000000E+00  0.00000000000E+00  0.11874875465E+03  0.11874875465E+03  0.00000000000E+00 0.  1.
          1   -1    0    0  501    0  0.00000000000E+00 -0.00000000000E+00 -0.16783623571E+03  0.16783623571E+03  0.00000000000E+00 0. -1.
         23    2    1    2    0    0 -0.81014418593E+02 -0.58798714752E+02 -0.18743019719E+02  0.13413072256E+03  0.87287599743E+02 0.  0.
          5    1    1    2  502    0  0.49133351656E+02 -0.24076843356E+02 -0.31920192654E+02  0.63519834147E+02  0.47000000000E+01 0. -1.
         -5    1    1    2    0  502  0.31881066936E+02  0.82875558108E+02  0.15757313068E+01  0.88934433657E+02  0.47000000000E+01 0.  1.
        -11    1    3    3    0    0 -0.80686404939E+01  0.68885795951E+01  0.24626284664E+02  0.26814350349E+02  0.00000000000E+00 0.  1.
         11    1    3    3    0    0 -0.72945778099E+02 -0.65687294347E+02 -0.43369304383E+02  0.10731637221E+03  0.00000000000E+00 0. -1.
<mgrwt>
<rscale>  0 0.14507178E+03</rscale>
<asrwt>0</asrwt>
<pdfrwt beam="2">  1        1 0.25820959E-01 0.14940387E+03</pdfrwt>
<pdfrwt beam="1">  1       -1 0.18269039E-01 0.14940387E+03</pdfrwt>
<totfact> 0.41403091E+03</totfact>
</mgrwt>
</event>
<event>
 7    1  0.1254976E-005  0.1640218E+03  0.7546771E-02  0.1191505E+00
         -2   -1    0    0    0  501 -0.00000000000E+00  0.00000000000E+00  0.20969672088E+03  0.20969672088E+03  0.00000000000E+00 0.  1.
          2   -1    0    0  501    0  0.00000000000E+00 -0.00000000000E+00 -0.11074805865E+03  0.11074805865E+03  0.00000000000E+00 0. -1.
         23    2    1    2    0    0 -0.10616108342E+03 -0.34917626706E+01  0.31474116602E+02  0.14308645302E+03  0.90557964770E+02 0.  0.
          5    1    1    2  502    0 -0.18971781379E+02  0.28340316077E+02  0.25952159206E+02  0.43112719370E+02  0.47000000000E+01 0.  1.
         -5    1    1    2    0  502  0.12513286480E+03 -0.24848553407E+02  0.41522386422E+02  0.13424560713E+03  0.47000000000E+01 0.  1.
        -11    1    3    3    0    0 -0.10674816734E+03  0.14804971739E+02  0.48413895977E+02  0.11814509615E+03  0.00000000000E+00 0.  1.
         11    1    3    3    0    0  0.58708392425E+00 -0.18296734410E+02 -0.16939779375E+02  0.24941356877E+02  0.00000000000E+00 0. -1.
<mgrwt>
<rscale>  0 0.15753735E+03</rscale>
<asrwt>0</asrwt>
<pdfrwt beam="2">  1        2 0.17038163E-01 0.16402183E+03</pdfrwt>
<pdfrwt beam="1">  1       -2 0.32261034E-01 0.16402183E+03</pdfrwt>
<totfact> 0.29144717E+03</totfact>
</mgrwt>
</event>
<event>
 7    1  0.1254976E-005  0.1421915E+03  0.7546771E-02  0.1222479E+00
         -3   -1    0    0    0  501 -0.00000000000E+00  0.00000000000E+00  0.38727233666E+03  0.38727233666E+03  0.00000000000E+00 0.  1.
          3   -1    0    0  501    0  0.00000000000E+00 -0.00000000000E+00 -0.41583709411E+02  0.41583709411E+02  0.00000000000E+00 0. -1.
         23    2    1    2    0    0  0.12611968281E+02  0.66584788791E+02  0.12870985186E+03  0.16943703744E+03  0.86891241489E+02 0.  0.
          5    1    1    2  502    0  0.38668321902E+02 -0.60579007808E+02  0.18495194263E+03  0.19848014104E+03  0.47000000000E+01 0. -1.
         -5    1    1    2    0  502 -0.51280290183E+02 -0.60057809828E+01  0.32026832755E+02  0.60938867587E+02  0.47000000000E+01 0. -1.
        -11    1    3    3    0    0  0.18564259384E+01  0.85599629917E+02  0.11595592538E+03  0.14414062436E+03  0.00000000000E+00 0. -1.
         11    1    3    3    0    0  0.10755542343E+02 -0.19014841126E+02  0.12753926484E+02  0.25296413084E+02  0.00000000000E+00 0.  1.
<mgrwt>
<rscale>  0 0.13341192E+03</rscale>
<asrwt>0</asrwt>
<pdfrwt beam="2">  1        3 0.63974940E-02 0.14219154E+03</pdfrwt>
<pdfrwt beam="1">  1       -3 0.59580357E-01 0.14219154E+03</pdfrwt>
<totfact> 0.99607703E+02</totfact>
</mgrwt>
</event>
<event>
 7    1  0.1254976E-005  0.1675768E+03  0.7546771E-02  0.1186578E+00
          2   -1    0    0  501    0  0.00000000000E+00  0.00000000000E+00  0.23400350397E+03  0.23400350397E+03  0.00000000000E+00 0. -1.
         -2   -1    0    0    0  501 -0.00000000000E+00 -0.00000000000E+00 -0.11039696795E+03  0.11039696795E+03  0.00000000000E+00 0.  1.
         23    2    1    2    0    0 -0.50395591689E+01 -0.11148890885E+03  0.95638106523E+02  0.17450578714E+03  0.94076821657E+02 0.  0.
          5    1    1    2  502    0  0.37836102485E+02  0.10786308759E+02 -0.29414512571E+02  0.49347934685E+02  0.47000000000E+01 0.  1.
         -5    1    1    2    0  502 -0.32796543317E+02  0.10070260009E+03  0.57382942064E+02  0.12054675009E+03  0.47000000000E+01 0.  1.
        -11    1    3    3    0    0 -0.36460737077E+02 -0.92097372027E+02  0.95485982854E+02  0.13758228158E+03  0.00000000000E+00 0. -1.
         11    1    3    3    0    0  0.31421177908E+02 -0.19391536821E+02  0.15212366920E+00  0.36923505562E+02  0.00000000000E+00 0.  1.
<mgrwt>
<rscale>  0 0.16189078E+03</rscale>
<asrwt>0</asrwt>
<pdfrwt beam="1">  1        2 0.36000539E-01 0.16757676E+03</pdfrwt>
<pdfrwt beam="2">  1       -2 0.16984149E-01 0.16757676E+03</pdfrwt>
<totfact> 0.38761085E+03</totfact>
</mgrwt>
</event>
<event>
 7    1  0.1254976E-005  0.1464836E+03  0.7546771E-02  0.1213556E+00
          2   -1    0    0  501    0  0.00000000000E+00  0.00000000000E+00  0.34258690604E+03  0.34258690604E+03  0.00000000000E+00 0. -1.
         -2   -1    0    0    0  501 -0.00000000000E+00 -0.00000000000E+00 -0.59887092653E+02  0.59887092653E+02  0.00000000000E+00 0.  1.
         23    2    1    2    0    0 -0.73894318045E+02  0.19276832235E+02  0.20048132655E+03  0.23449390734E+03  0.94671346146E+02 0.  0.
          5    1    1    2  502    0  0.10628287740E+02  0.31202606403E+02  0.80249677839E+02  0.86883047483E+02  0.47000000000E+01 0. -1.
         -5    1    1    2    0  502  0.63266030305E+02 -0.50479438638E+02  0.19688089916E+01  0.81097043871E+02  0.47000000000E+01 0. -1.
        -11    1    3    3    0    0 -0.52647269842E+02  0.54674316304E+02  0.15784129616E+03  0.17514248673E+03  0.00000000000E+00 0. -1.
         11    1    3    3    0    0 -0.21247048203E+02 -0.35397484070E+02  0.42640030391E+02  0.59351420603E+02  0.00000000000E+00 0.  1.
<mgrwt>
<rscale>  0 0.13983139E+03</rscale>
<asrwt>0</asrwt>
<pdfrwt beam="1">  1        2 0.52705677E-01 0.14648355E+03</pdfrwt>
<pdfrwt beam="2">  1       -2 0.92133991E-02 0.14648355E+03</pdfrwt>
<totfact> 0.68604139E+03</totfact>
</mgrwt>
</event>
<event>
 7    1  0.1254976E-005  0.1475078E+03  0.7546771E-02  0.1212993E+00
          2   -1    0    0  501    0  0.00000000000E+00  0.00000000000E+00  0.13608180584E+03  0.13608180584E+03  0.00000000000E+00 0. -1.
         -2   -1    0    0    0  501 -0.00000000000E+00 -0.00000000000E+00 -0.14189209772E+03  0.14189209772E+03  0.00000000000E+00 0.  1.
         23    2    1    2    0    0 -0.27315653617E+02 -0.73399626610E+02  0.33879606739E+02  0.12521970290E+03  0.91643309206E+02 0.  0.
          5    1    1    2  502    0 -0.31721683980E+02  0.21593971732E+02  0.28981261468E+02  0.48317371265E+02  0.47000000000E+01 0.  1.
         -5    1    1    2    0  502  0.59037337597E+02  0.51805654879E+02 -0.68671160085E+02  0.10443682940E+03  0.47000000000E+01 0.  1.
        -11    1    3    3    0    0  0.18745447106E+02 -0.50714226456E+02 -0.13092847348E+02  0.55630452127E+02  0.00000000000E+00 0.  1.
         11    1    3    3    0    0 -0.46061100723E+02 -0.22685400154E+02  0.46972454087E+02  0.69589250771E+02  0.00000000000E+00 0. -1.
<mgrwt>
<rscale>  0 0.14024988E+03</rscale>
<asrwt>0</asrwt>
<pdfrwt beam="1">  1        2 0.20935663E-01 0.14750782E+03</pdfrwt>
<pdfrwt beam="2">  1       -2 0.21829553E-01 0.14750782E+03</pdfrwt>
<totfact> 0.45691850E+03</totfact>
</mgrwt>
</event>
<event>
 7    1  0.1254976E-005  0.1265666E+03  0.7546771E-02  0.1248395E+00
          1   -1    0    0  501    0  0.00000000000E+00  0.00000000000E+00  0.61749106249E+02  0.61749106249E+02  0.00000000000E+00 0. -1.
         -1   -1    0    0    0  501 -0.00000000000E+00 -0.00000000000E+00 -0.19492602671E+03  0.19492602671E+03  0.00000000000E+00 0.  1.
         23    2    1    2    0    0  0.19124559812E+02  0.50074342042E+01 -0.44520480767E+02  0.10214657098E+03  0.89783214296E+02 0.  0.
          5    1    1    2  502    0  0.11821743977E+02 -0.58052241643E+02 -0.20987958564E+02  0.63026984659E+02  0.47000000000E+01 0. -1.
         -5    1    1    2    0  502 -0.30946303789E+02  0.53044807439E+02 -0.67668481131E+02  0.91501577326E+02  0.47000000000E+01 0. -1.
        -11    1    3    3    0    0  0.70073108300E+01 -0.31069492504E+02  0.11976273434E+02  0.34027149379E+02  0.00000000000E+00 0. -1.
         11    1    3    3    0    0  0.12117248982E+02  0.36076926708E+02 -0.56496754201E+02  0.68119421598E+02  0.00000000000E+00 0.  1.
<mgrwt>
<rscale>  0 0.11684453E+03</rscale>
<asrwt>0</asrwt>
<pdfrwt beam="1">  1        1 0.94998627E-02 0.12656663E+03</pdfrwt>
<pdfrwt beam="2">  1       -1 0.29988619E-01 0.12656663E+03</pdfrwt>
<totfact> 0.66318774E+03</totfact>
</mgrwt>
</event>
<event>
 7    1  0.1254976E-005  0.1358043E+03  0.7546771E-02  0.1228462E+00
         -1   -1    0    0    0  501 -0.00000000000E+00  0.00000000000E+00  0.59136646391E+02  0.59136646391E+02  0.00000000000E+00 0.  1.
          1   -1    0    0  501    0  0.00000000000E+00 -0.00000000000E+00 -0.42610421847E+03  0.42610421847E+03  0.00000000000E+00 0. -1.
         23    2    1    2    0    0  0.51693058430E+02  0.12032887801E+02 -0.32414540822E+03  0.34284512448E+03  0.98262765214E+02 0.  0.
          5    1    1    2  502    0 -0.21703985912E+02 -0.52906788517E+02 -0.65139084809E+02  0.86806576049E+02  0.47000000000E+01 0.  1.
         -5    1    1    2    0  502 -0.29989072518E+02  0.40873900716E+02  0.22316920955E+02  0.55589164332E+02  0.47000000000E+01 0.  1.
        -11    1    3    3    0    0  0.16129640698E+02 -0.24771860109E+02 -0.23195621402E+02  0.37574555414E+02  0.00000000000E+00 0.  1.
         11    1    3    3    0    0  0.35563417732E+02  0.36804747909E+02 -0.30094978682E+03  0.30527056906E+03  0.00000000000E+00 0. -1.
<mgrwt>
<rscale>  0 0.12932411E+03</rscale>
<asrwt>0</asrwt>
<pdfrwt beam="2">  1        1 0.65554494E-01 0.13580430E+03</pdfrwt>
<pdfrwt beam="1">  1       -1 0.90979457E-02 0.13580430E+03</pdfrwt>
<totfact> 0.38116714E+03</totfact>
</mgrwt>
</event>
<event>
 7    1  0.1254976E-005  0.1292495E+03  0.7546771E-02  0.1243536E+00
         -3   -1    0    0    0  501 -0.00000000000E+00  0.00000000000E+00  0.75132798340E+03  0.75132798340E+03  0.00000000000E+00 0.  1.
          3   -1    0    0  501    0  0.00000000000E+00 -0.00000000000E+00 -0.16769193687E+02  0.16769193687E+02  0.00000000000E+00 0. -1.
         23    2    1    2    0    0  0.29955201549E+02 -0.13452174083E+02  0.30330233202E+03  0.31788882380E+03  0.89346094502E+02 0.  0.
          5    1    1    2  502    0  0.33499189789E+02 -0.22429966363E+02  0.27182878348E+03  0.27484227592E+03  0.47000000000E+01 0. -1.
         -5    1    1    2    0  502 -0.63454391338E+02  0.35882140446E+02  0.15942767421E+03  0.17536607736E+03  0.47000000000E+01 0. -1.
        -11    1    3    3    0    0  0.59468548573E+02  0.27309372278E+01  0.22318696074E+03  0.23099001219E+03  0.00000000000E+00 0.  1.
         11    1    3    3    0    0 -0.29513347024E+02 -0.16183111311E+02  0.80115371274E+02  0.86898811607E+02  0.00000000000E+00 0. -1.
<mgrwt>
<rscale>  0 0.11973431E+03</rscale>
<asrwt>0</asrwt>
<pdfrwt beam="2">  1        3 0.25798765E-02 0.12924948E+03</pdfrwt>
<pdfrwt beam="1">  1       -3 0.11558889E+00 0.12924948E+03</pdfrwt>
<totfact> 0.95410610E+02</totfact>
</mgrwt>
</event>
<event>
 7    1  0.1254976E-005  0.1331851E+03  0.7546771E-02  0.1237028E+00
          2   -1    0    0  501    0  0.00000000000E+00  0.00000000000E+00  0.27931434961E+03  0.27931434961E+03  0.00000000000E+00 0. -1.
         -2   -1    0    0    0  501 -0.00000000000E+00 -0.00000000000E+00 -0.48887271067E+02  0.48887271067E+02  0.00000000000E+00 0.  1.
         23    2    1    2    0    0  0.64387599548E+01  0.45512096787E+02  0.11528370089E+03  0.15214402946E+03  0.88003780755E+02 0.  0.
          5    1    1    2  502    0  0.43223994228E+02  0.22193340378E+02  0.47768265071E+02  0.68299013038E+02  0.47000000000E+01 0. -1.
         -5    1    1    2    0  502 -0.49662754182E+02 -0.67705437165E+02  0.67375112584E+02  0.10775857818E+03  0.47000000000E+01 0. -1.
        -11    1    3    3    0    0  0.16628856828E+02  0.45410624849E+02  0.12742493494E+03  0.13629291168E+03  0.00000000000E+00 0. -1.
         11    1    3    3    0    0 -0.10190096873E+02  0.10147193796E+00 -0.12141234051E+02  0.15851117788E+02  0.00000000000E+00 0.  1.
<mgrwt>
<rscale>  0 0.12375493E+03</rscale>
<asrwt>0</asrwt>
<pdfrwt beam="1">  1        2 0.42971437E-01 0.13318513E+03</pdfrwt>
<pdfrwt beam="2">  1       -2 0.75211188E-02 0.13318513E+03</pdfrwt>
<totfact> 0.11591792E+04</totfact>
</mgrwt>
</event>
<event>
 7    1  0.1254976E-005  0.3458493E+03  0.7546771E-02  0.1065456E+00
         -1   -1    0    0    0  501 -0.00000000000E+00  0.00000000000E+00  0.34806849754E+03  0.34806849754E+03  0.00000000000E+00 0.  1.
          1   -1    0    0  501    0  0.00000000000E+00 -0.00000000000E+00 -0.37196244277E+03  0.37196244277E+03  0.00000000000E+00 0. -1.
         23    2    1    2    0    0 -0.28354139316E+03  0.15355580750E+03 -0.12802256696E+03  0.35884610706E+03  0.91682295165E+02 0.  0.
          5    1    1    2  502    0  0.15941028138E+03 -0.14688502245E+03  0.37395478603E+02  0.22001672538E+03  0.47000000000E+01 0. -1.
         -5    1    1    2    0  502  0.12413111178E+03 -0.66707850528E+01  0.66733143138E+02  0.14116810787E+03  0.47000000000E+01 0. -1.
        -11    1    3    3    0    0 -0.17442138395E+03  0.53152690727E+02 -0.40929604385E+02  0.18687766112E+03  0.00000000000E+00 0.  1.
         11    1    3    3    0    0 -0.10912000921E+03  0.10040311677E+03 -0.87092962580E+02  0.17196844594E+03  0.00000000000E+00 0. -1.
<mgrwt>
<rscale>  0 0.34316393E+03</rscale>
<asrwt>0</asrwt>
<pdfrwt beam="2">  1        1 0.57224991E-01 0.34584926E+03</pdfrwt>
<pdfrwt beam="1">  1       -1 0.53549000E-01 0.34584926E+03</pdfrwt>
<totfact> 0.24084499E+02</totfact>
</mgrwt>
</event>
<event>
 7    1  0.1254976E-005  0.1351620E+03  0.7546771E-02  0.1231035E+00
         -2   -1    0    0    0  501 -0.00000000000E+00  0.00000000000E+00  0.18355586346E+02  0.18355586346E+02  0.00000000000E+00 0. -1.
          2   -1    0    0  501    0  0.00000000000E+00 -0.00000000000E+00 -0.80144876825E+03  0.80144876825E+03  0.00000000000E+00 0.  1.
         23    2    1    2    0    0  0.13251402394E+02  0.49692797170E+02 -0.34599288688E+03  0.36228340274E+03  0.94303830110E+02 0.  0.
          5    1    1    2  502    0  0.33055607576E+02 -0.13643636583E+02 -0.32160764214E+02  0.48324184072E+02  0.47000000000E+01 0. -1.
         -5    1    1    2    0  502 -0.46307009970E+02 -0.36049160587E+02 -0.40493953081E+03  0.40919676778E+03  0.47000000000E+01 0. -1.
        -11    1    3    3    0    0 -0.35858255819E+02  0.36499168673E+02 -0.23018177509E+03  0.23580002843E+03  0.00000000000E+00 0. -1.
         11    1    3    3    0    0  0.49109658213E+02  0.13193628497E+02 -0.11581111179E+03  0.12648337431E+03  0.00000000000E+00 0.  1.
<mgrwt>
<rscale>  0 0.12761685E+03</rscale>
<asrwt>0</asrwt>
<pdfrwt beam="2">  1        2 0.12329977E+00 0.13516195E+03</pdfrwt>
<pdfrwt beam="1">  1       -2 0.28239372E-02 0.13516195E+03</pdfrwt>
<totfact> 0.15625945E+04</totfact>
</mgrwt>
</event>
<event>
 7    1  0.1731033E-005  0.2860530E+03  0.7546771E-02  0.1094250E+00
          2   -1    0    0  501    0  0.00000000000E+00  0.00000000000E+00  0.48385400139E+03  0.48385400139E+03  0.00000000000E+00 0. -1.
         -2   -1    0    0    0  501 -0.00000000000E+00 -0.00000000000E+00 -0.16136602979E+03  0.16136602979E+03  0.00000000000E+00 0.  1.
         23    2    1    2    0    0  0.25273637917E+03  0.48225237549E+02  0.16369780052E+03  0.31804934249E+03  0.90316462889E+02 0.  0.
          5    1    1    2  502    0 -0.60154153581E+02  0.36917512222E+02  0.66971810736E+02  0.97410155194E+02  0.47000000000E+01 0. -1.
         -5    1    1    2    0  502 -0.19258222559E+03 -0.85142749771E+02  0.91818360347E+02  0.22976053349E+03  0.47000000000E+01 0. -1.
        -11    1    3    3    0    0  0.97204570846E+02 -0.20874307575E+02  0.83848640300E+02  0.13005790937E+03  0.00000000000E+00 0.  1.
         11    1    3    3    0    0  0.15553180833E+03  0.69099545124E+02  0.79849160224E+02  0.18799143312E+03  0.00000000000E+00 0. -1.
<mgrwt>
<rscale>  0 0.28265143E+03</rscale>
<asrwt>0</asrwt>
<pdfrwt beam="1">  1        2 0.74439076E-01 0.28605304E+03</pdfrwt>
<pdfrwt beam="2">  1       -2 0.24825543E-01 0.28605304E+03</pdfrwt>
<totfact> 0.93194389E+02</totfact>
</mgrwt>
</event>
<event>
 7    1  0.1254976E-005  0.1453665E+03  0.7546771E-02  0.1216718E+00
         -1   -1    0    0    0  501 -0.00000000000E+00  0.00000000000E+00  0.22903369107E+02  0.22903369107E+02  0.00000000000E+00 0.  1.
          1   -1    0    0  501    0  0.00000000000E+00 -0.00000000000E+00 -0.74795100823E+03  0.74795100823E+03  0.00000000000E+00 0. -1.
         23    2    1    2    0    0 -0.62500891125E+02 -0.40005097542E+02 -0.32372843929E+03  0.34401890486E+03  0.89677953126E+02 0.  0.
          5    1    1    2  502    0  0.27669705992E+02  0.47296877130E+02 -0.38225613514E+03  0.38619224496E+03  0.47000000000E+01 0.  1.
         -5    1    1    2    0  502  0.34831185133E+02 -0.72917795881E+01 -0.19063064695E+02  0.40643227516E+02  0.47000000000E+01 0.  1.
        -11    1    3    3    0    0 -0.67016267904E+02 -0.60452622265E+02 -0.21307458240E+03  0.23140111791E+03  0.00000000000E+00 0.  1.
         11    1    3    3    0    0  0.45153767786E+01  0.20447524723E+02 -0.11065385689E+03  0.11261778696E+03  0.00000000000E+00 0. -1.
<mgrwt>
<rscale>  0 0.13751063E+03</rscale>
<asrwt>0</asrwt>
<pdfrwt beam="2">  1        1 0.11506939E+00 0.14536650E+03</pdfrwt>
<pdfrwt beam="1">  1       -1 0.35235952E-02 0.14536650E+03</pdfrwt>
<totfact> 0.73438301E+03</totfact>
</mgrwt>
</event>
<event>
 7    1  0.1254976E-005  0.1308341E+03  0.7546771E-02  0.1235241E+00
         -2   -1    0    0    0  501 -0.00000000000E+00  0.00000000000E+00  0.12350573391E+03  0.12350573391E+03  0.00000000000E+00 0.  1.
          2   -1    0    0  501    0  0.00000000000E+00 -0.00000000000E+00 -0.11741021282E+03  0.11741021282E+03  0.00000000000E+00 0. -1.
         23    2    1    2    0    0 -0.31971054476E+01 -0.38501337483E+02  0.15565362979E+02  0.10973960020E+03  0.10152795111E+03 0.  0.
          5    1    1    2  502    0  0.45697649836E+02  0.54455979426E+02  0.23336775858E+02  0.74969487148E+02  0.47000000000E+01 0. -1.
         -5    1    1    2    0  502 -0.42500544388E+02 -0.15954641943E+02 -0.32806617750E+02  0.56206859377E+02  0.47000000000E+01 0. -1.
        -11    1    3    3    0    0  0.42355377226E+02 -0.26009262033E+02  0.32697357308E+02  0.59494343146E+02  0.00000000000E+00 0.  1.
         11    1    3    3    0    0 -0.45552482673E+02 -0.12492075450E+02 -0.17131994330E+02  0.50245257055E+02  0.00000000000E+00 0. -1.
<mgrwt>
<rscale>  0 0.12489016E+03</rscale>
<asrwt>0</asrwt>
<pdfrwt beam="2">  1        2 0.18063110E-01 0.13083408E+03</pdfrwt>
<pdfrwt beam="1">  1       -2 0.19000882E-01 0.13083408E+03</pdfrwt>
<totfact> 0.67837877E+03</totfact>
</mgrwt>
</event>
<event>
 7    1  0.1254976E-005  0.1496676E+03  0.7546771E-02  0.1223339E+00
         -2   -1    0    0    0  501 -0.00000000000E+00  0.00000000000E+00  0.36490453745E+03  0.36490453745E+03  0.00000000000E+00 0.  1.
          2   -1    0    0  501    0  0.00000000000E+00 -0.00000000000E+00 -0.67409539932E+02  0.67409539932E+02  0.00000000000E+00 0. -1.
         23    2    1    2    0    0  0.24494233842E+02 -0.17084440454E+02 -0.69501619982E+01  0.93068984210E+02  0.87873121447E+02 0.  0.
          5    1    1    2  502    0  0.35427343400E+02 -0.12594708640E+01  0.85736245581E+01  0.36773359451E+02  0.47000000000E+01 0. -1.
         -5    1    1    2    0  502 -0.59921577242E+02  0.18343911318E+02  0.29587153496E+03  0.30247173372E+03  0.47000000000E+01 0.  1.
        -11    1    3    3    0    0 -0.53142616745E+01  0.23955066254E+02  0.23444142563E+02  0.33936917905E+02  0.00000000000E+00 0.  1.
         11    1    3    3    0    0  0.29808495516E+02 -0.41039506708E+02 -0.30394304561E+02  0.59132066305E+02  0.00000000000E+00 0. -1.
<mgrwt>
<rscale>  0 0.13281386E+03</rscale>
<asrwt>0</asrwt>
<pdfrwt beam="2">  1        2 0.10370699E-01 0.14966756E+03</pdfrwt>
<pdfrwt beam="1">  1       -2 0.56139158E-01 0.14966756E+03</pdfrwt>
<totfact> 0.18074367E+03</totfact>
</mgrwt>
</event>
<event>
 7    1  0.1254976E-005  0.2329138E+03  0.7546771E-02  0.1124606E+00
         -2   -1    0    0    0  501 -0.00000000000E+00  0.00000000000E+00  0.61574250275E+02  0.61574250275E+02  0.00000000000E+00 0.  1.
          2   -1    0    0  501    0  0.00000000000E+00 -0.00000000000E+00 -0.22025772686E+03  0.22025772686E+03  0.00000000000E+00 0. -1.
         23    2    1    2    0    0  0.13405001379E+02  0.26041277055E+02 -0.11044343581E+03  0.14469119060E+03  0.88769059647E+02 0.  0.
          5    1    1    2  502    0  0.20850336109E+01 -0.49747134614E+02  0.26840871653E+02  0.56759555658E+02  0.47000000000E+01 0.  1.
         -5    1    1    2    0  502 -0.15490034989E+02  0.23705857558E+02 -0.75080912423E+02  0.80381230874E+02  0.47000000000E+01 0.  1.
        -11    1    3    3    0    0 -0.21615604977E+02 -0.55967825749E+01  0.23209679420E+01  0.22448724817E+02  0.00000000000E+00 0.  1.
         11    1    3    3    0    0  0.35020606356E+02  0.31638059630E+02 -0.11276440375E+03  0.12224246578E+03  0.00000000000E+00 0. -1.
<mgrwt>
<rscale>  0 0.23291376E+03</rscale>
<asrwt>0</asrwt>
<pdfrwt beam="2">  1        2 0.33885804E-01 0.23291376E+03</pdfrwt>
<pdfrwt beam="1">  1       -2 0.94729616E-02 0.23291376E+03</pdfrwt>
<totfact> 0.10870091E+04</totfact>
</mgrwt>
</event>
<event>
 7    1  0.1254976E-005  0.1253632E+03  0.7546771E-02  0.1249990E+00
         -2   -1    0    0    0  501 -0.00000000000E+00  0.00000000000E+00  0.13375111123E+03  0.13375111123E+03  0.00000000000E+00 0.  1.
          2   -1    0    0  501    0  0.00000000000E+00 -0.00000000000E+00 -0.89839732475E+02  0.89839732475E+02  0.00000000000E+00 0. -1.
         23    2    1    2    0    0  0.94602208676E+00 -0.95025406076E+01  0.28762317394E+01  0.91682471829E+02  0.91138409553E+02 0.  0.
          5    1    1    2  502    0 -0.59480351631E+02 -0.13834676850E+02  0.12208141361E+02  0.62453496533E+02  0.47000000000E+01 0. -1.
         -5    1    1    2    0  502  0.58534329544E+02  0.23337217458E+02  0.28827005652E+02  0.69454875341E+02  0.47000000000E+01 0. -1.
        -11    1    3    3    0    0 -0.38007604235E+02 -0.28313488016E+01  0.25771972448E+02  0.46008576152E+02  0.00000000000E+00 0. -1.
         11    1    3    3    0    0  0.38953626321E+02 -0.66711918061E+01 -0.22895740708E+02  0.45673895677E+02  0.00000000000E+00 0.  1.
<mgrwt>
<rscale>  0 0.11591662E+03</rscale>
<asrwt>0</asrwt>
<pdfrwt beam="2">  1        2 0.13821497E-01 0.12536321E+03</pdfrwt>
<pdfrwt beam="1">  1       -2 0.20577094E-01 0.12536321E+03</pdfrwt>
<totfact> 0.80653703E+03</totfact>
</mgrwt>
</event>
<event>
 7    1  0.1254976E-005  0.2331600E+03  0.7546771E-02  0.1127277E+00
          1   -1    0    0  501    0  0.00000000000E+00  0.00000000000E+00  0.92714705426E+02  0.92714705426E+02  0.00000000000E+00 0. -1.
         -1   -1    0    0    0  501 -0.00000000000E+00 -0.00000000000E+00 -0.60172380720E+03  0.60172380720E+03  0.00000000000E+00 0.  1.
         23    2    1    2    0    0 -0.17623142077E+03 -0.87652411543E+02 -0.14193012742E+03  0.25957010064E+03  0.92152141399E+02 0.  0.
          5    1    1    2  502    0  0.11140976113E+03 -0.11693501612E+02 -0.20900588313E+03  0.23718014681E+03  0.47000000000E+01 0.  1.
         -5    1    1    2    0  502  0.64821659635E+02  0.99345913154E+02 -0.15807309122E+03  0.19768826517E+03  0.47000000000E+01 0.  1.
        -11    1    3    3    0    0 -0.37192237907E+02 -0.59759579150E+02 -0.21711634322E+02  0.73660470577E+02  0.00000000000E+00 0.  1.
         11    1    3    3    0    0 -0.13903918286E+03 -0.27892832393E+02 -0.12021849309E+03  0.18590963007E+03  0.00000000000E+00 0. -1.
<mgrwt>
<rscale>  0 0.22909761E+03</rscale>
<asrwt>0</asrwt>
<pdfrwt beam="1">  1        1 0.14263801E-01 0.23315995E+03</pdfrwt>
<pdfrwt beam="2">  1       -1 0.92572890E-01 0.23315995E+03</pdfrwt>
<totfact> 0.47707526E+02</totfact>
</mgrwt>
</event>
<event>
 7    1  0.1254976E-005  0.1418541E+03  0.7546771E-02  0.1221757E+00
         -1   -1    0    0    0  501 -0.00000000000E+00  0.00000000000E+00  0.55113395476E+03  0.55113395476E+03  0.00000000000E+00 0.  1.
          1   -1    0    0  501    0  0.00000000000E+00 -0.00000000000E+00 -0.29757587202E+02  0.29757587202E+02  0.00000000000E+00 0. -1.
         23    2    1    2    0    0 -0.67829817394E+01  0.66717623302E+02  0.19895201786E+03  0.22864156699E+03  0.90541761900E+02 0.  0.
          5    1    1    2  502    0  0.60890090705E+02 -0.59323416883E+02  0.22329347537E+03  0.23897476243E+03  0.47000000000E+01 0.  1.
         -5    1    1    2    0  502 -0.54107108966E+02 -0.73942064198E+01  0.99130874331E+02  0.11327521253E+03  0.47000000000E+01 0.  1.
        -11    1    3    3    0    0  0.30854547444E+02  0.21952369589E+02  0.14216978774E+03  0.14712633406E+03  0.00000000000E+00 0.  1.
         11    1    3    3    0    0 -0.37637529183E+02  0.44765253713E+02  0.56782230117E+02  0.81515232932E+02  0.00000000000E+00 0. -1.
<mgrwt>
<rscale>  0 0.13391701E+03</rscale>
<asrwt>0</asrwt>
<pdfrwt beam="2">  1        1 0.45780908E-02 0.14185409E+03</pdfrwt>
<pdfrwt beam="1">  1       -1 0.84789831E-01 0.14185409E+03</pdfrwt>
<totfact> 0.26314908E+03</totfact>
</mgrwt>
</event>
<event>
 7    1  0.1254976E-005  0.2525601E+03  0.7546771E-02  0.1111698E+00
         -1   -1    0    0    0  501 -0.00000000000E+00  0.00000000000E+00  0.42829150035E+02  0.42829150035E+02  0.00000000000E+00 0.  1.
          1   -1    0    0  501    0  0.00000000000E+00 -0.00000000000E+00 -0.37233173663E+03  0.37233173663E+03  0.00000000000E+00 0. -1.
         23    2    1    2    0    0  0.15126987727E+02  0.59810741841E+01 -0.24673104535E+03  0.26435940017E+03  0.93515157642E+02 0.  0.
          5    1    1    2  502    0 -0.56147483073E+01 -0.33976651936E+01 -0.11576590623E+03  0.11604699295E+03  0.47000000000E+01 0.  1.
         -5    1    1    2    0  502 -0.95122394199E+01 -0.25834089905E+01  0.32994364989E+02  0.34754493549E+02  0.47000000000E+01 0.  1.
        -11    1    3    3    0    0 -0.10419841197E+02  0.45242346471E+02 -0.98286924006E+02  0.10870033319E+03  0.00000000000E+00 0. -1.
         11    1    3    3    0    0  0.25546828924E+02 -0.39261272287E+02 -0.14844412135E+03  0.15565906698E+03  0.00000000000E+00 0.  1.
<mgrwt>
<rscale>  0 0.25256011E+03</rscale>
<asrwt>0</asrwt>
<pdfrwt beam="2">  1        1 0.57281805E-01 0.25256011E+03</pdfrwt>
<pdfrwt beam="1">  1       -1 0.65891000E-02 0.25256011E+03</pdfrwt>
<totfact> 0.76178423E+03</totfact>
</mgrwt>
</event>
<event>
 7    1  0.1254976E-005  0.1358743E+03  0.7546771E-02  0.1233666E+00
          2   -1    0    0  501    0  0.00000000000E+00  0.00000000000E+00  0.23938443793E+03  0.23938443793E+03  0.00000000000E+00 0. -1.
         -2   -1    0    0    0  501 -0.00000000000E+00 -0.00000000000E+00 -0.58660720288E+02  0.58660720288E+02  0.00000000000E+00 0.  1.
         23    2    1    2    0    0  0.25786347678E+02  0.46595560308E+02  0.63542811099E+02  0.11862054112E+03  0.84835499452E+02 0.  0.
          5    1    1    2  502    0  0.29891944283E+02 -0.64732415990E+02  0.38303382571E+02  0.81074367893E+02  0.47000000000E+01 0.  1.
         -5    1    1    2    0  502 -0.55678291962E+02  0.18136855682E+02  0.78877523969E+02  0.98350249197E+02  0.47000000000E+01 0.  1.
        -11    1    3    3    0    0 -0.87492072836E+00  0.66557821905E+02  0.46584192147E+02  0.81245283562E+02  0.00000000000E+00 0.  1.
         11    1    3    3    0    0  0.26661268407E+02 -0.19962261597E+02  0.16958618952E+02  0.37375257563E+02  0.00000000000E+00 0. -1.
<mgrwt>
<rscale>  0 0.12590200E+03</rscale>
<asrwt>0</asrwt>
<pdfrwt beam="1">  1        2 0.36828375E-01 0.13587431E+03</pdfrwt>
<pdfrwt beam="2">  1       -2 0.90247263E-02 0.13587431E+03</pdfrwt>
<totfact> 0.10317616E+04</totfact>
</mgrwt>
</event>
<event>
 7    1  0.1254976E-005  0.1440836E+03  0.7546771E-02  0.1216455E+00
          3   -1    0    0  501    0  0.00000000000E+00  0.00000000000E+00  0.27460897273E+02  0.27460897273E+02  0.00000000000E+00 0. -1.
         -3   -1    0    0    0  501 -0.00000000000E+00 -0.00000000000E+00 -0.64059523167E+03  0.64059523167E+03  0.00000000000E+00 0.  1.
         23    2    1    2    0    0  0.36071871578E+02 -0.72212705996E+02 -0.30762022344E+03  0.33027075397E+03  0.89065785997E+02 0.  0.
          5    1    1    2  502    0 -0.42243948822E+02 -0.54079880299E+01 -0.32313331875E+02  0.53665994479E+02  0.47000000000E+01 0. -1.
         -5    1    1    2    0  502  0.61720772432E+01  0.77620694026E+02 -0.27320077909E+03  0.28411938049E+03  0.47000000000E+01 0.  1.
        -11    1    3    3    0    0  0.52470308334E+02 -0.72007267621E+02 -0.29848413373E+03  0.31149792605E+03  0.00000000000E+00 0.  1.
         11    1    3    3    0    0 -0.16398436756E+02 -0.20543837463E+00 -0.91360897086E+01  0.18772827920E+02  0.00000000000E+00 0. -1.
<mgrwt>
<rscale>  0 0.13770162E+03</rscale>
<asrwt>0</asrwt>
<pdfrwt beam="1">  1        3 0.42247535E-02 0.14408361E+03</pdfrwt>
<pdfrwt beam="2">  1       -3 0.98553111E-01 0.14408361E+03</pdfrwt>
<totfact> 0.65116063E+02</totfact>
</mgrwt>
</event>
<event>
 7    1  0.1254976E-005  0.1256918E+03  0.7546771E-02  0.1246786E+00
          2   -1    0    0  501    0  0.00000000000E+00  0.00000000000E+00  0.13799039799E+03  0.13799039799E+03  0.00000000000E+00 0.  1.
         -2   -1    0    0    0  501 -0.00000000000E+00 -0.00000000000E+00 -0.94903050975E+02  0.94903050975E+02  0.00000000000E+00 0. -1.
         23    2    1    2    0    0 -0.61098871869E+01 -0.11682955093E+02  0.45692545171E+02  0.10717460595E+03  0.96045641831E+02 0.  0.
          5    1    1    2  502    0 -0.22808833131E+02  0.39942256099E+02 -0.46694271591E+02  0.65712036115E+02  0.47000000000E+01 0.  1.
         -5    1    1    2    0  502  0.28918720318E+02 -0.28259301005E+02  0.44089073431E+02  0.60006806899E+02  0.47000000000E+01 0.  1.
        -11    1    3    3    0    0  0.53385664195E+01 -0.28308474673E+02 -0.22184472007E+02  0.36359604343E+02  0.00000000000E+00 0. -1.
         11    1    3    3    0    0 -0.11448453606E+02  0.16625519580E+02  0.67877017178E+02  0.70815001605E+02  0.00000000000E+00 0.  1.
<mgrwt>
<rscale>  0 0.11779128E+03</rscale>
<asrwt>0</asrwt>
<pdfrwt beam="1">  1        2 0.21229292E-01 0.12569185E+03</pdfrwt>
<pdfrwt beam="2">  1       -2 0.14600469E-01 0.12569185E+03</pdfrwt>
<totfact> 0.87037186E+03</totfact>
</mgrwt>
</event>
<event>
 7    1  0.1254976E-005  0.1493599E+03  0.7546771E-02  0.1210351E+00
          1   -1    0    0  501    0  0.00000000000E+00  0.00000000000E+00  0.79979465968E+03  0.79979465968E+03  0.00000000000E+00 0. -1.
         -1   -1    0    0    0  501 -0.00000000000E+00 -0.00000000000E+00 -0.25571926502E+02  0.25571926502E+02  0.00000000000E+00 0.  1.
         23    2    1    2    0    0  0.71196338345E+02  0.40174339591E+02  0.47915181301E+03  0.49464733413E+03  0.91687671464E+02 0.  0.
          5    1    1    2  502    0 -0.94515125148E+02 -0.35036983830E+02  0.28831298075E+03  0.30546221368E+03  0.47000000000E+01 0.  1.
         -5    1    1    2    0  502  0.23318786802E+02 -0.51373557603E+01  0.67579394216E+01  0.25257038373E+02  0.47000000000E+01 0.  1.
        -11    1    3    3    0    0  0.13149655694E+02  0.53939210833E+02  0.14606642461E+03  0.15626180694E+03  0.00000000000E+00 0.  1.
         11    1    3    3    0    0  0.58046682651E+02 -0.13764871242E+02  0.33308538840E+03  0.33838552719E+03  0.00000000000E+00 0. -1.
<mgrwt>
<rscale>  0 0.14223613E+03</rscale>
<asrwt>0</asrwt>
<pdfrwt beam="1">  1        1 0.12304531E+00 0.14935989E+03</pdfrwt>
<pdfrwt beam="2">  1       -1 0.39341431E-02 0.14935989E+03</pdfrwt>
<totfact> 0.56607431E+03</totfact>
</mgrwt>
</event>
<event>
 7    1  0.1254976E-005  0.2298881E+03  0.7546771E-02  0.1148691E+00
          2   -1    0    0  501    0  0.00000000000E+00  0.00000000000E+00  0.85381365833E+03  0.85381365833E+03  0.00000000000E+00 0. -1.
         -2   -1    0    0    0  501 -0.00000000000E+00 -0.00000000000E+00 -0.50686835742E+02  0.50686835742E+02  0.00000000000E+00 0.  1.
         23    2    1    2    0    0  0.58312124616E+02  0.74346551911E+02  0.53280856905E+03  0.54964772612E+03  0.96436185736E+02 0.  0.
          5    1    1    2  502    0 -0.24117642254E+02 -0.12831944030E+03  0.25859144448E+03  0.28972256485E+03  0.47000000000E+01 0. -1.
         -5    1    1    2    0  502 -0.34194482362E+02  0.53972888393E+02  0.11726809066E+02  0.65130203103E+02  0.47000000000E+01 0.  1.
        -11    1    3    3    0    0  0.11185102053E+02 -0.16187397579E+02  0.25685449290E+02  0.32355535129E+02  0.00000000000E+00 0.  1.
         11    1    3    3    0    0  0.47127022563E+02  0.90533949490E+02  0.50712311976E+03  0.51729219099E+03  0.00000000000E+00 0. -1.
<mgrwt>
<rscale>  0 0.20124666E+03</rscale>
<asrwt>0</asrwt>
<pdfrwt beam="1">  1        2 0.13135594E+00 0.22988808E+03</pdfrwt>
<pdfrwt beam="2">  1       -2 0.77979753E-02 0.22988808E+03</pdfrwt>
<totfact> 0.31902163E+03</totfact>
</mgrwt>
</event>
<event>
 7    1  0.1254976E-005  0.1349721E+03  0.7546771E-02  0.1231877E+00
          2   -1    0    0  501    0  0.00000000000E+00  0.00000000000E+00  0.64869120718E+03  0.64869120718E+03  0.00000000000E+00 0. -1.
         -2   -1    0    0    0  501 -0.00000000000E+00 -0.00000000000E+00 -0.24449327033E+02  0.24449327033E+02  0.00000000000E+00 0.  1.
         23    2    1    2    0    0  0.34083845528E+02  0.37831216619E+02  0.37501744356E+03  0.38971454372E+03  0.92986198600E+02 0.  0.
          5    1    1    2  502    0 -0.77647158030E+01 -0.69650810279E+02  0.68962103994E+02  0.98434688861E+02  0.47000000000E+01 0.  1.
         -5    1    1    2    0  502 -0.26319129725E+02  0.31819593659E+02  0.18026233259E+03  0.18499130164E+03  0.47000000000E+01 0.  1.
        -11    1    3    3    0    0  0.52885621184E+02  0.27516010645E+02  0.35628974367E+03  0.36124285628E+03  0.00000000000E+00 0. -1.
         11    1    3    3    0    0 -0.18801775656E+02  0.10315205974E+02  0.18727699895E+02  0.28471687437E+02  0.00000000000E+00 0.  1.
<mgrwt>
<rscale>  0 0.12706492E+03</rscale>
<asrwt>0</asrwt>
<pdfrwt beam="1">  1        2 0.99798634E-01 0.13497212E+03</pdfrwt>
<pdfrwt beam="2">  1       -2 0.37614354E-02 0.13497212E+03</pdfrwt>
<totfact> 0.13196612E+04</totfact>
</mgrwt>
</event>
<event>
 7    1  0.1254976E-005  0.1631265E+03  0.7546771E-02  0.1192452E+00
         -1   -1    0    0    0  501 -0.00000000000E+00  0.00000000000E+00  0.12438923655E+03  0.12438923655E+03  0.00000000000E+00 0.  1.
          1   -1    0    0  501    0  0.00000000000E+00 -0.00000000000E+00 -0.19062575771E+03  0.19062575771E+03  0.00000000000E+00 0. -1.
         23    2    1    2    0    0  0.98851785709E+02 -0.34850331887E+02 -0.61104761023E+02  0.15180776199E+03  0.91244636067E+02 0.  0.
          5    1    1    2  502    0 -0.97948544067E+02  0.73628516930E+02 -0.13121958142E+02  0.12332619988E+03  0.47000000000E+01 0.  1.
         -5    1    1    2    0  502 -0.90324164218E+00 -0.38778185043E+02  0.79901980000E+01  0.39881032394E+02  0.47000000000E+01 0.  1.
        -11    1    3    3    0    0  0.42259862837E+02 -0.33336492926E+02 -0.76129435634E+02  0.93235769625E+02  0.00000000000E+00 0. -1.
         11    1    3    3    0    0  0.56591922872E+02 -0.15138389617E+01  0.15024674611E+02  0.58571992368E+02  0.00000000000E+00 0.  1.
<mgrwt>
<rscale>  0 0.15671888E+03</rscale>
<asrwt>0</asrwt>
<pdfrwt beam="2">  1        1 0.29327039E-01 0.16312653E+03</pdfrwt>
<pdfrwt beam="1">  1       -1 0.19136806E-01 0.16312653E+03</pdfrwt>
<totfact> 0.32912124E+03</totfact>
</mgrwt>
</event>
<event>
 7    1  0.1254976E-005  0.2030267E+03  0.7546771E-02  0.1151356E+00
         -2   -1    0    0    0  501 -0.00000000000E+00  0.00000000000E+00  0.52273835955E+02  0.52273835955E+02  0.00000000000E+00 0.  1.
          2   -1    0    0  501    0  0.00000000000E+00 -0.00000000000E+00 -0.73832252065E+03  0.73832252065E+03  0.00000000000E+00 0. -1.
         23    2    1    2    0    0 -0.10918615683E+03 -0.11693243303E+03 -0.25862979109E+03  0.31740847562E+03  0.90906329924E+02 0.  0.
          5    1    1    2  502    0  0.52435780385E+02  0.62299483609E+02 -0.71001993452E+02  0.10813930736E+03  0.47000000000E+01 0. -1.
         -5    1    1    2    0  502  0.56750376442E+02  0.54632949417E+02 -0.35641690016E+03  0.36504857363E+03  0.47000000000E+01 0. -1.
        -11    1    3    3    0    0 -0.40780855845E+02 -0.90156808671E+02 -0.91184100792E+02  0.13455804915E+03  0.00000000000E+00 0.  1.
         11    1    3    3    0    0 -0.68405300982E+02 -0.26775624355E+02 -0.16744569029E+03  0.18285042647E+03  0.00000000000E+00 0. -1.
<mgrwt>
<rscale>  0 0.19809515E+03</rscale>
<asrwt>0</asrwt>
<pdfrwt beam="2">  1        2 0.11358807E+00 0.20302675E+03</pdfrwt>
<pdfrwt beam="1">  1       -2 0.80421293E-02 0.20302675E+03</pdfrwt>
<totfact> 0.36422911E+03</totfact>
</mgrwt>
</event>
<event>
 7    1  0.1254976E-005  0.1442930E+03  0.7546771E-02  0.1218016E+00
          1   -1    0    0  501    0  0.00000000000E+00  0.00000000000E+00  0.46391723307E+03  0.46391723307E+03  0.00000000000E+00 0. -1.
         -1   -1    0    0    0  501 -0.00000000000E+00 -0.00000000000E+00 -0.36985394983E+02  0.36985394983E+02  0.00000000000E+00 0.  1.
         23    2    1    2    0    0 -0.62258285545E+02 -0.36315139974E+02  0.22020051971E+03  0.24879492334E+03  0.90640837876E+02 0.  0.
          5    1    1    2  502    0  0.46967828769E+02  0.17110427474E+02  0.68538319174E+01  0.50673550098E+02  0.47000000000E+01 0. -1.
         -5    1    1    2    0  502  0.15290456776E+02  0.19204712500E+02  0.19987748647E+03  0.20143415462E+03  0.47000000000E+01 0. -1.
        -11    1    3    3    0    0 -0.15611922055E+02 -0.33407622610E+02  0.17575621827E+02  0.40849771619E+02  0.00000000000E+00 0.  1.
         11    1    3    3    0    0 -0.46646363490E+02 -0.29075173638E+01  0.20262489788E+03  0.20794515172E+03  0.00000000000E+00 0. -1.
<mgrwt>
<rscale>  0 0.13657306E+03</rscale>
<asrwt>0</asrwt>
<pdfrwt beam="1">  1        1 0.71371878E-01 0.14429295E+03</pdfrwt>
<pdfrwt beam="2">  1       -1 0.56900611E-02 0.14429295E+03</pdfrwt>
<totfact> 0.69431185E+03</totfact>
</mgrwt>
</event>
<event>
 7    1  0.1254976E-005  0.1260668E+03  0.7546771E-02  0.1244592E+00
         -1   -1    0    0    0  501 -0.00000000000E+00  0.00000000000E+00  0.20766515206E+03  0.20766515206E+03  0.00000000000E+00 0.  1.
          1   -1    0    0  501    0  0.00000000000E+00 -0.00000000000E+00 -0.69988781386E+02  0.69988781386E+02  0.00000000000E+00 0. -1.
         23    2    1    2    0    0  0.43681527518E+02 -0.13929237959E+02  0.14608562989E+02  0.10147639748E+03  0.89341757405E+02 0.  0.
          5    1    1    2  502    0  0.37213764703E+02  0.23036261684E+02  0.35761326072E+02  0.56714161178E+02  0.47000000000E+01 0. -1.
         -5    1    1    2    0  502 -0.80895292221E+02 -0.91070237250E+01  0.87306481613E+02  0.11946337479E+03  0.47000000000E+01 0.  1.
        -11    1    3    3    0    0 -0.25637910642E+02 -0.27535344690E+01  0.17565118110E+02  0.31199644042E+02  0.00000000000E+00 0.  1.
         11    1    3    3    0    0  0.69319438160E+02 -0.11175703490E+02 -0.29565551210E+01  0.70276753436E+02  0.00000000000E+00 0. -1.
<mgrwt>
<rscale>  0 0.11909813E+03</rscale>
<asrwt>0</asrwt>
<pdfrwt beam="2">  1        1 0.10767505E-01 0.12606680E+03</pdfrwt>
<pdfrwt beam="1">  1       -1 0.31948485E-01 0.12606680E+03</pdfrwt>
<totfact> 0.50501092E+03</totfact>
</mgrwt>
</event>
<event>
 7    1  0.1344283E-005  0.1759232E+03  0.7546771E-02  0.1178976E+00
          3   -1    0    0  501    0  0.00000000000E+00  0.00000000000E+00  0.91071522032E+02  0.91071522032E+02  0.00000000000E+00 0. -1.
         -3   -1    0    0    0  501 -0.00000000000E+00 -0.00000000000E+00 -0.29081186605E+03  0.29081186605E+03  0.00000000000E+00 0.  1.
         23    2    1    2    0    0  0.95957804277E+02  0.78205127192E+02 -0.90159584405E+02  0.17462287374E+03  0.83907420721E+02 0.  0.
          5    1    1    2  502    0 -0.10212289021E+03 -0.71965437582E+02 -0.32009464987E+02  0.12905349573E+03  0.47000000000E+01 0. -1.
         -5    1    1    2    0  502  0.61650859290E+01 -0.62396896099E+01 -0.77571294626E+02  0.78207018617E+02  0.47000000000E+01 0. -1.
        -11    1    3    3    0    0  0.33940799252E+02  0.37434388855E+02 -0.86667634808E+02  0.10032243142E+03  0.00000000000E+00 0.  1.
         11    1    3    3    0    0  0.62017005025E+02  0.40770738337E+02 -0.34919495965E+01  0.74300442319E+02  0.00000000000E+00 0. -1.
<mgrwt>
<rscale>  0 0.16892231E+03</rscale>
<asrwt>0</asrwt>
<pdfrwt beam="1">  1        3 0.14011003E-01 0.17592322E+03</pdfrwt>
<pdfrwt beam="2">  1       -3 0.44740287E-01 0.17592322E+03</pdfrwt>
<totfact> 0.50006035E+02</totfact>
</mgrwt>
</event>
<event>
 7    1  0.1254976E-005  0.1253372E+03  0.7546771E-02  0.1269513E+00
         -4   -1    0    0    0  501 -0.00000000000E+00  0.00000000000E+00  0.59103612459E+02  0.59103612459E+02  0.00000000000E+00 0.  1.
          4   -1    0    0  501    0  0.00000000000E+00 -0.00000000000E+00 -0.16108217641E+03  0.16108217641E+03  0.00000000000E+00 0. -1.
         23    2    1    2    0    0 -0.58420786327E+01 -0.70921299394E+01 -0.63507845499E+02  0.89077393383E+02  0.61782743401E+02 0.  0.
          5    1    1    2  502    0  0.65301900226E+02  0.47845501159E+01 -0.20508401082E+02  0.68774374646E+02  0.47000000000E+01 0.  1.
         -5    1    1    2    0  502 -0.59459821593E+02  0.23075798235E+01 -0.17962317366E+02  0.62334020837E+02  0.47000000000E+01 0.  1.
        -11    1    3    3    0    0 -0.14105626347E+02  0.28838994160E+01 -0.72106145989E+02  0.73529462530E+02  0.00000000000E+00 0. -1.
         11    1    3    3    0    0  0.82635477140E+01 -0.99760293554E+01  0.85983004900E+01  0.15547930854E+02  0.00000000000E+00 0.  1.
<mgrwt>
<rscale>  0 0.10530875E+03</rscale>
<asrwt>0</asrwt>
<pdfrwt beam="2">  1        4 0.24781873E-01 0.12533721E+03</pdfrwt>
<pdfrwt beam="1">  1       -4 0.90928636E-02 0.12533721E+03</pdfrwt>
<totfact> 0.21875404E+03</totfact>
</mgrwt>
</event>
<event>
 7    1  0.1254976E-005  0.1739950E+03  0.7546771E-02  0.1183849E+00
         -2   -1    0    0    0  501 -0.00000000000E+00  0.00000000000E+00  0.46530551912E+02  0.46530551912E+02  0.00000000000E+00 0.  1.
          2   -1    0    0  501    0  0.00000000000E+00 -0.00000000000E+00 -0.65380462917E+03  0.65380462917E+03  0.00000000000E+00 0. -1.
         23    2    1    2    0    0  0.14517995336E+02 -0.10344098614E+03 -0.43067853663E+03  0.45242343680E+03  0.91061267540E+02 0.  0.
          5    1    1    2  502    0  0.53323017380E+02  0.15928923136E+02 -0.95318205245E+02  0.11047499729E+03  0.47000000000E+01 0. -1.
         -5    1    1    2    0  502 -0.67841012716E+02  0.87512063007E+02 -0.81277335384E+02  0.13743674700E+03  0.47000000000E+01 0.  1.
        -11    1    3    3    0    0  0.38473313334E+02 -0.97588492554E+02 -0.39735391439E+03  0.41096696095E+03  0.00000000000E+00 0. -1.
         11    1    3    3    0    0 -0.23955317998E+02 -0.58524935895E+01 -0.33324622245E+02  0.41456475844E+02  0.00000000000E+00 0.  1.
<mgrwt>
<rscale>  0 0.16437037E+03</rscale>
<asrwt>0</asrwt>
<pdfrwt beam="2">  1        2 0.10058532E+00 0.17399497E+03</pdfrwt>
<pdfrwt beam="1">  1       -2 0.71585471E-02 0.17399497E+03</pdfrwt>
<totfact> 0.50204818E+03</totfact>
</mgrwt>
</event>
<event>
 7    1  0.1254976E-005  0.2248201E+03  0.7546771E-02  0.1130340E+00
         -1   -1    0    0    0  501 -0.00000000000E+00  0.00000000000E+00  0.25740877943E+02  0.25740877943E+02  0.00000000000E+00 0.  1.
          1   -1    0    0  501    0  0.00000000000E+00 -0.00000000000E+00 -0.49089326478E+03  0.49089326478E+03  0.00000000000E+00 0. -1.
         23    2    1    2    0    0  0.20376788470E+02 -0.63435715120E+01 -0.25478463049E+03  0.27099515885E+03  0.89820452982E+02 0.  0.
          5    1    1    2  502    0 -0.47308140992E+02  0.20773583123E+02 -0.24782313089E+02  0.57496565131E+02  0.47000000000E+01 0. -1.
         -5    1    1    2    0  502  0.26931352522E+02 -0.14430011611E+02 -0.18558544326E+03  0.18814241875E+03  0.47000000000E+01 0. -1.
        -11    1    3    3    0    0  0.41027499610E+02  0.27528017138E+02 -0.10495272258E+03  0.11600052340E+03  0.00000000000E+00 0.  1.
         11    1    3    3    0    0 -0.20650711140E+02 -0.33871588650E+02 -0.14983190791E+03  0.15499463544E+03  0.00000000000E+00 0. -1.
<mgrwt>
<rscale>  0 0.22482014E+03</rscale>
<asrwt>0</asrwt>
<pdfrwt beam="2">  1        1 0.75522035E-01 0.22482014E+03</pdfrwt>
<pdfrwt beam="1">  1       -1 0.39601354E-02 0.22482014E+03</pdfrwt>
<totfact> 0.11358086E+04</totfact>
</mgrwt>
</event>
<event>
 7    1  0.1254976E-005  0.1400816E+03  0.7546771E-02  0.1224173E+00
         -2   -1    0    0    0  501 -0.00000000000E+00  0.00000000000E+00  0.65549479437E+02  0.65549479437E+02  0.00000000000E+00 0.  1.
          2   -1    0    0  501    0  0.00000000000E+00 -0.00000000000E+00 -0.24788247479E+03  0.24788247479E+03  0.00000000000E+00 0. -1.
         23    2    1    2    0    0  0.40322022611E+02  0.48704632009E+02 -0.10712556114E+03  0.15443823156E+03  0.91527453982E+02 0.  0.
          5    1    1    2  502    0 -0.48995664417E+02  0.24957975833E+02 -0.28384636496E+01  0.55259592518E+02  0.47000000000E+01 0.  1.
         -5    1    1    2    0  502  0.86736418063E+01 -0.73662607842E+02 -0.72368970560E+02  0.10373413014E+03  0.47000000000E+01 0.  1.
        -11    1    3    3    0    0  0.57659843188E+02 -0.14173550737E+00 -0.42692364507E+02  0.71744794881E+02  0.00000000000E+00 0.  1.
         11    1    3    3    0    0 -0.17337820577E+02  0.48846367517E+02 -0.64433196633E+02  0.82693436682E+02  0.00000000000E+00 0. -1.
<mgrwt>
<rscale>  0 0.13223765E+03</rscale>
<asrwt>0</asrwt>
<pdfrwt beam="2">  1        2 0.38135766E-01 0.14008157E+03</pdfrwt>
<pdfrwt beam="1">  1       -2 0.10084535E-01 0.14008157E+03</pdfrwt>
<totfact> 0.83725529E+03</totfact>
</mgrwt>
</event>
<event>
 7    1  0.1254976E-005  0.1183888E+03  0.7546771E-02  0.1253162E+00
         -1   -1    0    0    0  501 -0.00000000000E+00  0.00000000000E+00  0.33170197813E+02  0.33170197813E+02  0.00000000000E+00 0.  1.
          1   -1    0    0  501    0  0.00000000000E+00 -0.00000000000E+00 -0.46575171061E+03  0.46575171061E+03  0.00000000000E+00 0. -1.
         23    2    1    2    0    0 -0.22383197933E+02  0.35436800207E+02 -0.31863770008E+03  0.33460787505E+03  0.93143286259E+02 0.  0.
          5    1    1    2  502    0 -0.16215224528E+01  0.35583298625E+02 -0.12402020545E+02  0.38009217167E+02  0.47000000000E+01 0. -1.
         -5    1    1    2    0  502  0.24004720386E+02 -0.71020098832E+02 -0.10154179217E+03  0.12630481620E+03  0.47000000000E+01 0.  1.
        -11    1    3    3    0    0 -0.58324351574E+01  0.63204448377E+02 -0.26015044142E+03  0.26778176145E+03  0.00000000000E+00 0. -1.
         11    1    3    3    0    0 -0.16550762776E+02 -0.27767648170E+02 -0.58487258661E+02  0.66826113601E+02  0.00000000000E+00 0.  1.
<mgrwt>
<rscale>  0 0.11409884E+03</rscale>
<asrwt>0</asrwt>
<pdfrwt beam="2">  1        1 0.71654106E-01 0.11838880E+03</pdfrwt>
<pdfrwt beam="1">  1       -1 0.51031076E-02 0.11838880E+03</pdfrwt>
<totfact> 0.80148270E+03</totfact>
</mgrwt>
</event>
<event>
 7    1  0.1254976E-005  0.1259296E+03  0.7546771E-02  0.1252035E+00
         -2   -1    0    0    0  501 -0.00000000000E+00  0.00000000000E+00  0.59928404911E+02  0.59928404911E+02  0.00000000000E+00 0.  1.
          2   -1    0    0  501    0  0.00000000000E+00 -0.00000000000E+00 -0.24268621654E+03  0.24268621654E+03  0.00000000000E+00 0. -1.
         23    2    1    2    0    0 -0.12487656619E+02 -0.87819704900E+01 -0.14867527514E+03  0.17215429835E+03  0.85438284332E+02 0.  0.
          5    1    1    2  502    0  0.33461085268E+02  0.25748884590E+02 -0.72053831059E+02  0.83645046806E+02  0.47000000000E+01 0. -1.
         -5    1    1    2    0  502 -0.20973428649E+02 -0.16966914100E+02  0.37971294568E+02  0.46815276294E+02  0.47000000000E+01 0. -1.
        -11    1    3    3    0    0  0.26687023569E+02 -0.24160403323E+02 -0.10713350993E+03  0.11301995959E+03  0.00000000000E+00 0.  1.
         11    1    3    3    0    0 -0.39174680188E+02  0.15378432833E+02 -0.41541765215E+02  0.59134338767E+02  0.00000000000E+00 0. -1.
<mgrwt>
<rscale>  0 0.11474012E+03</rscale>
<asrwt>0</asrwt>
<pdfrwt beam="2">  1        2 0.37336340E-01 0.12592965E+03</pdfrwt>
<pdfrwt beam="1">  1       -2 0.92197547E-02 0.12592965E+03</pdfrwt>
<totfact> 0.97767541E+03</totfact>
</mgrwt>
</event>
<event>
 7    1  0.1254976E-005  0.2286979E+03  0.7546771E-02  0.1130665E+00
         -3   -1    0    0    0  501 -0.00000000000E+00  0.00000000000E+00  0.88911602840E+02  0.88911602840E+02  0.00000000000E+00 0.  1.
          3   -1    0    0  501    0  0.00000000000E+00 -0.00000000000E+00 -0.59629320633E+03  0.59629320633E+03  0.00000000000E+00 0. -1.
         23    2    1    2    0    0 -0.17362648628E+03  0.80855305964E+02 -0.34446510356E+03  0.40441215009E+03  0.90604869228E+02 0.  0.
          5    1    1    2  502    0  0.28951302615E+02  0.33228246323E+02 -0.34405662558E+02  0.56108233735E+02  0.47000000000E+01 0.  1.
         -5    1    1    2    0  502  0.14467518367E+03 -0.11408355229E+03 -0.12851083738E+03  0.22468442535E+03  0.47000000000E+01 0.  1.
        -11    1    3    3    0    0 -0.79242487431E+02 -0.60719758448E+01 -0.17177180735E+03  0.18926646429E+03  0.00000000000E+00 0. -1.
         11    1    3    3    0    0 -0.94383998851E+02  0.86927281809E+02 -0.17269329622E+03  0.21514568580E+03  0.00000000000E+00 0.  1.
<mgrwt>
<rscale>  0 0.22437215E+03</rscale>
<asrwt>0</asrwt>
<pdfrwt beam="2">  1        3 0.91737414E-01 0.22869790E+03</pdfrwt>
<pdfrwt beam="1">  1       -3 0.13678709E-01 0.22869790E+03</pdfrwt>
<totfact> 0.11850707E+02</totfact>
</mgrwt>
</event>
<event>
 7    1  0.1254976E-005  0.1611122E+03  0.7546771E-02  0.1194771E+00
          2   -1    0    0  501    0  0.00000000000E+00  0.00000000000E+00  0.30980556428E+03  0.30980556428E+03  0.00000000000E+00 0. -1.
         -2   -1    0    0    0  501 -0.00000000000E+00 -0.00000000000E+00 -0.71831767190E+02  0.71831767190E+02  0.00000000000E+00 0.  1.
         23    2    1    2    0    0 -0.87950602470E+02 -0.50962398381E+02  0.10317843862E+03  0.17157320572E+03  0.91973366810E+02 0.  0.
          5    1    1    2  502    0  0.62173594051E+02  0.65210060160E+02  0.15116485162E+03  0.17604206915E+03  0.47000000000E+01 0. -1.
         -5    1    1    2    0  502  0.25777008419E+02 -0.14247661779E+02 -0.16369493153E+02  0.34022056600E+02  0.47000000000E+01 0. -1.
        -11    1    3    3    0    0 -0.61125548999E+02  0.10888715262E+02  0.77798664312E+02  0.99536571316E+02  0.00000000000E+00 0.  1.
         11    1    3    3    0    0 -0.26825053471E+02 -0.61851113643E+02  0.25379774303E+02  0.72036634404E+02  0.00000000000E+00 0. -1.
<mgrwt>
<rscale>  0 0.15473614E+03</rscale>
<asrwt>0</asrwt>
<pdfrwt beam="1">  1        2 0.47662394E-01 0.16111222E+03</pdfrwt>
<pdfrwt beam="2">  1       -2 0.11051041E-01 0.16111222E+03</pdfrwt>
<totfact> 0.57645594E+03</totfact>
</mgrwt>
</event>
<event>
 7    1  0.1254976E-005  0.1921093E+03  0.7546771E-02  0.1161321E+00
         -1   -1    0    0    0  501 -0.00000000000E+00  0.00000000000E+00  0.85198994653E+02  0.85198994653E+02  0.00000000000E+00 0.  1.
          1   -1    0    0  501    0  0.00000000000E+00 -0.00000000000E+00 -0.66119625787E+03  0.66119625787E+03  0.00000000000E+00 0. -1.
         23    2    1    2    0    0 -0.12603547469E+03  0.73449114841E+02 -0.51788187275E+03  0.54568805459E+03  0.91071979541E+02 0.  0.
          5    1    1    2  502    0  0.54402356846E+02  0.32699271676E+02 -0.13879233085E+02  0.65142780948E+02  0.47000000000E+01 0.  1.
         -5    1    1    2    0  502  0.71633117840E+02 -0.10614838652E+03 -0.44236157387E+02  0.13556441698E+03  0.47000000000E+01 0.  1.
        -11    1    3    3    0    0 -0.21867215901E+02  0.30983141552E+02 -0.41554005176E+02  0.56257137661E+02  0.00000000000E+00 0.  1.
         11    1    3    3    0    0 -0.10416825879E+03  0.42465973289E+02 -0.47632786757E+03  0.48943091693E+03  0.00000000000E+00 0. -1.
<mgrwt>
<rscale>  0 0.18686360E+03</rscale>
<asrwt>0</asrwt>
<pdfrwt beam="2">  1        1 0.10172250E+00 0.19210929E+03</pdfrwt>
<pdfrwt beam="1">  1       -1 0.13107538E-01 0.19210929E+03</pdfrwt>
<totfact> 0.12195968E+03</totfact>
</mgrwt>
</event>
<event>
 6    1  0.1254976E-005  0.6285263E+03  0.7546771E-02  0.9847929E-01
         -1   -1    0    0    0  501 -0.00000000000E+00  0.00000000000E+00  0.27726702837E+03  0.27726702837E+03  0.00000000000E+00 0.  1.
          1   -1    0    0  501    0  0.00000000000E+00 -0.00000000000E+00 -0.35619566046E+03  0.35619566046E+03  0.00000000000E+00 0. -1.
          5    1    1    2  502    0 -0.36502682711E+02  0.21476933457E+02  0.51216434030E+02  0.66625202669E+02  0.47000000000E+01 0.  1.
         -5    1    1    2    0  502  0.10495222436E+03  0.55164019531E+02  0.17989666312E+03  0.21550623622E+03  0.47000000000E+01 0.  1.
        -11    1    1    2    0    0 -0.22913930782E+02 -0.35932124386E+02 -0.82336332215E+01  0.43404590803E+02  0.00000000000E+00 0.  1.
         11    1    1    2    0    0 -0.45535610863E+02 -0.40708828603E+02 -0.30180809602E+03  0.30792665913E+03  0.00000000000E+00 0. -1.
<mgrwt>
<rscale>  0 0.62852625E+03</rscale>
<asrwt>0</asrwt>
<pdfrwt beam="2">  1        1 0.54799332E-01 0.62852625E+03</pdfrwt>
<pdfrwt beam="1">  1       -1 0.42656466E-01 0.62852625E+03</pdfrwt>
<totfact> 0.38344870E+02</totfact>
</mgrwt>
</event>
<event>
 7    1  0.1254976E-005  0.1760570E+03  0.7546771E-02  0.1177441E+00
         -1   -1    0    0    0  501 -0.00000000000E+00  0.00000000000E+00  0.46349864732E+02  0.46349864732E+02  0.00000000000E+00 0.  1.
          1   -1    0    0  501    0  0.00000000000E+00 -0.00000000000E+00 -0.62380092479E+03  0.62380092479E+03  0.00000000000E+00 0. -1.
         23    2    1    2    0    0 -0.52909345926E+02 -0.11212544655E+03 -0.34962126959E+03  0.38222289666E+03  0.92129234951E+02 0.  0.
          5    1    1    2  502    0  0.93041567699E+02  0.89818013134E+02 -0.17713571546E+03  0.21936991702E+03  0.47000000000E+01 0. -1.
         -5    1    1    2    0  502 -0.40132221772E+02  0.22307433415E+02 -0.50694075015E+02  0.68557975842E+02  0.47000000000E+01 0. -1.
        -11    1    3    3    0    0 -0.49100274306E+02 -0.34063180105E+02 -0.70767840453E+02  0.92624102793E+02  0.00000000000E+00 0. -1.
         11    1    3    3    0    0 -0.38090716203E+01 -0.78062266444E+02 -0.27885342914E+03  0.28959879387E+03  0.00000000000E+00 0.  1.
<mgrwt>
<rscale>  0 0.17039120E+03</rscale>
<asrwt>0</asrwt>
<pdfrwt beam="2">  1        1 0.95969379E-01 0.17605697E+03</pdfrwt>
<pdfrwt beam="1">  1       -1 0.71307480E-02 0.17605697E+03</pdfrwt>
<totfact> 0.33651570E+03</totfact>
</mgrwt>
</event>
<event>
 7    1  0.1254976E-005  0.2082577E+03  0.7546771E-02  0.1163064E+00
          2   -1    0    0  501    0  0.00000000000E+00  0.00000000000E+00  0.93223079827E+03  0.93223079827E+03  0.00000000000E+00 0. -1.
         -2   -1    0    0    0  501 -0.00000000000E+00 -0.00000000000E+00 -0.40896060966E+02  0.40896060966E+02  0.00000000000E+00 0.  1.
         23    2    1    2    0    0  0.49754394227E+02 -0.77157983696E+02  0.60695386325E+03  0.62064458598E+03  0.91530627630E+02 0.  0.
          5    1    1    2  502    0  0.22597256093E+02  0.55155000264E+02  0.26848724452E+03  0.27506399348E+03  0.47000000000E+01 0. -1.
         -5    1    1    2    0  502 -0.72351650321E+02  0.22002983432E+02  0.15893629527E+02  0.77418279777E+02  0.47000000000E+01 0.  1.
        -11    1    3    3    0    0 -0.16873110329E+02  0.71723753329E+01  0.46598351830E+02  0.50075455199E+02  0.00000000000E+00 0.  1.
         11    1    3    3    0    0  0.66627504556E+02 -0.84330359029E+02  0.56035551142E+03  0.57056913078E+03  0.00000000000E+00 0. -1.
<mgrwt>
<rscale>  0 0.18498484E+03</rscale>
<asrwt>0</asrwt>
<pdfrwt beam="1">  1        2 0.14342011E+00 0.20825770E+03</pdfrwt>
<pdfrwt beam="2">  1       -2 0.62917024E-02 0.20825770E+03</pdfrwt>
<totfact> 0.39485240E+03</totfact>
</mgrwt>
</event>
<event>
 7    1  0.1254976E-005  0.6236556E+03  0.7546771E-02  0.9857508E-01
         -1   -1    0    0    0  501 -0.00000000000E+00  0.00000000000E+00  0.31217924418E+03  0.31217924418E+03  0.00000000000E+00 0.  1.
          1   -1    0    0  501    0  0.00000000000E+00 -0.00000000000E+00 -0.31147679714E+03  0.31147679714E+03  0.00000000000E+00 0. -1.
         23    2    1    2    0    0  0.45334156458E+02  0.58839957057E+02 -0.69043472448E+01  0.11671888231E+03  0.89768041019E+02 0.  0.
          5    1    1    2  502    0  0.53414759094E+02  0.18039136492E+03  0.12163744950E+03  0.22408020918E+03  0.47000000000E+01 0. -1.
         -5    1    1    2    0  502 -0.98748915551E+02 -0.23923132198E+03 -0.11403065521E+03  0.28285694983E+03  0.47000000000E+01 0.  1.
        -11    1    3    3    0    0 -0.14360800010E+02  0.30711195847E+01  0.25018963868E+02  0.29010565411E+02  0.00000000000E+00 0. -1.
         11    1    3    3    0    0  0.59694956468E+02  0.55768837472E+02 -0.31923311113E+02  0.87708316898E+02  0.00000000000E+00 0.  1.
<mgrwt>
<rscale>  0 0.62365565E+03</rscale>
<asrwt>0</asrwt>
<pdfrwt beam="2">  1        1 0.47919507E-01 0.62365565E+03</pdfrwt>
<pdfrwt beam="1">  1       -1 0.48027576E-01 0.62365565E+03</pdfrwt>
<totfact> 0.36647958E+02</totfact>
</mgrwt>
</event>
<event>
 7    1  0.1254976E-005  0.1908846E+03  0.7546771E-02  0.1162404E+00
         -2   -1    0    0    0  501 -0.00000000000E+00  0.00000000000E+00  0.96680291700E+02  0.96680291700E+02  0.00000000000E+00 0.  1.
          2   -1    0    0  501    0  0.00000000000E+00 -0.00000000000E+00 -0.36177188083E+03  0.36177188083E+03  0.00000000000E+00 0. -1.
         23    2    1    2    0    0 -0.12748883263E+03  0.67600844948E+02 -0.18370164497E+03  0.25094009159E+03  0.91658924937E+02 0.  0.
          5    1    1    2  502    0 -0.39701896754E+01 -0.56465472207E+02 -0.10823228105E+02  0.57821658782E+02  0.47000000000E+01 0. -1.
         -5    1    1    2    0  502  0.13145902230E+03 -0.11135372741E+02 -0.70566716054E+02  0.14969042216E+03  0.47000000000E+01 0. -1.
        -11    1    3    3    0    0 -0.13606635531E+02  0.76527668151E+01  0.98852092771E+01  0.18477627901E+02  0.00000000000E+00 0. -1.
         11    1    3    3    0    0 -0.11388219710E+03  0.59948078133E+02 -0.19358685425E+03  0.23246246369E+03  0.00000000000E+00 0.  1.
<mgrwt>
<rscale>  0 0.18569356E+03</rscale>
<asrwt>0</asrwt>
<pdfrwt beam="2">  1        2 0.55657214E-01 0.19088463E+03</pdfrwt>
<pdfrwt beam="1">  1       -2 0.14873891E-01 0.19088463E+03</pdfrwt>
<totfact> 0.30442590E+03</totfact>
</mgrwt>
</event>
<event>
 7    1  0.1254976E-005  0.1360184E+03  0.7546771E-02  0.1231061E+00
         -3   -1    0    0    0  501 -0.00000000000E+00  0.00000000000E+00  0.23599343489E+03  0.23599343489E+03  0.00000000000E+00 0.  1.
          3   -1    0    0  501    0  0.00000000000E+00 -0.00000000000E+00 -0.69399341717E+02  0.69399341717E+02  0.00000000000E+00 0. -1.
         23    2    1    2    0    0 -0.14285133361E+02 -0.51680186892E+02  0.23432247935E+02  0.10791791602E+03  0.90676896743E+02 0.  0.
          5    1    1    2  502    0  0.24022271128E+02  0.54706378870E+02  0.16355784408E+03  0.17419275461E+03  0.47000000000E+01 0. -1.
         -5    1    1    2    0  502 -0.97371377673E+01 -0.30261919786E+01 -0.20395998842E+02  0.23282105973E+02  0.47000000000E+01 0. -1.
        -11    1    3    3    0    0 -0.18402543983E+02 -0.96285294124E+01 -0.32042305274E+02  0.38184702840E+02  0.00000000000E+00 0. -1.
         11    1    3    3    0    0  0.41174106224E+01 -0.42051657479E+02  0.55474553209E+02  0.69733213182E+02  0.00000000000E+00 0.  1.
<mgrwt>
<rscale>  0 0.12759979E+03</rscale>
<asrwt>0</asrwt>
<pdfrwt beam="2">  1        3 0.10676822E-01 0.13601841E+03</pdfrwt>
<pdfrwt beam="1">  1       -3 0.36306682E-01 0.13601841E+03</pdfrwt>
<totfact> 0.11408138E+03</totfact>
</mgrwt>
</event>
<event>
 7    1  0.1254976E-005  0.1703359E+03  0.7546771E-02  0.1181508E+00
          2   -1    0    0  501    0  0.00000000000E+00  0.00000000000E+00  0.39672799723E+03  0.39672799723E+03  0.00000000000E+00 0. -1.
         -2   -1    0    0    0  501 -0.00000000000E+00 -0.00000000000E+00 -0.72929034132E+02  0.72929034132E+02  0.00000000000E+00 0.  1.
         23    2    1    2    0    0 -0.98167746671E+02  0.61255854545E+02  0.22231043362E+03  0.27137887967E+03  0.10409313731E+03 0.  0.
          5    1    1    2  502    0  0.21838183981E+02  0.13492684803E+02 -0.22561696647E+02  0.34497521337E+02  0.47000000000E+01 0. -1.
         -5    1    1    2    0  502  0.76329562690E+02 -0.74748539349E+02  0.12405022612E+03  0.16378063035E+03  0.47000000000E+01 0. -1.
        -11    1    3    3    0    0 -0.88666544475E+02  0.74324400564E+01  0.82796944650E+02  0.12154147982E+03  0.00000000000E+00 0.  1.
         11    1    3    3    0    0 -0.95012021961E+01  0.53823414489E+02  0.13951348897E+03  0.14983739985E+03  0.00000000000E+00 0. -1.
<mgrwt>
<rscale>  0 0.16653732E+03</rscale>
<asrwt>0</asrwt>
<pdfrwt beam="1">  1        2 0.61035075E-01 0.17033586E+03</pdfrwt>
<pdfrwt beam="2">  1       -2 0.11219852E-01 0.17033586E+03</pdfrwt>
<totfact> 0.43309663E+03</totfact>
</mgrwt>
</event>
<event>
 7    1  0.1254976E-005  0.1323058E+03  0.7546771E-02  0.1245920E+00
         -1   -1    0    0    0  501 -0.00000000000E+00  0.00000000000E+00  0.29419371495E+03  0.29419371495E+03  0.00000000000E+00 0.  1.
          1   -1    0    0  501    0  0.00000000000E+00 -0.00000000000E+00 -0.41173904368E+02  0.41173904368E+02  0.00000000000E+00 0. -1.
         23    2    1    2    0    0  0.18120579464E+02  0.39397480599E+02  0.71536564637E+02  0.11077687004E+03  0.72618991858E+02 0.  0.
          5    1    1    2  502    0 -0.16750156460E+02 -0.81769957273E+02  0.85615018526E+02  0.11966166910E+03  0.47000000000E+01 0. -1.
         -5    1    1    2    0  502 -0.13704230041E+01  0.42372476674E+02  0.95868227419E+02  0.10492908018E+03  0.47000000000E+01 0. -1.
        -11    1    3    3    0    0  0.10089897546E+02  0.52943424980E+02  0.20998944631E+02  0.57842613675E+02  0.00000000000E+00 0. -1.
         11    1    3    3    0    0  0.80306819179E+01 -0.13545944381E+02  0.50537620006E+02  0.52934256367E+02  0.00000000000E+00 0.  1.
<mgrwt>
<rscale>  0 0.11830501E+03</rscale>
<asrwt>0</asrwt>
<pdfrwt beam="2">  1        1 0.63344470E-02 0.13230584E+03</pdfrwt>
<pdfrwt beam="1">  1       -1 0.45260570E-01 0.13230584E+03</pdfrwt>
<totfact> 0.56224162E+03</totfact>
</mgrwt>
</event>
<event>
 7    1  0.1254976E-005  0.1433512E+03  0.7546771E-02  0.1218927E+00
          2   -1    0    0  501    0  0.00000000000E+00  0.00000000000E+00  0.43338988199E+03  0.43338988199E+03  0.00000000000E+00 0. -1.
         -2   -1    0    0    0  501 -0.00000000000E+00 -0.00000000000E+00 -0.47383186406E+02  0.47383186406E+02  0.00000000000E+00 0.  1.
         23    2    1    2    0    0 -0.62131678226E+02  0.32614063884E+02  0.27834535248E+03  0.30149530051E+03  0.92191422492E+02 0.  0.
          5    1    1    2  502    0  0.50733026303E+01  0.42751142423E+01  0.11080058014E+03  0.11109848586E+03  0.47000000000E+01 0.  1.
         -5    1    1    2    0  502  0.57058375596E+02 -0.36889178126E+02 -0.31392370334E+01  0.68179282026E+02  0.47000000000E+01 0.  1.
        -11    1    3    3    0    0 -0.34209460448E+02  0.61677558281E+02  0.13150704870E+03  0.14922637916E+03  0.00000000000E+00 0.  1.
         11    1    3    3    0    0 -0.27922217778E+02 -0.29063494397E+02  0.14683830378E+03  0.15226892135E+03  0.00000000000E+00 0. -1.
<mgrwt>
<rscale>  0 0.13591996E+03</rscale>
<asrwt>0</asrwt>
<pdfrwt beam="1">  1        2 0.66675364E-01 0.14335115E+03</pdfrwt>
<pdfrwt beam="2">  1       -2 0.72897213E-02 0.14335115E+03</pdfrwt>
<totfact> 0.76584983E+03</totfact>
</mgrwt>
</event>
<event>
 7    1  0.1254976E-005  0.1630822E+03  0.7546771E-02  0.1192555E+00
         -1   -1    0    0    0  501 -0.00000000000E+00  0.00000000000E+00  0.45123991494E+02  0.45123991494E+02  0.00000000000E+00 0.  1.
          1   -1    0    0  501    0  0.00000000000E+00 -0.00000000000E+00 -0.56988825373E+03  0.56988825373E+03  0.00000000000E+00 0. -1.
         23    2    1    2    0    0 -0.91282536166E+02 -0.51364492810E+02 -0.34729360476E+03  0.37399014222E+03  0.91021788835E+02 0.  0.
          5    1    1    2  502    0  0.88446275077E+02  0.47399674370E+02 -0.47931094208E+02  0.11130567145E+03  0.47000000000E+01 0.  1.
         -5    1    1    2    0  502  0.28362610892E+01  0.39648184406E+01 -0.12953956327E+03  0.12971643155E+03  0.47000000000E+01 0.  1.
        -11    1    3    3    0    0 -0.28938103701E+02 -0.56263171204E+02 -0.25338388640E+03  0.26116345872E+03  0.00000000000E+00 0. -1.
         11    1    3    3    0    0 -0.62344432465E+02  0.48986783937E+01 -0.93909718355E+02  0.11282668351E+03  0.00000000000E+00 0.  1.
<mgrwt>
<rscale>  0 0.15663007E+03</rscale>
<asrwt>0</asrwt>
<pdfrwt beam="2">  1        1 0.87675120E-01 0.16308225E+03</pdfrwt>
<pdfrwt beam="1">  1       -1 0.69421522E-02 0.16308225E+03</pdfrwt>
<totfact> 0.39548724E+03</totfact>
</mgrwt>
</event>
<event>
 7    1  0.1254976E-005  0.1376317E+03  0.7546771E-02  0.1229229E+00
          1   -1    0    0  501    0  0.00000000000E+00  0.00000000000E+00  0.30571788301E+03  0.30571788301E+03  0.00000000000E+00 0. -1.
         -1   -1    0    0    0  501 -0.00000000000E+00 -0.00000000000E+00 -0.49223010911E+02  0.49223010911E+02  0.00000000000E+00 0.  1.
         23    2    1    2    0    0  0.50066553332E+02  0.28512809735E+02  0.13467827120E+03  0.17114274679E+03  0.88498378312E+02 0.  0.
          5    1    1    2  502    0 -0.70963685720E+02 -0.26604768836E+02  0.18347018550E+02  0.78117613286E+02  0.47000000000E+01 0.  1.
         -5    1    1    2    0  502  0.20897132388E+02 -0.19080408987E+01  0.10346958235E+03  0.10568053385E+03  0.47000000000E+01 0.  1.
        -11    1    3    3    0    0 -0.15435171879E+02 -0.71549586703E+01 -0.20307528142E+00  0.17014088400E+02  0.00000000000E+00 0.  1.
         11    1    3    3    0    0  0.65501725211E+02  0.35667768405E+02  0.13488134648E+03  0.15412865839E+03  0.00000000000E+00 0. -1.
<mgrwt>
<rscale>  0 0.12881188E+03</rscale>
<asrwt>0</asrwt>
<pdfrwt beam="1">  1        1 0.47033519E-01 0.13763166E+03</pdfrwt>
<pdfrwt beam="2">  1       -1 0.75727711E-02 0.13763166E+03</pdfrwt>
<totfact> 0.76272135E+03</totfact>
</mgrwt>
</event>
<event>
 7    1  0.1254976E-005  0.2332517E+03  0.7546771E-02  0.1124372E+00
         -1   -1    0    0    0  501 -0.00000000000E+00  0.00000000000E+00  0.97531057307E+02  0.97531057307E+02  0.00000000000E+00 0.  1.
          1   -1    0    0  501    0  0.00000000000E+00 -0.00000000000E+00 -0.13945904763E+03  0.13945904763E+03  0.00000000000E+00 0. -1.
         23    2    1    2    0    0  0.17470281105E+02  0.20620229497E-01 -0.57015318238E+02  0.10987759218E+03  0.92288285299E+02 0.  0.
          5    1    1    2  502    0  0.25944216498E+02  0.12001804054E+02 -0.43989130299E+02  0.52671427309E+02  0.47000000000E+01 0.  1.
         -5    1    1    2    0  502 -0.43414497604E+02 -0.12022424283E+02  0.59076458210E+02  0.74441085447E+02  0.47000000000E+01 0.  1.
        -11    1    3    3    0    0 -0.81888050444E+01 -0.35622464635E+02  0.16565491979E+01  0.36589078562E+02  0.00000000000E+00 0.  1.
         11    1    3    3    0    0  0.25659086150E+02  0.35643084865E+02 -0.58671867436E+02  0.73288513623E+02  0.00000000000E+00 0. -1.
<mgrwt>
<rscale>  0 0.23325170E+03</rscale>
<asrwt>0</asrwt>
<pdfrwt beam="2">  1        1 0.21455238E-01 0.23325170E+03</pdfrwt>
<pdfrwt beam="1">  1       -1 0.15004778E-01 0.23325170E+03</pdfrwt>
<totfact> 0.73509180E+03</totfact>
</mgrwt>
</event>
<event>
 7    1  0.1254976E-005  0.1367644E+03  0.7546771E-02  0.1230468E+00
         -2   -1    0    0    0  501 -0.00000000000E+00  0.00000000000E+00  0.47614488622E+02  0.47614488622E+02  0.00000000000E+00 0.  1.
          2   -1    0    0  501    0  0.00000000000E+00 -0.00000000000E+00 -0.40847393333E+03  0.40847393333E+03  0.00000000000E+00 0. -1.
         23    2    1    2    0    0  0.54888332860E+02  0.81694049672E+01 -0.27568591510E+03  0.29497037099E+03  0.89024309676E+02 0.  0.
          5    1    1    2  502    0  0.96922608480E+01  0.34645587190E+02 -0.74363884064E+02  0.82742576012E+02  0.47000000000E+01 0.  1.
         -5    1    1    2    0  502 -0.64580593708E+02 -0.42814992157E+02 -0.10809645541E+02  0.78375474951E+02  0.47000000000E+01 0.  1.
        -11    1    3    3    0    0  0.21747138265E+02  0.42572441709E+02 -0.77085085909E+02  0.90705354227E+02  0.00000000000E+00 0.  1.
         11    1    3    3    0    0  0.33141194595E+02 -0.34403036742E+02 -0.19860082919E+03  0.20426501676E+03  0.00000000000E+00 0. -1.
<mgrwt>
<rscale>  0 0.12799043E+03</rscale>
<asrwt>0</asrwt>
<pdfrwt beam="2">  1        2 0.62842143E-01 0.13676438E+03</pdfrwt>
<pdfrwt beam="1">  1       -2 0.73253061E-02 0.13676438E+03</pdfrwt>
<totfact> 0.80767585E+03</totfact>
</mgrwt>
</event>
<event>
 7    1  0.1254976E-005  0.2245858E+03  0.7546771E-02  0.1130510E+00
          2   -1    0    0  501    0  0.00000000000E+00  0.00000000000E+00  0.59636529921E+03  0.59636529921E+03  0.00000000000E+00 0. -1.
         -2   -1    0    0    0  501 -0.00000000000E+00 -0.00000000000E+00 -0.21144240605E+02  0.21144240605E+02  0.00000000000E+00 0.  1.
         23    2    1    2    0    0 -0.18595739408E+02 -0.19842413733E+01  0.30776936067E+03  0.32170751261E+03  0.91782381548E+02 0.  0.
          5    1    1    2  502    0  0.53059375929E+02 -0.23041588803E+02  0.58141417210E+02  0.82150633495E+02  0.47000000000E+01 0. -1.
         -5    1    1    2    0  502 -0.34463636522E+02  0.25025830176E+02  0.20931028072E+03  0.21365139371E+03  0.47000000000E+01 0. -1.
        -11    1    3    3    0    0 -0.51358442249E+02 -0.20793012887E+02  0.16668513487E+03  0.17565299075E+03  0.00000000000E+00 0.  1.
         11    1    3    3    0    0  0.32762702841E+02  0.18808771514E+02  0.14108422580E+03  0.14605452185E+03  0.00000000000E+00 0. -1.
<mgrwt>
<rscale>  0 0.22458576E+03</rscale>
<asrwt>0</asrwt>
<pdfrwt beam="1">  1        2 0.91748495E-01 0.22458576E+03</pdfrwt>
<pdfrwt beam="2">  1       -2 0.32529605E-02 0.22458576E+03</pdfrwt>
<totfact> 0.18714155E+04</totfact>
</mgrwt>
</event>
<event>
 7    1  0.1254976E-005  0.1337678E+03  0.7546771E-02  0.1234630E+00
          1   -1    0    0  501    0  0.00000000000E+00  0.00000000000E+00  0.21946129581E+03  0.21946129581E+03  0.00000000000E+00 0. -1.
         -1   -1    0    0    0  501 -0.00000000000E+00 -0.00000000000E+00 -0.69773933561E+02  0.69773933561E+02  0.00000000000E+00 0.  1.
         23    2    1    2    0    0  0.46224246584E+02 -0.11491437086E+02  0.10785149039E+03  0.14907793707E+03  0.91233509443E+02 0.  0.
          5    1    1    2  502    0 -0.72648603294E+01 -0.84315018898E+01 -0.42957043186E+02  0.44623603384E+02  0.47000000000E+01 0. -1.
         -5    1    1    2    0  502 -0.38959386255E+02  0.19922938976E+02  0.84792915052E+02  0.95533688916E+02  0.47000000000E+01 0. -1.
        -11    1    3    3    0    0  0.58967644421E+01  0.37468369824E+02  0.53289652687E+02  0.65409767250E+02  0.00000000000E+00 0.  1.
         11    1    3    3    0    0  0.40327482142E+02 -0.48959806911E+02  0.54561837698E+02  0.83668169824E+02  0.00000000000E+00 0. -1.
<mgrwt>
<rscale>  0 0.12528164E+03</rscale>
<asrwt>0</asrwt>
<pdfrwt beam="1">  1        1 0.33763276E-01 0.13376781E+03</pdfrwt>
<pdfrwt beam="2">  1       -1 0.10734451E-01 0.13376781E+03</pdfrwt>
<totfact> 0.67547206E+03</totfact>
</mgrwt>
</event>
<event>
 7    1  0.1254976E-005  0.2411737E+03  0.7546771E-02  0.1121544E+00
         -1   -1    0    0    0  501 -0.00000000000E+00  0.00000000000E+00  0.65954409345E+03  0.65954409345E+03  0.00000000000E+00 0.  1.
          1   -1    0    0  501    0  0.00000000000E+00 -0.00000000000E+00 -0.98174097425E+02  0.98174097425E+02  0.00000000000E+00 0. -1.
         23    2    1    2    0    0  0.15088602242E+03  0.14061850811E+03  0.12365472232E+03  0.25795882534E+03  0.93338677052E+02 0.  0.
          5    1    1    2  502    0 -0.42602459885E+01 -0.76958257797E+02  0.18783128215E+03  0.20308472048E+03  0.47000000000E+01 0.  1.
         -5    1    1    2    0  502 -0.14662577643E+03 -0.63660250311E+02  0.24988399155E+03  0.29667464505E+03  0.47000000000E+01 0.  1.
        -11    1    3    3    0    0 -0.84010200602E+01  0.17600697672E+02  0.30459302414E+02  0.36168090911E+02  0.00000000000E+00 0.  1.
         11    1    3    3    0    0  0.15928704248E+03  0.12301781044E+03  0.93195419909E+02  0.22179073443E+03  0.00000000000E+00 0. -1.
<mgrwt>
<rscale>  0 0.23738956E+03</rscale>
<asrwt>0</asrwt>
<pdfrwt beam="2">  1        1 0.15103708E-01 0.24117372E+03</pdfrwt>
<pdfrwt beam="1">  1       -1 0.10146832E+00 0.24117372E+03</pdfrwt>
<totfact> 0.36143467E+02</totfact>
</mgrwt>
</event>
<event>
 7    1  0.1254976E-005  0.1649522E+03  0.7546771E-02  0.1190333E+00
         -1   -1    0    0    0  501 -0.00000000000E+00  0.00000000000E+00  0.23862933849E+03  0.23862933849E+03  0.00000000000E+00 0.  1.
          1   -1    0    0  501    0  0.00000000000E+00 -0.00000000000E+00 -0.98351389115E+02  0.98351389115E+02  0.00000000000E+00 0. -1.
         23    2    1    2    0    0 -0.75069740748E+02 -0.77313670917E+02  0.75262648800E+02  0.15967814563E+03  0.90662970398E+02 0.  0.
          5    1    1    2  502    0  0.68585828194E+02  0.10838576357E+03  0.67687515399E+02  0.14510402928E+03  0.47000000000E+01 0.  1.
         -5    1    1    2    0  502  0.64839125538E+01 -0.31072092649E+02 -0.26722148213E+01  0.32198552695E+02  0.47000000000E+01 0.  1.
        -11    1    3    3    0    0  0.16629091784E+02 -0.28363326738E+02  0.28625369758E+01  0.33003016758E+02  0.00000000000E+00 0.  1.
         11    1    3    3    0    0 -0.91698832532E+02 -0.48950344179E+02  0.72400111825E+02  0.12667512887E+03  0.00000000000E+00 0. -1.
<mgrwt>
<rscale>  0 0.15855907E+03</rscale>
<asrwt>0</asrwt>
<pdfrwt beam="2">  1        1 0.15130983E-01 0.16495216E+03</pdfrwt>
<pdfrwt beam="1">  1       -1 0.36712206E-01 0.16495216E+03</pdfrwt>
<totfact> 0.25873694E+03</totfact>
</mgrwt>
</event>
<event>
 6    1  0.1254976E-005  0.1191049E+03  0.7546771E-02  0.1288051E+00
          2   -1    0    0  501    0  0.00000000000E+00  0.00000000000E+00  0.77156951036E+03  0.77156951036E+03  0.00000000000E+00 0. -1.
         -2   -1    0    0    0  501 -0.00000000000E+00 -0.00000000000E+00 -0.93927361443E+01  0.93927361443E+01  0.00000000000E+00 0.  1.
          5    1    1    2  502    0 -0.40671948108E+01 -0.48310666218E+02  0.27027223660E+03  0.27462635420E+03  0.47000000000E+01 0. -1.
         -5    1    1    2    0  502  0.47700732008E+02  0.48615177036E+02  0.25508091767E+03  0.26405900824E+03  0.47000000000E+01 0.  1.
        -11    1    1    2    0    0 -0.55766621452E+01 -0.96396986120E+01  0.36677299095E+02  0.38330760740E+02  0.00000000000E+00 0. -1.
         11    1    1    2    0    0 -0.38056875052E+02  0.93351877943E+01  0.20014632085E+03  0.20394612332E+03  0.00000000000E+00 0.  1.
<mgrwt>
<rscale>  0 0.96401254E+02</rscale>
<asrwt>0</asrwt>
<pdfrwt beam="1">  1        2 0.11870295E+00 0.11910492E+03</pdfrwt>
<pdfrwt beam="2">  1       -2 0.14450369E-02 0.11910492E+03</pdfrwt>
<totfact> 0.42789342E+04</totfact>
</mgrwt>
</event>
<event>
 7    1  0.1254976E-005  0.1306982E+03  0.7546771E-02  0.1240467E+00
         -1   -1    0    0    0  501 -0.00000000000E+00  0.00000000000E+00  0.25467267988E+02  0.25467267988E+02  0.00000000000E+00 0.  1.
          1   -1    0    0  501    0  0.00000000000E+00 -0.00000000000E+00 -0.51512544239E+03  0.51512544239E+03  0.00000000000E+00 0. -1.
         23    2    1    2    0    0 -0.37817012840E+02 -0.51558915077E+01 -0.19374299296E+03  0.21709956074E+03  0.90217305862E+02 0.  0.
          5    1    1    2  502    0  0.68638625725E+02  0.23490222367E+02 -0.26833386948E+03  0.27800756644E+03  0.47000000000E+01 0. -1.
         -5    1    1    2    0  502 -0.30821612884E+02 -0.18334330859E+02 -0.27581311964E+02  0.45485583194E+02  0.47000000000E+01 0. -1.
        -11    1    3    3    0    0 -0.41766700100E+02  0.19450973717E+02 -0.18505877748E+03  0.19070801960E+03  0.00000000000E+00 0.  1.
         11    1    3    3    0    0  0.39496872603E+01 -0.24606865225E+02 -0.86842154788E+01  0.26391541148E+02  0.00000000000E+00 0. -1.
<mgrwt>
<rscale>  0 0.12160818E+03</rscale>
<asrwt>0</asrwt>
<pdfrwt beam="2">  1        1 0.79250072E-01 0.13069821E+03</pdfrwt>
<pdfrwt beam="1">  1       -1 0.39180410E-02 0.13069821E+03</pdfrwt>
<totfact> 0.10447224E+04</totfact>
</mgrwt>
</event>
<event>
 7    1  0.4170606E-005  0.1736143E+03  0.7546771E-02  0.1180107E+00
         -2   -1    0    0    0  501 -0.00000000000E+00  0.00000000000E+00  0.16811202379E+02  0.16811202379E+02  0.00000000000E+00 0.  1.
          2   -1    0    0  501    0  0.00000000000E+00 -0.00000000000E+00 -0.16040391690E+04  0.16040391690E+04  0.00000000000E+00 0. -1.
         23    2    1    2    0    0  0.99532778075E+02  0.67898580574E+02 -0.85244223018E+03  0.86583247886E+03  0.92147352034E+02 0.  0.
          5    1    1    2  502    0 -0.47856645800E+02 -0.97411770954E+02 -0.37911711481E+03  0.39437442666E+03  0.47000000000E+01 0.  1.
         -5    1    1    2    0  502 -0.51676132275E+02  0.29513190379E+02 -0.35566862158E+03  0.36064346581E+03  0.47000000000E+01 0.  1.
        -11    1    3    3    0    0  0.62252704705E+02 -0.12053706003E+02 -0.36842673642E+03  0.37384348487E+03  0.00000000000E+00 0. -1.
         11    1    3    3    0    0  0.37280073370E+02  0.79952286577E+02 -0.48401549376E+03  0.49198899398E+03  0.00000000000E+00 0.  1.
<mgrwt>
<rscale>  0 0.16785116E+03</rscale>
<asrwt>0</asrwt>
<pdfrwt beam="2">  1        2 0.24677518E+00 0.17361434E+03</pdfrwt>
<pdfrwt beam="1">  1       -2 0.25863396E-02 0.17361434E+03</pdfrwt>
<totfact> 0.62833614E+03</totfact>
</mgrwt>
</event>
<event>
 7    1  0.1254976E-005  0.1543617E+03  0.7546771E-02  0.1206626E+00
          1   -1    0    0  501    0  0.00000000000E+00  0.00000000000E+00  0.75836166078E+02  0.75836166078E+02  0.00000000000E+00 0. -1.
         -1   -1    0    0    0  501 -0.00000000000E+00 -0.00000000000E+00 -0.26059430756E+03  0.26059430756E+03  0.00000000000E+00 0.  1.
         23    2    1    2    0    0  0.90527086823E+02 -0.27648320236E+01 -0.46416673672E+02  0.12914831853E+03  0.79510897621E+02 0.  0.
          5    1    1    2  502    0 -0.41134487891E+02 -0.28725644103E+02 -0.13969015722E+03  0.14850130891E+03  0.47000000000E+01 0. -1.
         -5    1    1    2    0  502 -0.49392598932E+02  0.31490476126E+02  0.13486894150E+01  0.58780846192E+02  0.47000000000E+01 0. -1.
        -11    1    3    3    0    0  0.73707420968E+02  0.32833998543E+02 -0.25859211625E+02  0.84732250011E+02  0.00000000000E+00 0.  1.
         11    1    3    3    0    0  0.16819665855E+02 -0.35598830566E+02 -0.20557462047E+02  0.44416068523E+02  0.00000000000E+00 0. -1.
<mgrwt>
<rscale>  0 0.14510031E+03</rscale>
<asrwt>0</asrwt>
<pdfrwt beam="1">  1        1 0.11667102E-01 0.15436169E+03</pdfrwt>
<pdfrwt beam="2">  1       -1 0.40091432E-01 0.15436169E+03</pdfrwt>
<totfact> 0.31088304E+03</totfact>
</mgrwt>
</event>
<event>
 7    1  0.1254976E-005  0.2021316E+03  0.7546771E-02  0.1153364E+00
         -1   -1    0    0    0  501 -0.00000000000E+00  0.00000000000E+00  0.44202277614E+03  0.44202277614E+03  0.00000000000E+00 0.  1.
          1   -1    0    0  501    0  0.00000000000E+00 -0.00000000000E+00 -0.82406054208E+02  0.82406054208E+02  0.00000000000E+00 0. -1.
         23    2    1    2    0    0  0.23954955955E+02  0.15702586989E+03  0.14345778814E+03  0.22848646334E+03  0.79968513935E+02 0.  0.
          5    1    1    2  502    0  0.16554072865E+02 -0.10462424077E+03  0.20187057859E+03  0.22802212521E+03  0.47000000000E+01 0. -1.
         -5    1    1    2    0  502 -0.40509028820E+02 -0.52401629124E+02  0.14288355197E+02  0.67920241792E+02  0.47000000000E+01 0. -1.
        -11    1    3    3    0    0  0.31315347001E+02  0.63499623636E+02  0.20276087892E+02  0.73647626574E+02  0.00000000000E+00 0. -1.
         11    1    3    3    0    0 -0.73603910459E+01  0.93526246258E+02  0.12318170025E+03  0.15483883677E+03  0.00000000000E+00 0.  1.
<mgrwt>
<rscale>  0 0.19576323E+03</rscale>
<asrwt>0</asrwt>
<pdfrwt beam="2">  1        1 0.12677855E-01 0.20213164E+03</pdfrwt>
<pdfrwt beam="1">  1       -1 0.68003503E-01 0.20213164E+03</pdfrwt>
<totfact> 0.10531374E+03</totfact>
</mgrwt>
</event>
<event>
 7    1  0.1254976E-005  0.1391006E+03  0.7546771E-02  0.1223946E+00
         -2   -1    0    0    0  501 -0.00000000000E+00  0.00000000000E+00  0.24944773955E+03  0.24944773955E+03  0.00000000000E+00 0.  1.
          2   -1    0    0  501    0  0.00000000000E+00 -0.00000000000E+00 -0.71393191790E+02  0.71393191790E+02  0.00000000000E+00 0. -1.
         23    2    1    2    0    0 -0.49877773700E+02  0.48583786129E+02  0.30715667477E+02  0.11821391093E+03  0.90459382734E+02 0.  0.
          5    1    1    2  502    0 -0.12951702757E+01  0.25723061720E+02  0.94292575453E+02  0.97859762701E+02  0.47000000000E+01 0. -1.
         -5    1    1    2    0  502  0.51172943976E+02 -0.74306847849E+02  0.53046304832E+02  0.10476725771E+03  0.47000000000E+01 0.  1.
        -11    1    3    3    0    0  0.18405633122E+02  0.35151736670E+02  0.28010194799E+02  0.48569362094E+02  0.00000000000E+00 0.  1.
         11    1    3    3    0    0 -0.68283406823E+02  0.13432049458E+02  0.27054726774E+01  0.69644548834E+02  0.00000000000E+00 0. -1.
<mgrwt>
<rscale>  0 0.13239427E+03</rscale>
<asrwt>0</asrwt>
<pdfrwt beam="2">  1        2 0.10983568E-01 0.13910055E+03</pdfrwt>
<pdfrwt beam="1">  1       -2 0.38376575E-01 0.13910055E+03</pdfrwt>
<totfact> 0.35262062E+03</totfact>
</mgrwt>
</event>
<event>
 7    1  0.1254976E-005  0.1531301E+03  0.7546771E-02  0.1205452E+00
         -4   -1    0    0    0  501 -0.00000000000E+00  0.00000000000E+00  0.41595496271E+03  0.41595496271E+03  0.00000000000E+00 0. -1.
          4   -1    0    0  501    0  0.00000000000E+00 -0.00000000000E+00 -0.47207335543E+02  0.47207335543E+02  0.00000000000E+00 0.  1.
         23    2    1    2    0    0  0.81663959222E+02 -0.33974563426E+02  0.15290414497E+03  0.19851680829E+03  0.90586822610E+02 0.  0.
          5    1    1    2  502    0 -0.15590268007E+02  0.33098562221E+02 -0.20104585101E+01  0.36941889788E+02  0.47000000000E+01 0. -1.
         -5    1    1    2    0  502 -0.66073691215E+02  0.87600120467E+00  0.21785394071E+03  0.22770360018E+03  0.47000000000E+01 0. -1.
        -11    1    3    3    0    0  0.65235229800E+02 -0.30575773035E+02  0.16350333101E+03  0.17867247229E+03  0.00000000000E+00 0. -1.
         11    1    3    3    0    0  0.16428729422E+02 -0.33987903912E+01 -0.10599186042E+02  0.19844336000E+02  0.00000000000E+00 0.  1.
<mgrwt>
<rscale>  0 0.14601906E+03</rscale>
<asrwt>0</asrwt>
<pdfrwt beam="2">  1        4 0.72626673E-02 0.15313010E+03</pdfrwt>
<pdfrwt beam="1">  1       -4 0.63993069E-01 0.15313010E+03</pdfrwt>
<totfact> 0.50955712E+02</totfact>
</mgrwt>
</event>
<event>
 7    1  0.1254976E-005  0.1311936E+03  0.7546771E-02  0.1240302E+00
         -2   -1    0    0    0  501 -0.00000000000E+00  0.00000000000E+00  0.22115794880E+03  0.22115794880E+03  0.00000000000E+00 0.  1.
          2   -1    0    0  501    0  0.00000000000E+00 -0.00000000000E+00 -0.59075185344E+02  0.59075185344E+02  0.00000000000E+00 0. -1.
         23    2    1    2    0    0 -0.93938590559E+01  0.38712973185E+02  0.75241852121E+02  0.12290196774E+03  0.88637568124E+02 0.  0.
          5    1    1    2  502    0 -0.34001101885E+02 -0.68255473613E+02  0.37391663418E+02  0.85059456268E+02  0.47000000000E+01 0. -1.
         -5    1    1    2    0  502  0.43394960941E+02  0.29542500428E+02  0.49449247922E+02  0.72271710140E+02  0.47000000000E+01 0. -1.
        -11    1    3    3    0    0  0.16138769013E+02 -0.23822725906E+02  0.30205760503E+02  0.41717743256E+02  0.00000000000E+00 0.  1.
         11    1    3    3    0    0 -0.25532628068E+02  0.62535699091E+02  0.45036091618E+02  0.81184224484E+02  0.00000000000E+00 0. -1.
<mgrwt>
<rscale>  0 0.12171003E+03</rscale>
<asrwt>0</asrwt>
<pdfrwt beam="2">  1        2 0.90884902E-02 0.13119357E+03</pdfrwt>
<pdfrwt beam="1">  1       -2 0.34024299E-01 0.13119357E+03</pdfrwt>
<totfact> 0.55408045E+03</totfact>
</mgrwt>
</event>
<event>
 7    1  0.1254976E-005  0.1490232E+03  0.7546771E-02  0.1210923E+00
         -1   -1    0    0    0  501 -0.00000000000E+00  0.00000000000E+00  0.50005715676E+02  0.50005715676E+02  0.00000000000E+00 0.  1.
          1   -1    0    0  501    0  0.00000000000E+00 -0.00000000000E+00 -0.37627088167E+03  0.37627088167E+03  0.00000000000E+00 0. -1.
         23    2    1    2    0    0 -0.78247493097E+02 -0.21425413189E+02 -0.11533285098E+03  0.16801249822E+03  0.91349956415E+02 0.  0.
          5    1    1    2  502    0  0.91047812142E+02 -0.17047127298E+02 -0.19208546111E+03  0.21330546879E+03  0.47000000000E+01 0.  1.
         -5    1    1    2    0  502 -0.12800319045E+02  0.38472540488E+02 -0.18846853892E+02  0.44958630327E+02  0.47000000000E+01 0.  1.
        -11    1    3    3    0    0 -0.11766735318E+02 -0.24829155899E+02  0.73420500141E+01  0.28440266193E+02  0.00000000000E+00 0.  1.
         11    1    3    3    0    0 -0.66480757778E+02  0.34037427096E+01 -0.12267490100E+03  0.13957223203E+03  0.00000000000E+00 0. -1.
<mgrwt>
<rscale>  0 0.14180293E+03</rscale>
<asrwt>0</asrwt>
<pdfrwt beam="2">  1        1 0.57887829E-01 0.14902316E+03</pdfrwt>
<pdfrwt beam="1">  1       -1 0.76931868E-02 0.14902316E+03</pdfrwt>
<totfact> 0.57766878E+03</totfact>
</mgrwt>
</event>
<event>
 7    1  0.1254976E-005  0.1584577E+03  0.7546771E-02  0.1198211E+00
          2   -1    0    0  501    0  0.00000000000E+00  0.00000000000E+00  0.12100038537E+03  0.12100038537E+03  0.00000000000E+00 0. -1.
         -2   -1    0    0    0  501 -0.00000000000E+00 -0.00000000000E+00 -0.23032644106E+03  0.23032644106E+03  0.00000000000E+00 0.  1.
         23    2    1    2    0    0 -0.75388262173E+00 -0.97379782631E+02  0.33731393416E+02  0.13784548098E+03  0.91543319363E+02 0.  0.
          5    1    1    2  502    0  0.18205602659E+02  0.47059810464E+02  0.97353403467E+01  0.51603648910E+02  0.47000000000E+01 0. -1.
         -5    1    1    2    0  502 -0.17451720037E+02  0.50319972166E+02 -0.15279278945E+03  0.16187769654E+03  0.47000000000E+01 0. -1.
        -11    1    3    3    0    0 -0.34031761042E+02 -0.16365058276E+02 -0.11229046591E+02  0.39396286365E+02  0.00000000000E+00 0.  1.
         11    1    3    3    0    0  0.33277878420E+02 -0.81014724354E+02  0.44960440007E+02  0.98449194613E+02  0.00000000000E+00 0. -1.
<mgrwt>
<rscale>  0 0.15185570E+03</rscale>
<asrwt>0</asrwt>
<pdfrwt beam="1">  1        2 0.18615444E-01 0.15845773E+03</pdfrwt>
<pdfrwt beam="2">  1       -2 0.35434837E-01 0.15845773E+03</pdfrwt>
<totfact> 0.22105124E+03</totfact>
</mgrwt>
</event>
<event>
 7    1  0.1254976E-005  0.1447428E+03  0.7546771E-02  0.1226562E+00
         -1   -1    0    0    0  501 -0.00000000000E+00  0.00000000000E+00  0.47037625805E+03  0.47037625805E+03  0.00000000000E+00 0.  1.
          1   -1    0    0  501    0  0.00000000000E+00 -0.00000000000E+00 -0.31157205306E+02  0.31157205306E+02  0.00000000000E+00 0. -1.
         23    2    1    2    0    0  0.60682541739E+01  0.72726097216E+02  0.14896218283E+03  0.17718870358E+03  0.62291217981E+02 0.  0.
          5    1    1    2  502    0 -0.39454296890E+02 -0.83417210504E+02  0.12555858471E+03  0.15589137483E+03  0.47000000000E+01 0.  1.
         -5    1    1    2    0  502  0.33386042716E+02  0.10691113289E+02  0.16469828520E+03  0.16845338495E+03  0.47000000000E+01 0.  1.
        -11    1    3    3    0    0 -0.67043715176E+01  0.53354836531E+02  0.43390396330E+02  0.69097132157E+02  0.00000000000E+00 0. -1.
         11    1    3    3    0    0  0.12772625692E+02  0.19371260685E+02  0.10557178650E+03  0.10809157142E+03  0.00000000000E+00 0.  1.
<mgrwt>
<rscale>  0 0.13060421E+03</rscale>
<asrwt>0</asrwt>
<pdfrwt beam="2">  1        1 0.47934165E-02 0.14474278E+03</pdfrwt>
<pdfrwt beam="1">  1       -1 0.72365573E-01 0.14474278E+03</pdfrwt>
<totfact> 0.34159493E+03</totfact>
</mgrwt>
</event>
<event>
 7    1  0.1254976E-005  0.1511547E+03  0.7546771E-02  0.1207997E+00
          1   -1    0    0  501    0  0.00000000000E+00  0.00000000000E+00  0.58352244129E+03  0.58352244129E+03  0.00000000000E+00 0. -1.
         -1   -1    0    0    0  501 -0.00000000000E+00 -0.00000000000E+00 -0.33689308789E+02  0.33689308789E+02  0.00000000000E+00 0.  1.
         23    2    1    2    0    0  0.53595430890E+02 -0.65954048910E+02  0.30493556391E+03  0.32942264046E+03  0.91165624698E+02 0.  0.
          5    1    1    2  502    0 -0.37143415860E+02 -0.51115443357E+01  0.63793362995E+01  0.38321627821E+02  0.47000000000E+01 0.  1.
         -5    1    1    2    0  502 -0.16452015029E+02  0.71065593245E+02  0.23851823229E+03  0.24946748180E+03  0.47000000000E+01 0.  1.
        -11    1    3    3    0    0  0.26102263469E+02 -0.85280295485E+02  0.24470746830E+03  0.26045307063E+03  0.00000000000E+00 0. -1.
         11    1    3    3    0    0  0.27493167421E+02  0.19326246576E+02  0.60228095612E+02  0.68969569830E+02  0.00000000000E+00 0.  1.
<mgrwt>
<rscale>  0 0.14403739E+03</rscale>
<asrwt>0</asrwt>
<pdfrwt beam="1">  1        1 0.89772676E-01 0.15115473E+03</pdfrwt>
<pdfrwt beam="2">  1       -1 0.51829710E-02 0.15115473E+03</pdfrwt>
<totfact> 0.59083376E+03</totfact>
</mgrwt>
</event>
<event>
 7    1  0.1254976E-005  0.1297667E+03  0.7546771E-02  0.1239118E+00
         -1   -1    0    0    0  501 -0.00000000000E+00  0.00000000000E+00  0.20560180358E+03  0.20560180358E+03  0.00000000000E+00 0.  1.
          1   -1    0    0  501    0  0.00000000000E+00 -0.00000000000E+00 -0.65924207843E+02  0.65924207843E+02  0.00000000000E+00 0. -1.
         23    2    1    2    0    0 -0.26470806719E+02  0.22646482174E+02  0.56017125171E+02  0.11712887771E+03  0.96786822031E+02 0.  0.
          5    1    1    2  502    0  0.23897566296E+02  0.38691233339E+02 -0.54943925274E+01  0.46047622755E+02  0.47000000000E+01 0.  1.
         -5    1    1    2    0  502  0.25732404230E+01 -0.61337715513E+02  0.89154863091E+02  0.10834951095E+03  0.47000000000E+01 0.  1.
        -11    1    3    3    0    0 -0.15321115001E+02  0.60329999173E+01 -0.27060127617E+02  0.31676239668E+02  0.00000000000E+00 0. -1.
         11    1    3    3    0    0 -0.11149691718E+02  0.16613482257E+02  0.83077252788E+02  0.85452638045E+02  0.00000000000E+00 0.  1.
<mgrwt>
<rscale>  0 0.12244460E+03</rscale>
<asrwt>0</asrwt>
<pdfrwt beam="2">  1        1 0.10142186E-01 0.12976672E+03</pdfrwt>
<pdfrwt beam="1">  1       -1 0.31631046E-01 0.12976672E+03</pdfrwt>
<totfact> 0.55694617E+03</totfact>
</mgrwt>
</event>
<event>
 7    1  0.1254976E-005  0.2629496E+03  0.7546771E-02  0.1107665E+00
         -2   -1    0    0    0  501 -0.00000000000E+00  0.00000000000E+00  0.43779093222E+02  0.43779093222E+02  0.00000000000E+00 0.  1.
          2   -1    0    0  501    0  0.00000000000E+00 -0.00000000000E+00 -0.15078376520E+04  0.15078376520E+04  0.00000000000E+00 0. -1.
         23    2    1    2    0    0  0.18509765503E+03 -0.13884549220E+03 -0.79299408043E+03  0.83087405388E+03  0.89290924581E+02 0.  0.
          5    1    1    2  502    0 -0.52126879654E+02  0.11051689149E+02 -0.51346686591E+02  0.74147984729E+02  0.47000000000E+01 0. -1.
         -5    1    1    2    0  502 -0.13297077537E+03  0.12779380305E+03 -0.61971779176E+03  0.64659470661E+03  0.47000000000E+01 0. -1.
        -11    1    3    3    0    0  0.10201829585E+03 -0.47309279611E+02 -0.25226277438E+03  0.27619270078E+03  0.00000000000E+00 0. -1.
         11    1    3    3    0    0  0.83079359179E+02 -0.91536212589E+02 -0.54073130605E+03  0.55468135310E+03  0.00000000000E+00 0.  1.
<mgrwt>
<rscale>  0 0.25913403E+03</rscale>
<asrwt>0</asrwt>
<pdfrwt beam="2">  1        2 0.23197503E+00 0.26294960E+03</pdfrwt>
<pdfrwt beam="1">  1       -2 0.67352450E-02 0.26294960E+03</pdfrwt>
<totfact> 0.16734275E+03</totfact>
</mgrwt>
</event>
<event>
 7    1  0.1254976E-005  0.1365612E+03  0.7546771E-02  0.1228989E+00
          1   -1    0    0  501    0  0.00000000000E+00  0.00000000000E+00  0.42884971602E+02  0.42884971602E+02  0.00000000000E+00 0. -1.
         -1   -1    0    0    0  501 -0.00000000000E+00 -0.00000000000E+00 -0.35054405664E+03  0.35054405664E+03  0.00000000000E+00 0.  1.
         23    2    1    2    0    0  0.23684295194E+02 -0.49638049025E+02 -0.13417990771E+03  0.17264861355E+03  0.93693192804E+02 0.  0.
          5    1    1    2  502    0 -0.18982951565E+01  0.89230055085E+02 -0.97595734113E+02  0.13233526957E+03  0.47000000000E+01 0. -1.
         -5    1    1    2    0  502 -0.21786000038E+02 -0.39592006060E+02 -0.75883443216E+02  0.88445145123E+02  0.47000000000E+01 0. -1.
        -11    1    3    3    0    0  0.41999395019E+01 -0.36866105621E+02 -0.65897876201E+00  0.37110422909E+02  0.00000000000E+00 0. -1.
         11    1    3    3    0    0  0.19484355692E+02 -0.12771943404E+02 -0.13352092895E+03  0.13553819064E+03  0.00000000000E+00 0.  1.
<mgrwt>
<rscale>  0 0.12897215E+03</rscale>
<asrwt>0</asrwt>
<pdfrwt beam="1">  1        1 0.65976879E-02 0.13656122E+03</pdfrwt>
<pdfrwt beam="2">  1       -1 0.53929855E-01 0.13656122E+03</pdfrwt>
<totfact> 0.38751101E+03</totfact>
</mgrwt>
</event>
<event>
 7    1  0.1254976E-005  0.1284736E+03  0.7546771E-02  0.1245880E+00
          1   -1    0    0  501    0  0.00000000000E+00  0.00000000000E+00  0.42486636408E+03  0.42486636408E+03  0.00000000000E+00 0. -1.
         -1   -1    0    0    0  501 -0.00000000000E+00 -0.00000000000E+00 -0.31280172202E+02  0.31280172202E+02  0.00000000000E+00 0.  1.
         23    2    1    2    0    0  0.24031306890E+02 -0.17418475737E+02  0.23178451633E+03  0.24954241994E+03  0.87558268210E+02 0.  0.
          5    1    1    2  502    0 -0.29366017861E+01  0.38913111426E+02 -0.26085331653E+01  0.39392236751E+02  0.47000000000E+01 0. -1.
         -5    1    1    2    0  502 -0.21094705104E+02 -0.21494635690E+02  0.16441020871E+03  0.16721187958E+03  0.47000000000E+01 0. -1.
        -11    1    3    3    0    0  0.12223000210E+02  0.34952940303E+02  0.11908408537E+03  0.12470817599E+03  0.00000000000E+00 0. -1.
         11    1    3    3    0    0  0.11808306680E+02 -0.52371416040E+02  0.11270043096E+03  0.12483424396E+03  0.00000000000E+00 0.  1.
<mgrwt>
<rscale>  0 0.11832855E+03</rscale>
<asrwt>0</asrwt>
<pdfrwt beam="1">  1        1 0.65364052E-01 0.12847365E+03</pdfrwt>
<pdfrwt beam="2">  1       -1 0.48123345E-02 0.12847365E+03</pdfrwt>
<totfact> 0.98819604E+03</totfact>
</mgrwt>
</event>
<event>
 7    1  0.1254976E-005  0.1308807E+03  0.7546771E-02  0.1241654E+00
         -2   -1    0    0    0  501 -0.00000000000E+00  0.00000000000E+00  0.57958590755E+02  0.57958590755E+02  0.00000000000E+00 0.  1.
          2   -1    0    0  501    0  0.00000000000E+00 -0.00000000000E+00 -0.22229067524E+03  0.22229067524E+03  0.00000000000E+00 0. -1.
         23    2    1    2    0    0  0.23845322262E+02  0.30604350510E+02 -0.81634621838E+02  0.12543122301E+03  0.86968698726E+02 0.  0.
          5    1    1    2  502    0 -0.22807192710E+02 -0.74979943777E+01  0.30549559760E+02  0.39137623338E+02  0.47000000000E+01 0. -1.
         -5    1    1    2    0  502 -0.10381295519E+01 -0.23106356133E+02 -0.11324702241E+03  0.11568041965E+03  0.47000000000E+01 0. -1.
        -11    1    3    3    0    0  0.33122018628E+02  0.53098714983E+02 -0.79252604891E+02  0.10098275612E+03  0.00000000000E+00 0. -1.
         11    1    3    3    0    0 -0.92766963662E+01 -0.22494364472E+02 -0.23820169463E+01  0.24448466889E+02  0.00000000000E+00 0.  1.
<mgrwt>
<rscale>  0 0.12087885E+03</rscale>
<asrwt>0</asrwt>
<pdfrwt beam="2">  1        2 0.34198565E-01 0.13088069E+03</pdfrwt>
<pdfrwt beam="1">  1       -2 0.89167064E-02 0.13088069E+03</pdfrwt>
<totfact> 0.11346468E+04</totfact>
</mgrwt>
</event>
<event>
 7    1  0.1254976E-005  0.1207140E+03  0.7546771E-02  0.1252437E+00
         -3   -1    0    0    0  501 -0.00000000000E+00  0.00000000000E+00  0.28705956268E+02  0.28705956268E+02  0.00000000000E+00 0.  1.
          3   -1    0    0  501    0  0.00000000000E+00 -0.00000000000E+00 -0.46770872237E+03  0.46770872237E+03  0.00000000000E+00 0. -1.
         23    2    1    2    0    0 -0.29039587269E+02 -0.16864975358E+02 -0.28139722717E+03  0.29789167835E+03  0.91800476837E+02 0.  0.
          5    1    1    2  502    0  0.43170487991E+00 -0.32437274565E+02 -0.13173101049E+03  0.13574797338E+03  0.47000000000E+01 0. -1.
         -5    1    1    2    0  502  0.28607882389E+02  0.49302249922E+02 -0.25874528440E+02  0.62775026915E+02  0.47000000000E+01 0.  1.
        -11    1    3    3    0    0  0.78322274585E+01  0.30110724913E+02 -0.49807576771E+02  0.58726435662E+02  0.00000000000E+00 0.  1.
         11    1    3    3    0    0 -0.36871814728E+02 -0.46975700270E+02 -0.23158965040E+03  0.23916524269E+03  0.00000000000E+00 0. -1.
<mgrwt>
<rscale>  0 0.11451106E+03</rscale>
<asrwt>0</asrwt>
<pdfrwt beam="2">  1        3 0.71955185E-01 0.12071402E+03</pdfrwt>
<pdfrwt beam="1">  1       -3 0.44163012E-02 0.12071402E+03</pdfrwt>
<totfact> 0.11780628E+03</totfact>
</mgrwt>
</event>
<event>
 7    1  0.1254976E-005  0.1816397E+03  0.7546771E-02  0.1171406E+00
         -2   -1    0    0    0  501 -0.00000000000E+00  0.00000000000E+00  0.25431605522E+03  0.25431605522E+03  0.00000000000E+00 0.  1.
          2   -1    0    0  501    0  0.00000000000E+00 -0.00000000000E+00 -0.16495554919E+03  0.16495554919E+03  0.00000000000E+00 0. -1.
         23    2    1    2    0    0  0.11590637502E+03  0.62733459581E+02 -0.71690209200E+02  0.17651593816E+03  0.92997933352E+02 0.  0.
          5    1    1    2  502    0 -0.26707381388E+02  0.34505066131E+02  0.69090221351E+02  0.81850061061E+02  0.47000000000E+01 0. -1.
         -5    1    1    2    0  502 -0.89198993630E+02 -0.97238525713E+02  0.91960493876E+02  0.16090560519E+03  0.47000000000E+01 0. -1.
        -11    1    3    3    0    0  0.51419225250E+02 -0.19275348113E+02 -0.38396143851E+02  0.67005519421E+02  0.00000000000E+00 0. -1.
         11    1    3    3    0    0  0.64487149768E+02  0.82008807694E+02 -0.33294065349E+02  0.10951041874E+03  0.00000000000E+00 0.  1.
<mgrwt>
<rscale>  0 0.17632672E+03</rscale>
<asrwt>0</asrwt>
<pdfrwt beam="2">  1        2 0.25377777E-01 0.18163970E+03</pdfrwt>
<pdfrwt beam="1">  1       -2 0.39125547E-01 0.18163970E+03</pdfrwt>
<totfact> 0.13006857E+03</totfact>
</mgrwt>
</event>
<event>
 7    1  0.1254976E-005  0.1268588E+03  0.7546771E-02  0.1244995E+00
         -2   -1    0    0    0  501 -0.00000000000E+00  0.00000000000E+00  0.69962919470E+02  0.69962919470E+02  0.00000000000E+00 0.  1.
          2   -1    0    0  501    0  0.00000000000E+00 -0.00000000000E+00 -0.19087462728E+03  0.19087462728E+03  0.00000000000E+00 0. -1.
         23    2    1    2    0    0  0.81377626390E+00 -0.21466417440E+02 -0.83541087392E+02  0.12858888429E+03  0.95365185323E+02 0.  0.
          5    1    1    2  502    0  0.16485005578E+02 -0.42162548918E+02  0.14989251600E+02  0.47918718719E+02  0.47000000000E+01 0. -1.
         -5    1    1    2    0  502 -0.17298781842E+02  0.63628966357E+02 -0.52359872015E+02  0.84329943735E+02  0.47000000000E+01 0. -1.
        -11    1    3    3    0    0 -0.21688981465E+02 -0.50180332985E+02 -0.26186482377E+02  0.60615258762E+02  0.00000000000E+00 0.  1.
         11    1    3    3    0    0  0.22502757729E+02  0.28713915546E+02 -0.57354605015E+02  0.67973625531E+02  0.00000000000E+00 0. -1.
<mgrwt>
<rscale>  0 0.11885701E+03</rscale>
<asrwt>0</asrwt>
<pdfrwt beam="2">  1        2 0.29365327E-01 0.12685876E+03</pdfrwt>
<pdfrwt beam="1">  1       -2 0.10763526E-01 0.12685876E+03</pdfrwt>
<totfact> 0.99294146E+03</totfact>
</mgrwt>
</event>
<event>
 7    1  0.1254976E-005  0.2204483E+03  0.7546771E-02  0.1133549E+00
         -1   -1    0    0    0  501 -0.00000000000E+00  0.00000000000E+00  0.22353137205E+03  0.22353137205E+03  0.00000000000E+00 0.  1.
          1   -1    0    0  501    0  0.00000000000E+00 -0.00000000000E+00 -0.54351914423E+02  0.54351914423E+02  0.00000000000E+00 0. -1.
         23    2    1    2    0    0 -0.17745089503E+02  0.80603381096E+01  0.63064704599E+02  0.11275599043E+03  0.91416077143E+02 0.  0.
          5    1    1    2  502    0  0.67257144350E+02 -0.88406808961E+01  0.90084768637E+02  0.11286734092E+03  0.47000000000E+01 0.  1.
         -5    1    1    2    0  502 -0.49512054847E+02  0.78034278650E+00  0.16029984390E+02  0.52259955124E+02  0.47000000000E+01 0.  1.
        -11    1    3    3    0    0  0.34988865467E+02  0.18689023398E+02  0.27533202354E+02  0.48286411485E+02  0.00000000000E+00 0.  1.
         11    1    3    3    0    0 -0.52733954970E+02 -0.10628685289E+02  0.35531502245E+02  0.64469578947E+02  0.00000000000E+00 0. -1.
<mgrwt>
<rscale>  0 0.22044825E+03</rscale>
<asrwt>0</asrwt>
<pdfrwt beam="2">  1        1 0.83618331E-02 0.22044825E+03</pdfrwt>
<pdfrwt beam="1">  1       -1 0.34389441E-01 0.22044825E+03</pdfrwt>
<totfact> 0.64716758E+03</totfact>
</mgrwt>
</event>
<event>
 7    1  0.1254976E-005  0.1352383E+03  0.7546771E-02  0.1232448E+00
         -2   -1    0    0    0  501 -0.00000000000E+00  0.00000000000E+00  0.26729853188E+02  0.26729853188E+02  0.00000000000E+00 0.  1.
          2   -1    0    0  501    0  0.00000000000E+00 -0.00000000000E+00 -0.53891965585E+03  0.53891965585E+03  0.00000000000E+00 0. -1.
         23    2    1    2    0    0 -0.18535664808E+02  0.48170795010E+02 -0.24356703216E+03  0.26490445458E+03  0.90473612400E+02 0.  0.
          5    1    1    2  502    0 -0.90747404625E+01 -0.58859616813E+02 -0.26367950724E+03  0.27036230866E+03  0.47000000000E+01 0.  1.
         -5    1    1    2    0  502  0.27610405271E+02  0.10688821803E+02 -0.49432632701E+01  0.30382745803E+02  0.47000000000E+01 0.  1.
        -11    1    3    3    0    0  0.66522735026E+00  0.72022350261E+02 -0.19014761738E+03  0.20333169419E+03  0.00000000000E+00 0. -1.
         11    1    3    3    0    0 -0.19200892158E+02 -0.23851555251E+02 -0.53419414775E+02  0.61572760393E+02  0.00000000000E+00 0.  1.
<mgrwt>
<rscale>  0 0.12669248E+03</rscale>
<asrwt>0</asrwt>
<pdfrwt beam="2">  1        2 0.82910707E-01 0.13523829E+03</pdfrwt>
<pdfrwt beam="1">  1       -2 0.41122856E-02 0.13523829E+03</pdfrwt>
<totfact> 0.14268184E+04</totfact>
</mgrwt>
</event>
<event>
 7    1  0.1254976E-005  0.1587935E+03  0.7546771E-02  0.1197454E+00
          3   -1    0    0  501    0  0.00000000000E+00  0.00000000000E+00  0.11267142468E+04  0.11267142468E+04  0.00000000000E+00 0. -1.
         -3   -1    0    0    0  501 -0.00000000000E+00 -0.00000000000E+00 -0.19218734255E+02  0.19218734255E+02  0.00000000000E+00 0.  1.
         23    2    1    2    0    0  0.58873598318E+02  0.78272173842E+02  0.54218219342E+03  0.55874091866E+03  0.92936804085E+02 0.  0.
          5    1    1    2  502    0 -0.82487415706E+02 -0.66065336032E+01  0.27738072764E+03  0.28949953040E+03  0.47000000000E+01 0.  1.
         -5    1    1    2    0  502  0.23613817388E+02 -0.71665640239E+02  0.28793259150E+03  0.29769253200E+03  0.47000000000E+01 0.  1.
        -11    1    3    3    0    0 -0.22767826573E+02  0.23440479375E+02  0.84203854284E+02  0.90322306639E+02  0.00000000000E+00 0.  1.
         11    1    3    3    0    0  0.81641424892E+02  0.54831694467E+02  0.45797833913E+03  0.46841861202E+03  0.00000000000E+00 0. -1.
<mgrwt>
<rscale>  0 0.15248337E+03</rscale>
<asrwt>0</asrwt>
<pdfrwt beam="1">  1        3 0.17334060E+00 0.15879348E+03</pdfrwt>
<pdfrwt beam="2">  1       -3 0.29567292E-02 0.15879348E+03</pdfrwt>
<totfact> 0.29463863E+02</totfact>
</mgrwt>
</event>
<event>
 7    1  0.1254976E-005  0.1441600E+03  0.7546771E-02  0.1217872E+00
         -1   -1    0    0    0  501 -0.00000000000E+00  0.00000000000E+00  0.44241474945E+02  0.44241474945E+02  0.00000000000E+00 0.  1.
          1   -1    0    0  501    0  0.00000000000E+00 -0.00000000000E+00 -0.42042353467E+03  0.42042353467E+03  0.00000000000E+00 0. -1.
         23    2    1    2    0    0 -0.65428552845E+01  0.71525791010E+02 -0.23800097664E+03  0.26497493095E+03  0.91697881217E+02 0.  0.
          5    1    1    2  502    0 -0.27728063674E+02  0.27217273602E+02 -0.31201281535E+02  0.50052327287E+02  0.47000000000E+01 0. -1.
         -5    1    1    2    0  502  0.34270918959E+02 -0.98743064612E+02 -0.10697980155E+03  0.14963775137E+03  0.47000000000E+01 0. -1.
        -11    1    3    3    0    0 -0.41789449968E+02  0.65773052442E+02 -0.13397672897E+03  0.15499102058E+03  0.00000000000E+00 0.  1.
         11    1    3    3    0    0  0.35246594683E+02  0.57527385679E+01 -0.10402424767E+03  0.10998391037E+03  0.00000000000E+00 0. -1.
<mgrwt>
<rscale>  0 0.13667690E+03</rscale>
<asrwt>0</asrwt>
<pdfrwt beam="2">  1        1 0.64680546E-01 0.14416004E+03</pdfrwt>
<pdfrwt beam="1">  1       -1 0.68063805E-02 0.14416004E+03</pdfrwt>
<totfact> 0.60255429E+03</totfact>
</mgrwt>
</event>
<event>
 7    1  0.1254976E-005  0.1601171E+03  0.7546771E-02  0.1196437E+00
         -3   -1    0    0    0  501 -0.00000000000E+00  0.00000000000E+00  0.13118954311E+03  0.13118954311E+03  0.00000000000E+00 0.  1.
          3   -1    0    0  501    0  0.00000000000E+00 -0.00000000000E+00 -0.20348132317E+03  0.20348132317E+03  0.00000000000E+00 0. -1.
         23    2    1    2    0    0  0.93446827265E+02 -0.35466384400E+02 -0.10560179637E+03  0.17112561986E+03  0.90233388645E+02 0.  0.
          5    1    1    2  502    0 -0.57604144757E+02  0.72890974570E+02  0.53987138720E+02  0.10755478982E+03  0.47000000000E+01 0. -1.
         -5    1    1    2    0  502 -0.35842682508E+02 -0.37424590169E+02 -0.20677122407E+02  0.55990456596E+02  0.47000000000E+01 0. -1.
        -11    1    3    3    0    0  0.93541024556E+02  0.54628109002E+01 -0.75044834280E+02  0.12004787682E+03  0.00000000000E+00 0. -1.
         11    1    3    3    0    0 -0.94197291093E-01 -0.40929195301E+02 -0.30556962094E+02  0.51077743035E+02  0.00000000000E+00 0.  1.
<mgrwt>
<rscale>  0 0.15333269E+03</rscale>
<asrwt>0</asrwt>
<pdfrwt beam="2">  1        3 0.31304819E-01 0.16011711E+03</pdfrwt>
<pdfrwt beam="1">  1       -3 0.20183007E-01 0.16011711E+03</pdfrwt>
<totfact> 0.51954938E+02</totfact>
</mgrwt>
</event>
<event>
 7    1  0.1254976E-005  0.1377611E+03  0.7546771E-02  0.1228082E+00
          1   -1    0    0  501    0  0.00000000000E+00  0.00000000000E+00  0.10908539917E+02  0.10908539917E+02  0.00000000000E+00 0. -1.
         -1   -1    0    0    0  501 -0.00000000000E+00 -0.00000000000E+00 -0.14382189795E+04  0.14382189795E+04  0.00000000000E+00 0.  1.
         23    2    1    2    0    0 -0.36705979229E+02  0.44784404242E+02 -0.48826958075E+03  0.50003540381E+03  0.90968400049E+02 0.  0.
          5    1    1    2  502    0  0.76548361097E+02 -0.46781142276E+02 -0.77570678844E+03  0.78089131029E+03  0.47000000000E+01 0.  1.
         -5    1    1    2    0  502 -0.39842381868E+02  0.19967380343E+01 -0.16333407044E+03  0.16820080535E+03  0.47000000000E+01 0.  1.
        -11    1    3    3    0    0  0.30227566409E+02  0.13051122543E+02 -0.12299688722E+03  0.12732741982E+03  0.00000000000E+00 0. -1.
         11    1    3    3    0    0 -0.66933545638E+02  0.31733281699E+02 -0.36527269352E+03  0.37270798399E+03  0.00000000000E+00 0.  1.
<mgrwt>
<rscale>  0 0.12957882E+03</rscale>
<asrwt>0</asrwt>
<pdfrwt beam="1">  1        1 0.16782368E-02 0.13776106E+03</pdfrwt>
<pdfrwt beam="2">  1       -1 0.22126447E+00 0.13776106E+03</pdfrwt>
<totfact> 0.92284515E+02</totfact>
</mgrwt>
</event>
<event>
 7    1  0.1254976E-005  0.1348690E+03  0.7546771E-02  0.1232809E+00
          1   -1    0    0  501    0  0.00000000000E+00  0.00000000000E+00  0.39392156890E+03  0.39392156890E+03  0.00000000000E+00 0. -1.
         -1   -1    0    0    0  501 -0.00000000000E+00 -0.00000000000E+00 -0.36286230625E+02  0.36286230625E+02  0.00000000000E+00 0.  1.
         23    2    1    2    0    0  0.42792733416E+02  0.27027436980E+02  0.15704023672E+03  0.18848884520E+03  0.91130173021E+02 0.  0.
          5    1    1    2  502    0 -0.71141042172E+02 -0.23114749615E+02  0.19903224381E+03  0.21267642936E+03  0.47000000000E+01 0.  1.
         -5    1    1    2    0  502  0.28348308756E+02 -0.39126873646E+01  0.15628577511E+01  0.29042524961E+02  0.47000000000E+01 0.  1.
        -11    1    3    3    0    0  0.15764253548E+02 -0.22381064528E+02  0.11499066565E+03  0.11820438624E+03  0.00000000000E+00 0. -1.
         11    1    3    3    0    0  0.27028479868E+02  0.49408501507E+02  0.42049571070E+02  0.70284458968E+02  0.00000000000E+00 0.  1.
<mgrwt>
<rscale>  0 0.12645761E+03</rscale>
<asrwt>0</asrwt>
<pdfrwt beam="1">  1        1 0.60603315E-01 0.13486904E+03</pdfrwt>
<pdfrwt beam="2">  1       -1 0.55824973E-02 0.13486904E+03</pdfrwt>
<totfact> 0.87579369E+03</totfact>
</mgrwt>
</event>
<event>
 7    1  0.1254976E-005  0.1319220E+03  0.7546771E-02  0.1237347E+00
         -1   -1    0    0    0  501 -0.00000000000E+00  0.00000000000E+00  0.10178662120E+03  0.10178662120E+03  0.00000000000E+00 0.  1.
          1   -1    0    0  501    0  0.00000000000E+00 -0.00000000000E+00 -0.13411495058E+03  0.13411495058E+03  0.00000000000E+00 0. -1.
         23    2    1    2    0    0  0.83006144318E+00 -0.42162669634E+02 -0.19491827815E+02  0.10335657115E+03  0.92326971871E+02 0.  0.
          5    1    1    2  502    0 -0.49205095146E+02  0.31947151849E+02 -0.44378186009E+02  0.73710754256E+02  0.47000000000E+01 0.  1.
         -5    1    1    2    0  502  0.48375033702E+02  0.10215517785E+02  0.31541684438E+02  0.58834246375E+02  0.47000000000E+01 0.  1.
        -11    1    3    3    0    0 -0.17240920424E+02 -0.67238996633E+02 -0.20665296544E+02  0.72425040466E+02  0.00000000000E+00 0. -1.
         11    1    3    3    0    0  0.18070981867E+02  0.25076326999E+02  0.11734687299E+01  0.30931530681E+02  0.00000000000E+00 0.  1.
<mgrwt>
<rscale>  0 0.12355389E+03</rscale>
<asrwt>0</asrwt>
<pdfrwt beam="2">  1        1 0.20633069E-01 0.13192195E+03</pdfrwt>
<pdfrwt beam="1">  1       -1 0.15659480E-01 0.13192195E+03</pdfrwt>
<totfact> 0.69593781E+03</totfact>
</mgrwt>
</event>
<event>
 7    1  0.1254976E-005  0.1504428E+03  0.7546771E-02  0.1209393E+00
         -1   -1    0    0    0  501 -0.00000000000E+00  0.00000000000E+00  0.75371152309E+02  0.75371152309E+02  0.00000000000E+00 0.  1.
          1   -1    0    0  501    0  0.00000000000E+00 -0.00000000000E+00 -0.24792365541E+03  0.24792365541E+03  0.00000000000E+00 0. -1.
         23    2    1    2    0    0 -0.27819674726E+02 -0.78969581084E+02 -0.84571093184E+02  0.14901408367E+03  0.89681649687E+02 0.  0.
          5    1    1    2  502    0  0.37340928678E+02 -0.22134497832E+02 -0.68096213335E+01  0.44189839234E+02  0.47000000000E+01 0. -1.
         -5    1    1    2    0  502 -0.95212539519E+01  0.10110407892E+03 -0.81171788579E+02  0.13009088481E+03  0.47000000000E+01 0. -1.
        -11    1    3    3    0    0 -0.41337703382E+02  0.12220337851E+01 -0.29480594592E+02  0.50787838554E+02  0.00000000000E+00 0. -1.
         11    1    3    3    0    0  0.13518028656E+02 -0.80191614869E+02 -0.55090498592E+02  0.98226245114E+02  0.00000000000E+00 0.  1.
<mgrwt>
<rscale>  0 0.14296549E+03</rscale>
<asrwt>0</asrwt>
<pdfrwt beam="2">  1        1 0.38142102E-01 0.15044282E+03</pdfrwt>
<pdfrwt beam="1">  1       -1 0.11595562E-01 0.15044282E+03</pdfrwt>
<totfact> 0.51951137E+03</totfact>
</mgrwt>
</event>
<event>
 7    1  0.1254976E-005  0.1334560E+03  0.7546771E-02  0.1235243E+00
         -1   -1    0    0    0  501 -0.00000000000E+00  0.00000000000E+00  0.35212130820E+02  0.35212130820E+02  0.00000000000E+00 0.  1.
          1   -1    0    0  501    0  0.00000000000E+00 -0.00000000000E+00 -0.56475132692E+03  0.56475132692E+03  0.00000000000E+00 0. -1.
         23    2    1    2    0    0 -0.39010373030E+02 -0.25641694601E+02 -0.40392211567E+03  0.41668728968E+03  0.91081919992E+02 0.  0.
          5    1    1    2  502    0 -0.38597534915E+02 -0.18185665156E+02 -0.53083045839E+02  0.68267033583E+02  0.47000000000E+01 0.  1.
         -5    1    1    2    0  502  0.77607907945E+02  0.43827359757E+02 -0.72534034594E+02  0.11500913448E+03  0.47000000000E+01 0.  1.
        -11    1    3    3    0    0  0.28328655134E+02 -0.17725132227E+02 -0.10579305540E+03  0.11094531800E+03  0.00000000000E+00 0.  1.
         11    1    3    3    0    0 -0.67339028163E+02 -0.79165623740E+01 -0.29812906027E+03  0.30574197168E+03  0.00000000000E+00 0. -1.
<mgrwt>
<rscale>  0 0.12488894E+03</rscale>
<asrwt>0</asrwt>
<pdfrwt beam="2">  1        1 0.86884815E-01 0.13345600E+03</pdfrwt>
<pdfrwt beam="1">  1       -1 0.54172512E-02 0.13345600E+03</pdfrwt>
<totfact> 0.57445746E+03</totfact>
</mgrwt>
</event>
<event>
 7    1  0.1254976E-005  0.1267378E+03  0.7546771E-02  0.1248534E+00
         -2   -1    0    0    0  501 -0.00000000000E+00  0.00000000000E+00  0.14934657722E+03  0.14934657722E+03  0.00000000000E+00 0.  1.
          2   -1    0    0  501    0  0.00000000000E+00 -0.00000000000E+00 -0.11372106339E+03  0.11372106339E+03  0.00000000000E+00 0. -1.
         23    2    1    2    0    0  0.11071643304E+02 -0.10572015178E+02 -0.55607394838E+02  0.10690777427E+03  0.90015226754E+02 0.  0.
          5    1    1    2  502    0 -0.49377834589E+02  0.47216781974E+02  0.29255935981E+02  0.74468750754E+02  0.47000000000E+01 0.  1.
         -5    1    1    2    0  502  0.38306191285E+02 -0.36644766796E+02  0.61976972684E+02  0.81691115597E+02  0.47000000000E+01 0.  1.
        -11    1    3    3    0    0 -0.35611376201E+02 -0.17349646008E+01 -0.46392714315E+02  0.58510376504E+02  0.00000000000E+00 0.  1.
         11    1    3    3    0    0  0.46683019505E+02 -0.88370505773E+01 -0.92146805230E+01  0.48397397763E+02  0.00000000000E+00 0. -1.
<mgrwt>
<rscale>  0 0.11676329E+03</rscale>
<asrwt>0</asrwt>
<pdfrwt beam="2">  1        2 0.17495548E-01 0.12673776E+03</pdfrwt>
<pdfrwt beam="1">  1       -2 0.22976397E-01 0.12673776E+03</pdfrwt>
<totfact> 0.50823833E+03</totfact>
</mgrwt>
</event>
<event>
 7    1  0.1254976E-005  0.1676775E+03  0.7546771E-02  0.1183834E+00
         -1   -1    0    0    0  501 -0.00000000000E+00  0.00000000000E+00  0.15651025058E+03  0.15651025058E+03  0.00000000000E+00 0.  1.
          1   -1    0    0  501    0  0.00000000000E+00 -0.00000000000E+00 -0.16621050733E+03  0.16621050733E+03  0.00000000000E+00 0. -1.
         23    2    1    2    0    0 -0.10994593044E+03  0.20096379998E+02 -0.57992964263E+01  0.15499790265E+03  0.10723220541E+03 0.  0.
          5    1    1    2  502    0  0.70427387977E+01 -0.52907695896E+02  0.19662700771E+02  0.57074830323E+02  0.47000000000E+01 0. -1.
         -5    1    1    2    0  502  0.10290319164E+03  0.32811315898E+02 -0.23563661096E+02  0.11064802495E+03  0.47000000000E+01 0. -1.
        -11    1    3    3    0    0 -0.30836629040E+02  0.20991981515E+02 -0.51531693621E+02  0.63616636393E+02  0.00000000000E+00 0. -1.
         11    1    3    3    0    0 -0.79109301396E+02 -0.89560151686E+00  0.45732397195E+02  0.91381266256E+02  0.00000000000E+00 0.  1.
<mgrwt>
<rscale>  0 0.16438473E+03</rscale>
<asrwt>0</asrwt>
<pdfrwt beam="2">  1        1 0.25570847E-01 0.16767748E+03</pdfrwt>
<pdfrwt beam="1">  1       -1 0.24078500E-01 0.16767748E+03</pdfrwt>
<totfact> 0.26949197E+03</totfact>
</mgrwt>
</event>
<event>
 7    1  0.2185130E-005  0.2515121E+03  0.7546771E-02  0.1114518E+00
         -2   -1    0    0    0  501 -0.00000000000E+00  0.00000000000E+00  0.13300261812E+03  0.13300261812E+03  0.00000000000E+00 0. -1.
          2   -1    0    0  501    0  0.00000000000E+00 -0.00000000000E+00 -0.45230621694E+03  0.45230621694E+03  0.00000000000E+00 0.  1.
         23    2    1    2    0    0  0.18851009789E+03 -0.10998701085E+03 -0.13728778162E+03  0.27484449064E+03  0.95175414312E+02 0.  0.
          5    1    1    2  502    0 -0.16249090482E+03  0.72463666952E+02 -0.19374692322E+03  0.26308598867E+03  0.47000000000E+01 0.  1.
         -5    1    1    2    0  502 -0.26019193069E+02  0.37523343898E+02  0.11731106032E+02  0.47378355754E+02  0.47000000000E+01 0.  1.
        -11    1    3    3    0    0  0.10643188358E+03 -0.79350756569E+01 -0.53657689188E+02  0.11945651459E+03  0.00000000000E+00 0. -1.
         11    1    3    3    0    0  0.82078214306E+02 -0.10205193519E+03 -0.83630092434E+02  0.15538797605E+03  0.00000000000E+00 0.  1.
<mgrwt>
<rscale>  0 0.24808985E+03</rscale>
<asrwt>0</asrwt>
<pdfrwt beam="2">  1        2 0.69585571E-01 0.25151213E+03</pdfrwt>
<pdfrwt beam="1">  1       -2 0.20461941E-01 0.25151213E+03</pdfrwt>
<totfact> 0.14061593E+03</totfact>
</mgrwt>
</event>
<event>
 7    1  0.1254976E-005  0.1280285E+03  0.7546771E-02  0.1245363E+00
          2   -1    0    0  501    0  0.00000000000E+00  0.00000000000E+00  0.33772636444E+03  0.33772636444E+03  0.00000000000E+00 0. -1.
         -2   -1    0    0    0  501 -0.00000000000E+00 -0.00000000000E+00 -0.37381821750E+02  0.37381821750E+02  0.00000000000E+00 0.  1.
         23    2    1    2    0    0 -0.67946256513E+01 -0.26830640428E+02  0.15436188953E+03  0.18093755195E+03  0.90248293956E+02 0.  0.
          5    1    1    2  502    0  0.11371543543E+02  0.27844810054E+02  0.16822579686E+03  0.17095804801E+03  0.47000000000E+01 0. -1.
         -5    1    1    2    0  502 -0.45769178921E+01 -0.10141696264E+01 -0.22243143708E+02  0.23212586229E+02  0.47000000000E+01 0. -1.
        -11    1    3    3    0    0  0.39457447449E+02 -0.10429339802E+02  0.43223864266E+02  0.59447150730E+02  0.00000000000E+00 0. -1.
         11    1    3    3    0    0 -0.46252073100E+02 -0.16401300625E+02  0.11113802527E+03  0.12149040122E+03  0.00000000000E+00 0.  1.
<mgrwt>
<rscale>  0 0.11863686E+03</rscale>
<asrwt>0</asrwt>
<pdfrwt beam="1">  1        2 0.51957900E-01 0.12802851E+03</pdfrwt>
<pdfrwt beam="2">  1       -2 0.57510497E-02 0.12802851E+03</pdfrwt>
<totfact> 0.14221857E+04</totfact>
</mgrwt>
</event>
<event>
 7    1  0.1254976E-005  0.1274663E+03  0.7546771E-02  0.1242465E+00
          1   -1    0    0  501    0  0.00000000000E+00  0.00000000000E+00  0.53236889931E+02  0.53236889931E+02  0.00000000000E+00 0. -1.
         -1   -1    0    0    0  501 -0.00000000000E+00 -0.00000000000E+00 -0.28111440527E+03  0.28111440527E+03  0.00000000000E+00 0.  1.
         23    2    1    2    0    0  0.23178778463E+02  0.92071206126E+01 -0.43838121515E+02  0.11048044882E+03  0.98296092662E+02 0.  0.
          5    1    1    2  502    0 -0.13379771510E+02 -0.66972483281E+02 -0.10569686362E+03  0.12592953896E+03  0.47000000000E+01 0. -1.
         -5    1    1    2    0  502 -0.97990069531E+01  0.57765362669E+02 -0.78342530203E+02  0.97941307425E+02  0.47000000000E+01 0. -1.
        -11    1    3    3    0    0 -0.31033235582E+02  0.11803182362E+02 -0.45326368946E+02  0.56185910569E+02  0.00000000000E+00 0. -1.
         11    1    3    3    0    0  0.54212014046E+02 -0.25960617495E+01  0.14882474314E+01  0.54294538251E+02  0.00000000000E+00 0.  1.
<mgrwt>
<rscale>  0 0.12038367E+03</rscale>
<asrwt>0</asrwt>
<pdfrwt beam="1">  1        1 0.81902909E-02 0.12746630E+03</pdfrwt>
<pdfrwt beam="2">  1       -1 0.43248369E-01 0.12746630E+03</pdfrwt>
<totfact> 0.43035073E+03</totfact>
</mgrwt>
</event>
<event>
 7    1  0.1254976E-005  0.1662810E+03  0.7546771E-02  0.1185630E+00
          1   -1    0    0  501    0  0.00000000000E+00  0.00000000000E+00  0.39240611848E+02  0.39240611848E+02  0.00000000000E+00 0. -1.
         -1   -1    0    0    0  501 -0.00000000000E+00 -0.00000000000E+00 -0.69394090854E+03  0.69394090854E+03  0.00000000000E+00 0.  1.
         23    2    1    2    0    0 -0.89557546500E+02 -0.80868256103E+02 -0.21976327009E+03  0.26754263022E+03  0.93396654796E+02 0.  0.
          5    1    1    2  502    0 -0.15987712172E+01 -0.22469343250E+01  0.57888151991E+01  0.79501675879E+01  0.47000000000E+01 0. -1.
         -5    1    1    2    0  502  0.91156317718E+02  0.83115190428E+02 -0.44072584180E+03  0.45768872257E+03  0.47000000000E+01 0.  1.
        -11    1    3    3    0    0 -0.54465485816E+02  0.76188350209E+01 -0.10419366008E+03  0.11781703864E+03  0.00000000000E+00 0. -1.
         11    1    3    3    0    0 -0.35092060685E+02 -0.88487091124E+02 -0.11556961000E+03  0.14972559158E+03  0.00000000000E+00 0.  1.
<mgrwt>
<rscale>  0 0.16274668E+03</rscale>
<asrwt>0</asrwt>
<pdfrwt beam="1">  1        1 0.60370170E-02 0.16628096E+03</pdfrwt>
<pdfrwt beam="2">  1       -1 0.10676014E+00 0.16628096E+03</pdfrwt>
<totfact> 0.10999626E+03</totfact>
</mgrwt>
</event>
<event>
 7    1  0.1254976E-005  0.1366512E+03  0.7546771E-02  0.1230165E+00
         -2   -1    0    0    0  501 -0.00000000000E+00  0.00000000000E+00  0.47457568906E+02  0.47457568906E+02  0.00000000000E+00 0.  1.
          2   -1    0    0  501    0  0.00000000000E+00 -0.00000000000E+00 -0.32864156344E+03  0.32864156344E+03  0.00000000000E+00 0. -1.
         23    2    1    2    0    0  0.35697892093E+02 -0.42106421917E+02 -0.16851873748E+03  0.19899181536E+03  0.90287803344E+02 0.  0.
          5    1    1    2  502    0  0.38657535118E+02  0.27289249142E+02 -0.82802414477E+02  0.95485276265E+02  0.47000000000E+01 0. -1.
         -5    1    1    2    0  502 -0.74355427211E+02  0.14817172775E+02 -0.29862842580E+02  0.81622040723E+02  0.47000000000E+01 0. -1.
        -11    1    3    3    0    0  0.41226741672E+02 -0.14801025217E+02 -0.20479883288E+02  0.48354319309E+02  0.00000000000E+00 0.  1.
         11    1    3    3    0    0 -0.55288495790E+01 -0.27305396700E+02 -0.14803885419E+03  0.15063749605E+03  0.00000000000E+00 0. -1.
<mgrwt>
<rscale>  0 0.12819122E+03</rscale>
<asrwt>0</asrwt>
<pdfrwt beam="2">  1        2 0.50560240E-01 0.13665117E+03</pdfrwt>
<pdfrwt beam="1">  1       -2 0.73011646E-02 0.13665117E+03</pdfrwt>
<totfact> 0.10232054E+04</totfact>
</mgrwt>
</event>
<event>
 7    1  0.1254976E-005  0.1651389E+03  0.7546771E-02  0.1190076E+00
          1   -1    0    0  501    0  0.00000000000E+00  0.00000000000E+00  0.98985385009E+02  0.98985385009E+02  0.00000000000E+00 0. -1.
         -1   -1    0    0    0  501 -0.00000000000E+00 -0.00000000000E+00 -0.26965670364E+03  0.26965670364E+03  0.00000000000E+00 0.  1.
         23    2    1    2    0    0 -0.10780147029E+03  0.54189778867E+01 -0.15431166965E+02  0.14199178209E+03  0.90956159484E+02 0.  0.
          5    1    1    2  502    0  0.62410434538E+02  0.31422056187E+01  0.20006111957E+01  0.62697912569E+02  0.47000000000E+01 0. -1.
         -5    1    1    2    0  502  0.45391035756E+02 -0.85611835055E+01 -0.15724076287E+03  0.16395239400E+03  0.47000000000E+01 0. -1.
        -11    1    3    3    0    0 -0.18519165756E+02 -0.37580249769E+02 -0.76627045811E+01  0.42590512025E+02  0.00000000000E+00 0.  1.
         11    1    3    3    0    0 -0.89282304538E+02  0.42999227656E+02 -0.77684623834E+01  0.99401270065E+02  0.00000000000E+00 0. -1.
<mgrwt>
<rscale>  0 0.15878441E+03</rscale>
<asrwt>0</asrwt>
<pdfrwt beam="1">  1        1 0.15228521E-01 0.16513890E+03</pdfrwt>
<pdfrwt beam="2">  1       -1 0.41485646E-01 0.16513890E+03</pdfrwt>
<totfact> 0.20707415E+03</totfact>
</mgrwt>
</event>
<event>
 7    1  0.1254976E-005  0.1262427E+03  0.7546771E-02  0.1243704E+00
          1   -1    0    0  501    0  0.00000000000E+00  0.00000000000E+00  0.70488727497E+02  0.70488727497E+02  0.00000000000E+00 0. -1.
         -1   -1    0    0    0  501 -0.00000000000E+00 -0.00000000000E+00 -0.19137833069E+03  0.19137833069E+03  0.00000000000E+00 0.  1.
         23    2    1    2    0    0  0.55619339641E+02 -0.32644592897E+00 -0.29430432740E+02  0.10597609643E+03  0.85271127207E+02 0.  0.
          5    1    1    2  502    0 -0.19472399327E+02 -0.26708112974E+02 -0.10365471185E+03  0.10889851662E+03  0.47000000000E+01 0.  1.
         -5    1    1    2    0  502 -0.36146940314E+02  0.27034558903E+02  0.12195541398E+02  0.46992445128E+02  0.47000000000E+01 0.  1.
        -11    1    3    3    0    0  0.37115113478E+02 -0.15225677605E+02  0.24526795159E+02  0.47020384811E+02  0.00000000000E+00 0. -1.
         11    1    3    3    0    0  0.18504226163E+02  0.14899231676E+02 -0.53957227899E+02  0.58955711623E+02  0.00000000000E+00 0.  1.
<mgrwt>
<rscale>  0 0.11963263E+03</rscale>
<asrwt>0</asrwt>
<pdfrwt beam="1">  1        1 0.10844420E-01 0.12624267E+03</pdfrwt>
<pdfrwt beam="2">  1       -1 0.29442820E-01 0.12624267E+03</pdfrwt>
<totfact> 0.57400799E+03</totfact>
</mgrwt>
</event>
<event>
 7    1  0.1254976E-005  0.1995450E+03  0.7546771E-02  0.1154421E+00
         -1   -1    0    0    0  501 -0.00000000000E+00  0.00000000000E+00  0.34737727586E+03  0.34737727586E+03  0.00000000000E+00 0.  1.
          1   -1    0    0  501    0  0.00000000000E+00 -0.00000000000E+00 -0.11083947038E+03  0.11083947038E+03  0.00000000000E+00 0. -1.
         23    2    1    2    0    0 -0.14632094987E+03 -0.52750089967E+02  0.55138985227E+02  0.18854334777E+03  0.91191523370E+02 0.  0.
          5    1    1    2  502    0  0.47302645594E+02 -0.60901084833E+01  0.13869356873E+03  0.14673999355E+03  0.47000000000E+01 0.  1.
         -5    1    1    2    0  502  0.99018304277E+02  0.58840198450E+02  0.42705251519E+02  0.12293340491E+03  0.47000000000E+01 0.  1.
        -11    1    3    3    0    0 -0.53211514744E+02 -0.47927288907E+02  0.62456121133E+02  0.95022404676E+02  0.00000000000E+00 0.  1.
         11    1    3    3    0    0 -0.93109435127E+02 -0.48228010598E+01 -0.73171359065E+01  0.93520943096E+02  0.00000000000E+00 0. -1.
<mgrwt>
<rscale>  0 0.19454941E+03</rscale>
<asrwt>0</asrwt>
<pdfrwt beam="2">  1        1 0.17052226E-01 0.19954501E+03</pdfrwt>
<pdfrwt beam="1">  1       -1 0.53442657E-01 0.19954501E+03</pdfrwt>
<totfact> 0.11341454E+03</totfact>
</mgrwt>
</event>
<event>
 7    1  0.1254976E-005  0.1828762E+03  0.7546771E-02  0.1170348E+00
         -1   -1    0    0    0  501 -0.00000000000E+00  0.00000000000E+00  0.28148461860E+02  0.28148461860E+02  0.00000000000E+00 0.  1.
          1   -1    0    0  501    0  0.00000000000E+00 -0.00000000000E+00 -0.10639273177E+04  0.10639273177E+04  0.00000000000E+00 0. -1.
         23    2    1    2    0    0  0.13059456564E+03 -0.27639067777E+02 -0.43920965974E+03  0.46810582438E+03  0.91646489125E+02 0.  0.
          5    1    1    2  502    0 -0.34771377068E+01 -0.12671042991E+02 -0.13992046179E+01  0.14024749219E+02  0.47000000000E+01 0.  1.
         -5    1    1    2    0  502 -0.12711742793E+03  0.40310110768E+02 -0.59516999151E+03  0.60994520598E+03  0.47000000000E+01 0.  1.
        -11    1    3    3    0    0  0.12855088610E+02 -0.19721112010E+02 -0.15295902822E+02  0.28073834887E+02  0.00000000000E+00 0.  1.
         11    1    3    3    0    0  0.11773947703E+03 -0.79179557667E+01 -0.42391375692E+03  0.44003198949E+03  0.00000000000E+00 0. -1.
<mgrwt>
<rscale>  0 0.17739553E+03</rscale>
<asrwt>0</asrwt>
<pdfrwt beam="2">  1        1 0.16368113E+00 0.18287619E+03</pdfrwt>
<pdfrwt beam="1">  1       -1 0.43305324E-02 0.18287619E+03</pdfrwt>
<totfact> 0.31061959E+03</totfact>
</mgrwt>
</event>
<event>
 7    1  0.1254976E-005  0.1255548E+03  0.7546771E-02  0.1251035E+00
         -2   -1    0    0    0  501 -0.00000000000E+00  0.00000000000E+00  0.37182455182E+03  0.37182455182E+03  0.00000000000E+00 0. -1.
          2   -1    0    0  501    0  0.00000000000E+00 -0.00000000000E+00 -0.35178931129E+02  0.35178931129E+02  0.00000000000E+00 0.  1.
         23    2    1    2    0    0  0.72643848674E+01  0.93041347369E+01  0.74424903820E+02  0.11627385747E+03  0.88550581097E+02 0.  0.
          5    1    1    2  502    0  0.35409652941E+02  0.27176722524E+02  0.20711299502E+03  0.21192050509E+03  0.47000000000E+01 0. -1.
         -5    1    1    2    0  502 -0.42674037808E+02 -0.36480857261E+02  0.55107721852E+02  0.78809120393E+02  0.47000000000E+01 0. -1.
        -11    1    3    3    0    0  0.57159099048E+01  0.33397223945E+02  0.83787541585E+02  0.90379191842E+02  0.00000000000E+00 0. -1.
         11    1    3    3    0    0  0.15484749626E+01 -0.24093089208E+02 -0.93626377642E+01  0.25894665632E+02  0.00000000000E+00 0.  1.
<mgrwt>
<rscale>  0 0.11531321E+03</rscale>
<asrwt>0</asrwt>
<pdfrwt beam="2">  1        2 0.54121435E-02 0.12555481E+03</pdfrwt>
<pdfrwt beam="1">  1       -2 0.57203775E-01 0.12555481E+03</pdfrwt>
<totfact> 0.39118564E+03</totfact>
</mgrwt>
</event>
<event>
 7    1  0.1254976E-005  0.1314086E+03  0.7546771E-02  0.1239194E+00
         -2   -1    0    0    0  501 -0.00000000000E+00  0.00000000000E+00  0.78151722457E+02  0.78151722457E+02  0.00000000000E+00 0.  1.
          2   -1    0    0  501    0  0.00000000000E+00 -0.00000000000E+00 -0.17720667761E+03  0.17720667761E+03  0.00000000000E+00 0. -1.
         23    2    1    2    0    0  0.40492717571E+02  0.62019679223E-01 -0.68893359288E+02  0.12053275973E+03  0.90234068909E+02 0.  0.
          5    1    1    2  502    0  0.18444038429E+02 -0.40178001731E+02 -0.43435256805E+02  0.62154371611E+02  0.47000000000E+01 0.  1.
         -5    1    1    2    0  502 -0.58936756000E+02  0.40115982051E+02  0.13273660938E+02  0.72671268727E+02  0.47000000000E+01 0.  1.
        -11    1    3    3    0    0  0.56753558350E+02 -0.24923455673E+02 -0.23634208231E+02  0.66337929021E+02  0.00000000000E+00 0.  1.
         11    1    3    3    0    0 -0.16260840779E+02  0.24985475352E+02 -0.45259151058E+02  0.54194830712E+02  0.00000000000E+00 0. -1.
<mgrwt>
<rscale>  0 0.12239695E+03</rscale>
<asrwt>0</asrwt>
<pdfrwt beam="2">  1        2 0.27262565E-01 0.13140864E+03</pdfrwt>
<pdfrwt beam="1">  1       -2 0.12023342E-01 0.13140864E+03</pdfrwt>
<totfact> 0.90559433E+03</totfact>
</mgrwt>
</event>
<event>
 7    1  0.1254976E-005  0.1256948E+03  0.7546771E-02  0.1248950E+00
         -4   -1    0    0    0  501 -0.00000000000E+00  0.00000000000E+00  0.18532699939E+02  0.18532699939E+02  0.00000000000E+00 0.  1.
          4   -1    0    0  501    0  0.00000000000E+00 -0.00000000000E+00 -0.67378737650E+03  0.67378737650E+03  0.00000000000E+00 0. -1.
         23    2    1    2    0    0  0.49961101598E+01  0.12223888201E+02 -0.35233901739E+03  0.36436110666E+03  0.91879531527E+02 0.  0.
          5    1    1    2  502    0 -0.39546018535E+02 -0.53384959813E+02 -0.11987593804E+03  0.13713559727E+03  0.47000000000E+01 0.  1.
         -5    1    1    2    0  502  0.34549908375E+02  0.41161071611E+02 -0.18303972114E+03  0.19082337252E+03  0.47000000000E+01 0.  1.
        -11    1    3    3    0    0 -0.35169257498E+02  0.30121890544E+02 -0.13811783130E+03  0.14567340281E+03  0.00000000000E+00 0.  1.
         11    1    3    3    0    0  0.40165367658E+02 -0.17898002343E+02 -0.21422118609E+03  0.21868770385E+03  0.00000000000E+00 0. -1.
<mgrwt>
<rscale>  0 0.11652060E+03</rscale>
<asrwt>0</asrwt>
<pdfrwt beam="2">  1        4 0.10365960E+00 0.12569483E+03</pdfrwt>
<pdfrwt beam="1">  1       -4 0.28511845E-02 0.12569483E+03</pdfrwt>
<totfact> 0.75040620E+02</totfact>
</mgrwt>
</event>
<event>
 7    1  0.1254976E-005  0.1567388E+03  0.7546771E-02  0.1201079E+00
         -1   -1    0    0    0  501 -0.00000000000E+00  0.00000000000E+00  0.29524449172E+02  0.29524449172E+02  0.00000000000E+00 0.  1.
          1   -1    0    0  501    0  0.00000000000E+00 -0.00000000000E+00 -0.69523700574E+03  0.69523700574E+03  0.00000000000E+00 0. -1.
         23    2    1    2    0    0 -0.93843870749E+02 -0.11563821750E+02 -0.30806572676E+03  0.33427673338E+03  0.88859712028E+02 0.  0.
          5    1    1    2  502    0  0.13526944529E+01  0.20745389682E+02 -0.23777054557E+03  0.23872394793E+03  0.47000000000E+01 0. -1.
         -5    1    1    2    0  502  0.92491176297E+02 -0.91815679315E+01 -0.11987628424E+03  0.15176077360E+03  0.47000000000E+01 0. -1.
        -11    1    3    3    0    0 -0.47065756143E+02 -0.49822478879E+02 -0.18193327965E+03  0.19441497640E+03  0.00000000000E+00 0.  1.
         11    1    3    3    0    0 -0.46778114606E+02  0.38258657129E+02 -0.12613244711E+03  0.13986175698E+03  0.00000000000E+00 0. -1.
<mgrwt>
<rscale>  0 0.14950777E+03</rscale>
<asrwt>0</asrwt>
<pdfrwt beam="2">  1        1 0.10695953E+00 0.15673884E+03</pdfrwt>
<pdfrwt beam="1">  1       -1 0.45422233E-02 0.15673884E+03</pdfrwt>
<totfact> 0.56396868E+03</totfact>
</mgrwt>
</event>
<event>
 7    1  0.1254976E-005  0.1285332E+03  0.7546771E-02  0.1238362E+00
         -1   -1    0    0    0  501 -0.00000000000E+00  0.00000000000E+00  0.15898802981E+03  0.15898802981E+03  0.00000000000E+00 0.  1.
          1   -1    0    0  501    0  0.00000000000E+00 -0.00000000000E+00 -0.39383468517E+03  0.39383468517E+03  0.00000000000E+00 0. -1.
         23    2    1    2    0    0  0.54953422695E+02  0.18140368296E+02 -0.35861932380E+03  0.37438379671E+03  0.90589492815E+02 0.  0.
          5    1    1    2  502    0 -0.34052607233E+02  0.93655794282E+01 -0.12515010468E+02  0.37762542610E+02  0.47000000000E+01 0. -1.
         -5    1    1    2    0  502 -0.20900815463E+02 -0.27505947724E+02  0.13628767891E+03  0.14067637566E+03  0.47000000000E+01 0.  1.
        -11    1    3    3    0    0  0.74666075706E+02  0.63836071793E+01 -0.32597640867E+03  0.33447928533E+03  0.00000000000E+00 0. -1.
         11    1    3    3    0    0 -0.19712653010E+02  0.11756761116E+02 -0.32642915125E+02  0.39904511380E+02  0.00000000000E+00 0.  1.
<mgrwt>
<rscale>  0 0.12291632E+03</rscale>
<asrwt>0</asrwt>
<pdfrwt beam="2">  1        1 0.60589952E-01 0.12853316E+03</pdfrwt>
<pdfrwt beam="1">  1       -1 0.24459697E-01 0.12853316E+03</pdfrwt>
<totfact> 0.89040418E+02</totfact>
</mgrwt>
</event>
<event>
 7    1  0.1254976E-005  0.1272637E+03  0.7546771E-02  0.1247024E+00
         -2   -1    0    0    0  501 -0.00000000000E+00  0.00000000000E+00  0.90918741352E+02  0.90918741352E+02  0.00000000000E+00 0.  1.
          2   -1    0    0  501    0  0.00000000000E+00 -0.00000000000E+00 -0.18208393444E+03  0.18208393444E+03  0.00000000000E+00 0. -1.
         23    2    1    2    0    0 -0.21809511005E+02 -0.95496692128E+01 -0.11037074400E+03  0.14429799925E+03  0.89851880917E+02 0.  0.
          5    1    1    2  502    0 -0.22839583636E+02  0.40056572671E+02  0.48448578254E+02  0.67048716093E+02  0.47000000000E+01 0.  1.
         -5    1    1    2    0  502  0.44649094641E+02 -0.30506903458E+02 -0.29243027348E+02  0.61655960453E+02  0.47000000000E+01 0.  1.
        -11    1    3    3    0    0  0.12079676860E+02  0.33188478326E+02 -0.62201567445E+02  0.71529215564E+02  0.00000000000E+00 0.  1.
         11    1    3    3    0    0 -0.33889187865E+02 -0.42738147538E+02 -0.48169176551E+02  0.72768783683E+02  0.00000000000E+00 0. -1.
<mgrwt>
<rscale>  0 0.11765052E+03</rscale>
<asrwt>0</asrwt>
<pdfrwt beam="2">  1        2 0.28012913E-01 0.12726367E+03</pdfrwt>
<pdfrwt beam="1">  1       -2 0.13987499E-01 0.12726367E+03</pdfrwt>
<totfact> 0.68773355E+03</totfact>
</mgrwt>
</event>
<event>
 7    1  0.1254976E-005  0.1424222E+03  0.7546771E-02  0.1220379E+00
         -1   -1    0    0    0  501 -0.00000000000E+00  0.00000000000E+00  0.30069041544E+02  0.30069041544E+02  0.00000000000E+00 0.  1.
          1   -1    0    0  501    0  0.00000000000E+00 -0.00000000000E+00 -0.61221099335E+03  0.61221099335E+03  0.00000000000E+00 0. -1.
         23    2    1    2    0    0 -0.22899067622E+02  0.64300039451E+02 -0.36527817261E+03  0.38283063243E+03  0.92045029017E+02 0.  0.
          5    1    1    2  502    0 -0.19564381052E+02 -0.88289554847E+02 -0.16422331270E+03  0.18753452198E+03  0.47000000000E+01 0.  1.
         -5    1    1    2    0  502  0.42463448673E+02  0.23989515396E+02 -0.52640466493E+02  0.71914880482E+02  0.47000000000E+01 0.  1.
        -11    1    3    3    0    0  0.27285475324E+02  0.40736253755E+02 -0.94796281556E+02  0.10672522912E+03  0.00000000000E+00 0.  1.
         11    1    3    3    0    0 -0.50184542945E+02  0.23563785696E+02 -0.27048189106E+03  0.27610540331E+03  0.00000000000E+00 0. -1.
<mgrwt>
<rscale>  0 0.13488734E+03</rscale>
<asrwt>0</asrwt>
<pdfrwt beam="2">  1        1 0.94186301E-01 0.14242224E+03</pdfrwt>
<pdfrwt beam="1">  1       -1 0.46260067E-02 0.14242224E+03</pdfrwt>
<totfact> 0.65281740E+03</totfact>
</mgrwt>
</event>
<event>
 7    1  0.1254976E-005  0.2153885E+03  0.7546771E-02  0.1144057E+00
         -1   -1    0    0    0  501 -0.00000000000E+00  0.00000000000E+00  0.58146768474E+02  0.58146768474E+02  0.00000000000E+00 0.  1.
          1   -1    0    0  501    0  0.00000000000E+00 -0.00000000000E+00 -0.68353224992E+03  0.68353224992E+03  0.00000000000E+00 0. -1.
         23    2    1    2    0    0  0.31427747306E+02 -0.15908752235E+03 -0.28879754630E+03  0.34207467172E+03  0.85524939131E+02 0.  0.
          5    1    1    2  502    0 -0.47331887285E+01  0.17155965561E+03 -0.21892978890E+03  0.27822196350E+03  0.47000000000E+01 0. -1.
         -5    1    1    2    0  502 -0.26694558577E+02 -0.12472133260E+02 -0.11765814626E+03  0.12138238318E+03  0.47000000000E+01 0.  1.
        -11    1    3    3    0    0  0.19536495669E+02 -0.77716967304E+02 -0.22234923405E+03  0.23634885985E+03  0.00000000000E+00 0. -1.
         11    1    3    3    0    0  0.11891251637E+02 -0.81370555049E+02 -0.66448312252E+02  0.10572581187E+03  0.00000000000E+00 0.  1.
<mgrwt>
<rscale>  0 0.20688410E+03</rscale>
<asrwt>0</asrwt>
<pdfrwt beam="2">  1        1 0.10515881E+00 0.21538848E+03</pdfrwt>
<pdfrwt beam="1">  1       -1 0.89456566E-02 0.21538848E+03</pdfrwt>
<totfact> 0.21045436E+03</totfact>
</mgrwt>
</event>
<event>
 7    1  0.1254976E-005  0.1346047E+03  0.7546771E-02  0.1234390E+00
          2   -1    0    0  501    0  0.00000000000E+00  0.00000000000E+00  0.46365880685E+03  0.46365880685E+03  0.00000000000E+00 0. -1.
         -2   -1    0    0    0  501 -0.00000000000E+00 -0.00000000000E+00 -0.31536566500E+02  0.31536566500E+02  0.00000000000E+00 0.  1.
         23    2    1    2    0    0 -0.42494952326E+02 -0.26230163766E+02  0.24027466651E+03  0.26083684361E+03  0.88374776689E+02 0.  0.
          5    1    1    2  502    0  0.76402914567E+02  0.45837055365E+02  0.16179791819E+03  0.18476768475E+03  0.47000000000E+01 0. -1.
         -5    1    1    2    0  502 -0.33907962241E+02 -0.19606891599E+02  0.30049655655E+02  0.49590844987E+02  0.47000000000E+01 0. -1.
        -11    1    3    3    0    0 -0.65897565833E+02 -0.36898651118E+02  0.18711862331E+03  0.20178547724E+03  0.00000000000E+00 0. -1.
         11    1    3    3    0    0  0.23402613507E+02  0.10668487352E+02  0.53156043205E+02  0.59051366373E+02  0.00000000000E+00 0.  1.
<mgrwt>
<rscale>  0 0.12543555E+03</rscale>
<asrwt>0</asrwt>
<pdfrwt beam="1">  1        2 0.71332119E-01 0.13460471E+03</pdfrwt>
<pdfrwt beam="2">  1       -2 0.48517798E-02 0.13460471E+03</pdfrwt>
<totfact> 0.13143625E+04</totfact>
</mgrwt>
</event>
<event>
 7    1  0.1254976E-005  0.1776528E+03  0.7546771E-02  0.1175257E+00
         -2   -1    0    0    0  501 -0.00000000000E+00  0.00000000000E+00  0.65664106525E+02  0.65664106525E+02  0.00000000000E+00 0.  1.
          2   -1    0    0  501    0  0.00000000000E+00 -0.00000000000E+00 -0.47592849743E+03  0.47592849743E+03  0.00000000000E+00 0. -1.
         23    2    1    2    0    0  0.53509003378E+02 -0.11433176250E+03 -0.27935239656E+03  0.32091532408E+03  0.94941657906E+02 0.  0.
          5    1    1    2  502    0  0.70807660055E+01  0.11322943903E+03 -0.10481690156E+03  0.15453063115E+03  0.47000000000E+01 0.  1.
         -5    1    1    2    0  502 -0.60589769384E+02  0.11023234731E+01 -0.26095092784E+02  0.66146648732E+02  0.47000000000E+01 0.  1.
        -11    1    3    3    0    0  0.80824045372E+02 -0.86424216887E+02 -0.19771669723E+03  0.23042040695E+03  0.00000000000E+00 0.  1.
         11    1    3    3    0    0 -0.27315041994E+02 -0.27907545613E+02 -0.81635699334E+02  0.90494917133E+02  0.00000000000E+00 0. -1.
<mgrwt>
<rscale>  0 0.17250846E+03</rscale>
<asrwt>0</asrwt>
<pdfrwt beam="2">  1        2 0.73219769E-01 0.17765278E+03</pdfrwt>
<pdfrwt beam="1">  1       -2 0.10102170E-01 0.17765278E+03</pdfrwt>
<totfact> 0.42057702E+03</totfact>
</mgrwt>
</event>
<event>
 7    1  0.1254976E-005  0.1802439E+03  0.7546771E-02  0.1173181E+00
         -1   -1    0    0    0  501 -0.00000000000E+00  0.00000000000E+00  0.10743338126E+03  0.10743338126E+03  0.00000000000E+00 0.  1.
          1   -1    0    0  501    0  0.00000000000E+00 -0.00000000000E+00 -0.27963347696E+03  0.27963347696E+03  0.00000000000E+00 0. -1.
         23    2    1    2    0    0 -0.11557283491E+03 -0.59211667206E+02 -0.12175796545E+03  0.19989771984E+03  0.90945008356E+02 0.  0.
          5    1    1    2  502    0  0.65859933866E+02  0.90128786828E+02 -0.31609296106E+01  0.11177124219E+03  0.47000000000E+01 0.  1.
         -5    1    1    2    0  502  0.49712901044E+02 -0.30917119623E+02 -0.47281200641E+02  0.75397896191E+02  0.47000000000E+01 0.  1.
        -11    1    3    3    0    0 -0.59211816389E+02 -0.78256656747E+02 -0.65248184868E+02  0.11784510662E+03  0.00000000000E+00 0.  1.
         11    1    3    3    0    0 -0.56361018521E+02  0.19044989541E+02 -0.56509780585E+02  0.82052613225E+02  0.00000000000E+00 0. -1.
<mgrwt>
<rscale>  0 0.17455344E+03</rscale>
<asrwt>0</asrwt>
<pdfrwt beam="2">  1        1 0.43020534E-01 0.18024394E+03</pdfrwt>
<pdfrwt beam="1">  1       -1 0.16528213E-01 0.18024394E+03</pdfrwt>
<totfact> 0.25895243E+03</totfact>
</mgrwt>
</event>
<event>
 7    1  0.1254976E-005  0.1676884E+03  0.7546771E-02  0.1187005E+00
          3   -1    0    0  501    0  0.00000000000E+00  0.00000000000E+00  0.75305294936E+02  0.75305294936E+02  0.00000000000E+00 0. -1.
         -3   -1    0    0    0  501 -0.00000000000E+00 -0.00000000000E+00 -0.33850978662E+03  0.33850978662E+03  0.00000000000E+00 0.  1.
         23    2    1    2    0    0  0.14065342692E+02  0.11089342423E+03 -0.78213097850E+02  0.16413288124E+03  0.91253102009E+02 0.  0.
          5    1    1    2  502    0 -0.31341166473E+02 -0.11449063720E+03 -0.80251745585E+02  0.14336250344E+03  0.47000000000E+01 0.  1.
         -5    1    1    2    0  502  0.17275823780E+02  0.35972129761E+01 -0.10473964825E+03  0.10631969688E+03  0.47000000000E+01 0.  1.
        -11    1    3    3    0    0  0.14663135088E+02  0.15097116865E+02 -0.63893468289E+02  0.67270392880E+02  0.00000000000E+00 0.  1.
         11    1    3    3    0    0 -0.59779239637E+00  0.95796307363E+02 -0.14319629561E+02  0.96862488358E+02  0.00000000000E+00 0. -1.
<mgrwt>
<rscale>  0 0.16150773E+03</rscale>
<asrwt>0</asrwt>
<pdfrwt beam="1">  1        3 0.11585430E-01 0.16768836E+03</pdfrwt>
<pdfrwt beam="2">  1       -3 0.52078429E-01 0.16768836E+03</pdfrwt>
<totfact> 0.50657163E+02</totfact>
</mgrwt>
</event>
<event>
 7    1  0.1254976E-005  0.2641643E+03  0.7546771E-02  0.1113270E+00
         -1   -1    0    0    0  501 -0.00000000000E+00  0.00000000000E+00  0.13727172031E+04  0.13727172031E+04  0.00000000000E+00 0.  1.
          1   -1    0    0  501    0  0.00000000000E+00 -0.00000000000E+00 -0.70527071067E+02  0.70527071067E+02  0.00000000000E+00 0. -1.
         23    2    1    2    0    0 -0.18970485467E+03  0.25357054096E+02  0.14654921796E+03  0.25779553629E+03  0.91383549778E+02 0.  0.
          5    1    1    2  502    0  0.11878932881E+03  0.44392637607E+02  0.32559160626E+03  0.34944755684E+03  0.47000000000E+01 0. -1.
         -5    1    1    2    0  502  0.70915525856E+02 -0.69749691703E+02  0.83004930780E+03  0.83600118103E+03  0.47000000000E+01 0.  1.
        -11    1    3    3    0    0 -0.15767092616E+02  0.34341565863E+02  0.22710020923E+02  0.44087293020E+02  0.00000000000E+00 0.  1.
         11    1    3    3    0    0 -0.17393776205E+03 -0.89845117674E+01  0.12383919704E+03  0.21370824327E+03  0.00000000000E+00 0. -1.
<mgrwt>
<rscale>  0 0.25005486E+03</rscale>
<asrwt>0</asrwt>
<pdfrwt beam="2">  1        1 0.10850320E-01 0.26416432E+03</pdfrwt>
<pdfrwt beam="1">  1       -1 0.21118724E+00 0.26416432E+03</pdfrwt>
<totfact> 0.81150158E+01</totfact>
</mgrwt>
</event>
<event>
 7    1  0.1254976E-005  0.1374584E+03  0.7546771E-02  0.1230018E+00
          1   -1    0    0  501    0  0.00000000000E+00  0.00000000000E+00  0.24330608005E+03  0.24330608005E+03  0.00000000000E+00 0. -1.
         -1   -1    0    0    0  501 -0.00000000000E+00 -0.00000000000E+00 -0.64721037428E+02  0.64721037428E+02  0.00000000000E+00 0.  1.
         23    2    1    2    0    0  0.13510402018E+02 -0.55579484749E+02  0.11894078898E+03  0.15818636656E+03  0.87203240725E+02 0.  0.
          5    1    1    2  502    0 -0.66506617761E+01 -0.37108624545E+02  0.39143709764E+02  0.54549072694E+02  0.47000000000E+01 0. -1.
         -5    1    1    2    0  502 -0.68597402419E+01  0.92688109295E+02  0.20500543880E+02  0.95291678231E+02  0.47000000000E+01 0. -1.
        -11    1    3    3    0    0  0.24442985037E+02 -0.45374498443E+02  0.12983056078E+03  0.13968635989E+03  0.00000000000E+00 0. -1.
         11    1    3    3    0    0 -0.10932583020E+02 -0.10204986306E+02 -0.10889771796E+02  0.18500006669E+02  0.00000000000E+00 0.  1.
<mgrwt>
<rscale>  0 0.12828835E+03</rscale>
<asrwt>0</asrwt>
<pdfrwt beam="1">  1        1 0.37431704E-01 0.13745841E+03</pdfrwt>
<pdfrwt beam="2">  1       -1 0.99570828E-02 0.13745841E+03</pdfrwt>
<totfact> 0.66810422E+03</totfact>
</mgrwt>
</event>
<event>
 7    1  0.1254976E-005  0.1548198E+03  0.7546771E-02  0.1203835E+00
         -1   -1    0    0    0  501 -0.00000000000E+00  0.00000000000E+00  0.20026771756E+02  0.20026771756E+02  0.00000000000E+00 0.  1.
          1   -1    0    0  501    0  0.00000000000E+00 -0.00000000000E+00 -0.11432408309E+04  0.11432408309E+04  0.00000000000E+00 0. -1.
         23    2    1    2    0    0 -0.51039186338E+02  0.75744689138E+02 -0.30153353653E+03  0.32712882025E+03  0.88025762750E+02 0.  0.
          5    1    1    2  502    0  0.60045398937E+02 -0.86141934179E+02 -0.81176751282E+03  0.81854411465E+03  0.47000000000E+01 0.  1.
         -5    1    1    2    0  502 -0.90062125991E+01  0.10397245041E+02 -0.99130097518E+01  0.17594667720E+02  0.47000000000E+01 0.  1.
        -11    1    3    3    0    0 -0.39618013607E+02  0.86410991696E+02 -0.29543806820E+03  0.31035479476E+03  0.00000000000E+00 0. -1.
         11    1    3    3    0    0 -0.11421172731E+02 -0.10666302558E+02 -0.60954683290E+01  0.16774025485E+02  0.00000000000E+00 0.  1.
<mgrwt>
<rscale>  0 0.14729640E+03</rscale>
<asrwt>0</asrwt>
<pdfrwt beam="2">  1        1 0.17588326E+00 0.15481984E+03</pdfrwt>
<pdfrwt beam="1">  1       -1 0.30810408E-02 0.15481984E+03</pdfrwt>
<totfact> 0.44846943E+03</totfact>
</mgrwt>
</event>
<event>
 7    1  0.1254976E-005  0.4145707E+03  0.7546771E-02  0.1038848E+00
         -2   -1    0    0    0  501 -0.00000000000E+00  0.00000000000E+00  0.24804533624E+03  0.24804533624E+03  0.00000000000E+00 0.  1.
          2   -1    0    0  501    0  0.00000000000E+00 -0.00000000000E+00 -0.17322324246E+03  0.17322324246E+03  0.00000000000E+00 0. -1.
         23    2    1    2    0    0 -0.95631814899E+02 -0.49148747711E+02  0.14503738697E+02  0.14199886062E+03  0.91609358472E+02 0.  0.
          5    1    1    2  502    0  0.33133299784E+02  0.14962114573E+02 -0.98523168806E+02  0.10512176377E+03  0.47000000000E+01 0. -1.
         -5    1    1    2    0  502  0.62498515116E+02  0.34186633138E+02  0.15884152389E+03  0.17414795431E+03  0.47000000000E+01 0.  1.
        -11    1    3    3    0    0  0.56662100400E+01 -0.38476300296E+02  0.94067644226E+01  0.40012733443E+02  0.00000000000E+00 0. -1.
         11    1    3    3    0    0 -0.10129802494E+03 -0.10672447415E+02  0.50969742746E+01  0.10198612718E+03  0.00000000000E+00 0.  1.
<mgrwt>
<rscale>  0 0.41457071E+03</rscale>
<asrwt>0</asrwt>
<pdfrwt beam="2">  1        2 0.26649730E-01 0.41457071E+03</pdfrwt>
<pdfrwt beam="1">  1       -2 0.38160821E-01 0.41457071E+03</pdfrwt>
<totfact> 0.13148546E+03</totfact>
</mgrwt>
</event>
<event>
 7    1  0.1254976E-005  0.1298509E+03  0.7546771E-02  0.1244927E+00
         -1   -1    0    0    0  501 -0.00000000000E+00  0.00000000000E+00  0.87937512143E+03  0.87937512143E+03  0.00000000000E+00 0.  1.
          1   -1    0    0  501    0  0.00000000000E+00 -0.00000000000E+00 -0.15452770740E+02  0.15452770740E+02  0.00000000000E+00 0. -1.
         23    2    1    2    0    0  0.30803739385E+02 -0.17423522791E+02  0.22434907378E+03  0.24220608754E+03  0.84135797557E+02 0.  0.
          5    1    1    2  502    0 -0.21118851610E+02 -0.53124505397E+02  0.24298830719E+03  0.24966703105E+03  0.47000000000E+01 0. -1.
         -5    1    1    2    0  502 -0.96848877751E+01  0.70548028188E+02  0.39658496972E+03  0.40295477357E+03  0.47000000000E+01 0. -1.
        -11    1    3    3    0    0  0.49380403832E+02 -0.38850160321E+02  0.14962365416E+03  0.16228061229E+03  0.00000000000E+00 0. -1.
         11    1    3    3    0    0 -0.18576664447E+02  0.21426637530E+02  0.74725419616E+02  0.79925475254E+02  0.00000000000E+00 0.  1.
<mgrwt>
<rscale>  0 0.11889746E+03</rscale>
<asrwt>0</asrwt>
<pdfrwt beam="2">  1        1 0.23773500E-02 0.12985085E+03</pdfrwt>
<pdfrwt beam="1">  1       -1 0.13528844E+00 0.12985085E+03</pdfrwt>
<totfact> 0.22537578E+03</totfact>
</mgrwt>
</event>
<event>
 7    1  0.1254976E-005  0.1513760E+03  0.7546771E-02  0.1207726E+00
         -3   -1    0    0    0  501 -0.00000000000E+00  0.00000000000E+00  0.99752779296E+03  0.99752779296E+03  0.00000000000E+00 0.  1.
          3   -1    0    0  501    0  0.00000000000E+00 -0.00000000000E+00 -0.23990356528E+02  0.23990356528E+02  0.00000000000E+00 0. -1.
         23    2    1    2    0    0  0.81843320266E+02  0.24288624067E+02  0.22011199049E+03  0.25303614868E+03  0.91047997520E+02 0.  0.
          5    1    1    2  502    0 -0.92421997821E+00  0.22298299630E+02  0.45907980409E+03  0.45964597776E+03  0.47000000000E+01 0. -1.
         -5    1    1    2    0  502 -0.80919100288E+02 -0.46586923697E+02  0.29434564186E+03  0.30883602305E+03  0.47000000000E+01 0. -1.
        -11    1    3    3    0    0  0.48697422744E+02 -0.32854263723E+02  0.10219896203E+03  0.11787904592E+03  0.00000000000E+00 0. -1.
         11    1    3    3    0    0  0.33145897522E+02  0.57142887790E+02  0.11791302845E+03  0.13515710276E+03  0.00000000000E+00 0.  1.
<mgrwt>
<rscale>  0 0.14424696E+03</rscale>
<asrwt>0</asrwt>
<pdfrwt beam="2">  1        3 0.36908249E-02 0.15137597E+03</pdfrwt>
<pdfrwt beam="1">  1       -3 0.15346578E+00 0.15137597E+03</pdfrwt>
<totfact> 0.28214370E+02</totfact>
</mgrwt>
</event>
<event>
 7    1  0.1254976E-005  0.1326772E+03  0.7546771E-02  0.1236417E+00
         -1   -1    0    0    0  501 -0.00000000000E+00  0.00000000000E+00  0.33527455328E+02  0.33527455328E+02  0.00000000000E+00 0.  1.
          1   -1    0    0  501    0  0.00000000000E+00 -0.00000000000E+00 -0.41748839870E+03  0.41748839870E+03  0.00000000000E+00 0. -1.
         23    2    1    2    0    0  0.29316869929E+01 -0.44387919114E+02 -0.19785464236E+03  0.22245779780E+03  0.91444683517E+02 0.  0.
          5    1    1    2  502    0  0.44581038878E+02  0.44907707634E+02 -0.16418322774E+03  0.17601816242E+03  0.47000000000E+01 0.  1.
         -5    1    1    2    0  502 -0.47512725871E+02 -0.51978851944E+00 -0.21923073272E+02  0.52539893809E+02  0.47000000000E+01 0.  1.
        -11    1    3    3    0    0 -0.35890144811E+02  0.24972354599E+00 -0.39280764881E+02  0.53208489417E+02  0.00000000000E+00 0.  1.
         11    1    3    3    0    0  0.38821831804E+02 -0.44637642660E+02 -0.15857387748E+03  0.16924930838E+03  0.00000000000E+00 0. -1.
<mgrwt>
<rscale>  0 0.12414165E+03</rscale>
<asrwt>0</asrwt>
<pdfrwt beam="2">  1        1 0.64228989E-01 0.13267716E+03</pdfrwt>
<pdfrwt beam="1">  1       -1 0.51580697E-02 0.13267716E+03</pdfrwt>
<totfact> 0.91406737E+03</totfact>
</mgrwt>
</event>
<event>
 7    1  0.1254976E-005  0.1329622E+03  0.7546771E-02  0.1235363E+00
         -2   -1    0    0    0  501 -0.00000000000E+00  0.00000000000E+00  0.23590405217E+02  0.23590405217E+02  0.00000000000E+00 0.  1.
          2   -1    0    0  501    0  0.00000000000E+00 -0.00000000000E+00 -0.59308217794E+03  0.59308217794E+03  0.00000000000E+00 0. -1.
         23    2    1    2    0    0 -0.35469420606E+02  0.28212260601E+02 -0.26605694190E+03  0.28538474185E+03  0.92758520384E+02 0.  0.
          5    1    1    2  502    0  0.51323657234E+02 -0.32117331363E+02 -0.30780953162E+03  0.31374263102E+03  0.47000000000E+01 0.  1.
         -5    1    1    2    0  502 -0.15854236628E+02  0.39050707630E+01  0.43747007960E+01  0.17545210280E+02  0.47000000000E+01 0.  1.
        -11    1    3    3    0    0 -0.65089415514E+02  0.44315323165E+01 -0.17034015435E+03  0.18240624626E+03  0.00000000000E+00 0. -1.
         11    1    3    3    0    0  0.29619994908E+02  0.23780728284E+02 -0.95716787548E+02  0.10297849559E+03  0.00000000000E+00 0.  1.
<mgrwt>
<rscale>  0 0.12481199E+03</rscale>
<asrwt>0</asrwt>
<pdfrwt beam="2">  1        2 0.91243407E-01 0.13296216E+03</pdfrwt>
<pdfrwt beam="1">  1       -2 0.36292933E-02 0.13296216E+03</pdfrwt>
<totfact> 0.15403534E+04</totfact>
</mgrwt>
</event>
<event>
 7    1  0.1254976E-005  0.1556262E+03  0.7546771E-02  0.1202054E+00
         -3   -1    0    0    0  501 -0.00000000000E+00  0.00000000000E+00  0.14244999891E+03  0.14244999891E+03  0.00000000000E+00 0.  1.
          3   -1    0    0  501    0  0.00000000000E+00 -0.00000000000E+00 -0.14780124140E+03  0.14780124140E+03  0.00000000000E+00 0. -1.
         23    2    1    2    0    0 -0.57788767671E+02 -0.72487090217E+02 -0.28587483154E+02  0.13289990713E+03  0.90836232880E+02 0.  0.
          5    1    1    2  502    0  0.85763533309E+02  0.33886141356E+02 -0.18084242838E+02  0.94089234563E+02  0.47000000000E+01 0.  1.
         -5    1    1    2    0  502 -0.27974765638E+02  0.38600948861E+02  0.41320483495E+02  0.63262098620E+02  0.47000000000E+01 0.  1.
        -11    1    3    3    0    0 -0.32223379079E+02  0.10314529952E+02  0.13665244704E+02  0.36489376539E+02  0.00000000000E+00 0. -1.
         11    1    3    3    0    0 -0.25565388591E+02 -0.82801620169E+02 -0.42252727858E+02  0.96410530586E+02  0.00000000000E+00 0.  1.
<mgrwt>
<rscale>  0 0.14872069E+03</rscale>
<asrwt>0</asrwt>
<pdfrwt beam="2">  1        3 0.22738652E-01 0.15562622E+03</pdfrwt>
<pdfrwt beam="1">  1       -3 0.21915385E-01 0.15562622E+03</pdfrwt>
<totfact> 0.80182872E+02</totfact>
</mgrwt>
</event>
<event>
 7    1  0.1254976E-005  0.1415252E+03  0.7546771E-02  0.1221805E+00
          1   -1    0    0  501    0  0.00000000000E+00  0.00000000000E+00  0.54303385134E+03  0.54303385134E+03  0.00000000000E+00 0. -1.
         -1   -1    0    0    0  501 -0.00000000000E+00 -0.00000000000E+00 -0.29947615707E+02  0.29947615707E+02  0.00000000000E+00 0.  1.
         23    2    1    2    0    0  0.53970432119E+02  0.38633222538E+02  0.23886046447E+03  0.26438925871E+03  0.91880494182E+02 0.  0.
          5    1    1    2  502    0  0.37189833038E+02 -0.13239058715E+02  0.13070653051E+03  0.13661860589E+03  0.47000000000E+01 0.  1.
         -5    1    1    2    0  502 -0.91160265156E+02 -0.25394163823E+02  0.14351924066E+03  0.17197360245E+03  0.47000000000E+01 0.  1.
        -11    1    3    3    0    0  0.36306105285E+02  0.48816087817E+02  0.23610229993E+03  0.24381435508E+03  0.00000000000E+00 0. -1.
         11    1    3    3    0    0  0.17664326834E+02 -0.10182865279E+02  0.27581645326E+01  0.20574903630E+02  0.00000000000E+00 0.  1.
<mgrwt>
<rscale>  0 0.13388349E+03</rscale>
<asrwt>0</asrwt>
<pdfrwt beam="1">  1        1 0.83543662E-01 0.14152518E+03</pdfrwt>
<pdfrwt beam="2">  1       -1 0.46073259E-02 0.14152518E+03</pdfrwt>
<totfact> 0.77179577E+03</totfact>
</mgrwt>
</event>
<event>
 7    1  0.1254976E-005  0.1569823E+03  0.7546771E-02  0.1200934E+00
          2   -1    0    0  501    0  0.00000000000E+00  0.00000000000E+00  0.42074197026E+03  0.42074197026E+03  0.00000000000E+00 0. -1.
         -2   -1    0    0    0  501 -0.00000000000E+00 -0.00000000000E+00 -0.99098008298E+02  0.99098008298E+02  0.00000000000E+00 0.  1.
         23    2    1    2    0    0  0.81003149730E+02 -0.49572639659E+02  0.33802656223E+03  0.36200512320E+03  0.88129425170E+02 0.  0.
          5    1    1    2  502    0  0.20601954838E+02  0.46638218067E+02 -0.22429349319E+02  0.55899281199E+02  0.47000000000E+01 0.  1.
         -5    1    1    2    0  502 -0.10160510457E+03  0.29344215920E+01  0.60467490466E+01  0.10193557416E+03  0.47000000000E+01 0.  1.
        -11    1    3    3    0    0  0.98470736398E+01 -0.42853127777E+02  0.21733498930E+03  0.22173825334E+03  0.00000000000E+00 0.  1.
         11    1    3    3    0    0  0.71156076090E+02 -0.67195118823E+01  0.12069157293E+03  0.14026686987E+03  0.00000000000E+00 0. -1.
<mgrwt>
<rscale>  0 0.14962552E+03</rscale>
<asrwt>0</asrwt>
<pdfrwt beam="1">  1        2 0.64729533E-01 0.15698233E+03</pdfrwt>
<pdfrwt beam="2">  1       -2 0.15245848E-01 0.15698233E+03</pdfrwt>
<totfact> 0.24672370E+03</totfact>
</mgrwt>
</event>
<event>
 7    1  0.1254976E-005  0.2992930E+03  0.7546771E-02  0.1087134E+00
         -2   -1    0    0    0  501 -0.00000000000E+00  0.00000000000E+00  0.46218561074E+02  0.46218561074E+02  0.00000000000E+00 0. -1.
          2   -1    0    0  501    0  0.00000000000E+00 -0.00000000000E+00 -0.18713906747E+04  0.18713906747E+04  0.00000000000E+00 0.  1.
         23    2    1    2    0    0 -0.16282879885E+03  0.21786184530E+03 -0.82277687376E+03  0.87148663434E+03  0.92467121014E+02 0.  0.
          5    1    1    2  502    0  0.12080337924E+03 -0.20984618145E+03 -0.70066926791E+03  0.74134228889E+03  0.47000000000E+01 0.  1.
         -5    1    1    2    0  502  0.42025419608E+02 -0.80156638444E+01 -0.30172597199E+03  0.30478031257E+03  0.47000000000E+01 0.  1.
        -11    1    3    3    0    0 -0.10860326192E+03  0.20430758785E+03 -0.66124801469E+03  0.70056062970E+03  0.00000000000E+00 0.  1.
         11    1    3    3    0    0 -0.54225536930E+02  0.13554257448E+02 -0.16152885906E+03  0.17092600464E+03  0.00000000000E+00 0. -1.
<mgrwt>
<rscale>  0 0.29624225E+03</rscale>
<asrwt>0</asrwt>
<pdfrwt beam="2">  1        2 0.28790633E+00 0.29929297E+03</pdfrwt>
<pdfrwt beam="1">  1       -2 0.71105460E-02 0.29929297E+03</pdfrwt>
<totfact> 0.98479722E+02</totfact>
</mgrwt>
</event>
<event>
 7    1  0.1254976E-005  0.1350188E+03  0.7546771E-02  0.1229618E+00
         -1   -1    0    0    0  501 -0.00000000000E+00  0.00000000000E+00  0.14192487968E+02  0.14192487968E+02  0.00000000000E+00 0.  1.
          1   -1    0    0  501    0  0.00000000000E+00 -0.00000000000E+00 -0.10659505854E+04  0.10659505854E+04  0.00000000000E+00 0. -1.
         23    2    1    2    0    0 -0.17946049417E+02  0.47764808999E+02 -0.46755012633E+03  0.48053568132E+03  0.98528588325E+02 0.  0.
          5    1    1    2  502    0  0.61389808026E+02 -0.31434761650E+02 -0.18171914803E+03  0.19442425653E+03  0.47000000000E+01 0.  1.
         -5    1    1    2    0  502 -0.43443758609E+02 -0.16330047349E+02 -0.40248882310E+03  0.40518313555E+03  0.47000000000E+01 0.  1.
        -11    1    3    3    0    0  0.35494292786E+02 -0.88226757527E+00 -0.10461748783E+03  0.11047824209E+03  0.00000000000E+00 0. -1.
         11    1    3    3    0    0 -0.53440342202E+02  0.48647076574E+02 -0.36293263850E+03  0.37005743922E+03  0.00000000000E+00 0.  1.
<mgrwt>
<rscale>  0 0.12855357E+03</rscale>
<asrwt>0</asrwt>
<pdfrwt beam="2">  1        1 0.16399240E+00 0.13501878E+03</pdfrwt>
<pdfrwt beam="1">  1       -1 0.21834597E-02 0.13501878E+03</pdfrwt>
<totfact> 0.83394112E+03</totfact>
</mgrwt>
</event>
<event>
 7    1  0.1254976E-005  0.1330190E+03  0.7546771E-02  0.1236348E+00
         -2   -1    0    0    0  501 -0.00000000000E+00  0.00000000000E+00  0.47651097089E+02  0.47651097089E+02  0.00000000000E+00 0.  1.
          2   -1    0    0  501    0  0.00000000000E+00 -0.00000000000E+00 -0.28869420568E+03  0.28869420568E+03  0.00000000000E+00 0. -1.
         23    2    1    2    0    0 -0.21189089906E+02  0.40204795965E+02 -0.11507219008E+03  0.15314396325E+03  0.90255533904E+02 0.  0.
          5    1    1    2  502    0 -0.61195468917E+00  0.44362793360E+02 -0.32524915401E+02  0.55212245427E+02  0.47000000000E+01 0. -1.
         -5    1    1    2    0  502  0.21801044595E+02 -0.84567589325E+02 -0.93446003115E+02  0.12798909410E+03  0.47000000000E+01 0. -1.
        -11    1    3    3    0    0 -0.12962198837E+02  0.59395247715E+02 -0.11732829442E+03  0.13214288752E+03  0.00000000000E+00 0. -1.
         11    1    3    3    0    0 -0.82268910689E+01 -0.19190451750E+02  0.22561043425E+01  0.21001075730E+02  0.00000000000E+00 0.  1.
<mgrwt>
<rscale>  0 0.12418562E+03</rscale>
<asrwt>0</asrwt>
<pdfrwt beam="2">  1        2 0.44414493E-01 0.13301902E+03</pdfrwt>
<pdfrwt beam="1">  1       -2 0.73309381E-02 0.13301902E+03</pdfrwt>
<totfact> 0.11641171E+04</totfact>
</mgrwt>
</event>
<event>
 7    1  0.1254976E-005  0.1856797E+03  0.7546771E-02  0.1174852E+00
         -2   -1    0    0    0  501 -0.00000000000E+00  0.00000000000E+00  0.81723502607E+02  0.81723502607E+02  0.00000000000E+00 0.  1.
          2   -1    0    0  501    0  0.00000000000E+00 -0.00000000000E+00 -0.45950243165E+03  0.45950243165E+03  0.00000000000E+00 0. -1.
         23    2    1    2    0    0  0.98936486317E+02 -0.34139270263E+02 -0.31611743164E+03  0.34557554878E+03  0.92402982794E+02 0.  0.
          5    1    1    2  502    0 -0.23249347701E+02  0.29176884333E+02 -0.10264001375E+03  0.10931095631E+03  0.47000000000E+01 0. -1.
         -5    1    1    2    0  502 -0.75687138617E+02  0.49623859299E+01  0.40978516347E+02  0.86339429162E+02  0.47000000000E+01 0.  1.
        -11    1    3    3    0    0  0.89451915762E+02  0.12318020727E+02 -0.23299903145E+03  0.24988382806E+03  0.00000000000E+00 0. -1.
         11    1    3    3    0    0  0.94845705551E+01 -0.46457290989E+02 -0.83118400190E+02  0.95691720722E+02  0.00000000000E+00 0.  1.
<mgrwt>
<rscale>  0 0.17290435E+03</rscale>
<asrwt>0</asrwt>
<pdfrwt beam="2">  1        2 0.70692683E-01 0.18567965E+03</pdfrwt>
<pdfrwt beam="1">  1       -2 0.12572846E-01 0.18567965E+03</pdfrwt>
<totfact> 0.30864378E+03</totfact>
</mgrwt>
</event>
<event>
 7    1  0.1254976E-005  0.3326094E+03  0.7546771E-02  0.1071242E+00
          3   -1    0    0  501    0  0.00000000000E+00  0.00000000000E+00  0.20947941736E+03  0.20947941736E+03  0.00000000000E+00 0. -1.
         -3   -1    0    0    0  501 -0.00000000000E+00 -0.00000000000E+00 -0.10682287039E+04  0.10682287039E+04  0.00000000000E+00 0.  1.
         23    2    1    2    0    0 -0.53701202804E+02  0.30350643405E+03  0.35775037793E+02  0.32334823024E+03  0.90962904385E+02 0.  0.
          5    1    1    2  502    0 -0.10021889830E+02 -0.22479909888E+03 -0.69536548356E+03  0.73088324571E+03  0.47000000000E+01 0. -1.
         -5    1    1    2    0  502  0.63723092633E+02 -0.78707335172E+02 -0.19915884074E+03  0.22347664529E+03  0.47000000000E+01 0. -1.
        -11    1    3    3    0    0 -0.36640921364E+02  0.30116829815E+02  0.62697415826E+01  0.47842347518E+02  0.00000000000E+00 0. -1.
         11    1    3    3    0    0 -0.17060281439E+02  0.27338960424E+03  0.29505296210E+02  0.27550588272E+03  0.00000000000E+00 0.  1.
<mgrwt>
<rscale>  0 0.32976147E+03</rscale>
<asrwt>0</asrwt>
<pdfrwt beam="1">  1        3 0.32227603E-01 0.33260943E+03</pdfrwt>
<pdfrwt beam="2">  1       -3 0.16434288E+00 0.33260943E+03</pdfrwt>
<totfact> 0.62839400E+00</totfact>
</mgrwt>
</event>
<event>
 7    1  0.1254976E-005  0.1591900E+03  0.7546771E-02  0.1197356E+00
         -1   -1    0    0    0  501 -0.00000000000E+00  0.00000000000E+00  0.36373737292E+03  0.36373737292E+03  0.00000000000E+00 0.  1.
          1   -1    0    0  501    0  0.00000000000E+00 -0.00000000000E+00 -0.63752919672E+02  0.63752919672E+02  0.00000000000E+00 0. -1.
         23    2    1    2    0    0 -0.32588070403E+02  0.93035110581E+02  0.81259458045E+02  0.15696844772E+03  0.91205701166E+02 0.  0.
          5    1    1    2  502    0  0.61315606265E+02 -0.52379806537E+02  0.20239627581E+03  0.21792106407E+03  0.47000000000E+01 0.  1.
         -5    1    1    2    0  502 -0.28727535862E+02 -0.40655304044E+02  0.16328719395E+02  0.52600780799E+02  0.47000000000E+01 0.  1.
        -11    1    3    3    0    0  0.11522506630E+02  0.51043574307E+02 -0.36738155784E+01  0.52456758935E+02  0.00000000000E+00 0. -1.
         11    1    3    3    0    0 -0.44110577033E+02  0.41991536273E+02  0.84933273623E+02  0.10451168879E+03  0.00000000000E+00 0.  1.
<mgrwt>
<rscale>  0 0.15256478E+03</rscale>
<asrwt>0</asrwt>
<pdfrwt beam="2">  1        1 0.98081417E-02 0.15918997E+03</pdfrwt>
<pdfrwt beam="1">  1       -1 0.55959595E-01 0.15918997E+03</pdfrwt>
<totfact> 0.21400352E+03</totfact>
</mgrwt>
</event>
<event>
 7    1  0.1254976E-005  0.2217773E+03  0.7546771E-02  0.1132565E+00
         -1   -1    0    0    0  501 -0.00000000000E+00  0.00000000000E+00  0.54255136806E+03  0.54255136806E+03  0.00000000000E+00 0.  1.
          1   -1    0    0  501    0  0.00000000000E+00 -0.00000000000E+00 -0.22663822016E+02  0.22663822016E+02  0.00000000000E+00 0. -1.
         23    2    1    2    0    0 -0.22226508114E+02 -0.12837901473E+02  0.23748615130E+03  0.25532166943E+03  0.90170136103E+02 0.  0.
          5    1    1    2  502    0 -0.43675331844E+02 -0.25811786108E+02  0.11929718678E+03  0.12972159299E+03  0.47000000000E+01 0. -1.
         -5    1    1    2    0  502  0.65901839958E+02  0.38649687581E+02  0.16310420796E+03  0.18017192765E+03  0.47000000000E+01 0. -1.
        -11    1    3    3    0    0 -0.11230817413E+02 -0.51474864662E+02  0.15188547474E+03  0.16076377200E+03  0.00000000000E+00 0. -1.
         11    1    3    3    0    0 -0.10995690701E+02  0.38636963189E+02  0.85600676559E+02  0.94557897428E+02  0.00000000000E+00 0.  1.
<mgrwt>
<rscale>  0 0.22177725E+03</rscale>
<asrwt>0</asrwt>
<pdfrwt beam="2">  1        1 0.34867422E-02 0.22177725E+03</pdfrwt>
<pdfrwt beam="1">  1       -1 0.83469432E-01 0.22177725E+03</pdfrwt>
<totfact> 0.40619344E+03</totfact>
</mgrwt>
</event>
<event>
 7    1  0.1254976E-005  0.1423407E+03  0.7546771E-02  0.1219791E+00
          3   -1    0    0  501    0  0.00000000000E+00  0.00000000000E+00  0.16834125355E+02  0.16834125355E+02  0.00000000000E+00 0. -1.
         -3   -1    0    0    0  501 -0.00000000000E+00 -0.00000000000E+00 -0.10837159343E+04  0.10837159343E+04  0.00000000000E+00 0.  1.
         23    2    1    2    0    0 -0.35647644007E+02  0.58013428206E+02 -0.32541074365E+03  0.34553997787E+03  0.94177554897E+02 0.  0.
          5    1    1    2  502    0  0.14761931123E+02 -0.95274693222E+02 -0.57697026018E+03  0.58498884853E+03  0.47000000000E+01 0.  1.
         -5    1    1    2    0  502  0.20885712884E+02  0.37261265017E+02 -0.16450080516E+03  0.17002123330E+03  0.47000000000E+01 0.  1.
        -11    1    3    3    0    0 -0.42687636077E+02  0.76413171582E+02 -0.30441559857E+03  0.31674921265E+03  0.00000000000E+00 0.  1.
         11    1    3    3    0    0  0.70399920695E+01 -0.18399743376E+02 -0.20995145087E+02  0.28790765218E+02  0.00000000000E+00 0. -1.
<mgrwt>
<rscale>  0 0.13530431E+03</rscale>
<asrwt>0</asrwt>
<pdfrwt beam="1">  1        3 0.25898658E-02 0.14234073E+03</pdfrwt>
<pdfrwt beam="2">  1       -3 0.16672550E+00 0.14234073E+03</pdfrwt>
<totfact> 0.39257460E+02</totfact>
</mgrwt>
</event>
<event>
 7    1  0.1254976E-005  0.1437959E+03  0.7546771E-02  0.1218906E+00
         -1   -1    0    0    0  501 -0.00000000000E+00  0.00000000000E+00  0.29587806657E+03  0.29587806657E+03  0.00000000000E+00 0.  1.
          1   -1    0    0  501    0  0.00000000000E+00 -0.00000000000E+00 -0.57109645947E+02  0.57109645947E+02  0.00000000000E+00 0. -1.
         23    2    1    2    0    0  0.12242643310E+02  0.70017192964E+02  0.12398689294E+03  0.16899838883E+03  0.90196541949E+02 0.  0.
          5    1    1    2  502    0 -0.24972121961E+02 -0.32262774731E+02  0.13353224378E+03  0.13970484472E+03  0.47000000000E+01 0. -1.
         -5    1    1    2    0  502  0.12729478651E+02 -0.37754418233E+02 -0.18750716105E+02  0.44284478966E+02  0.47000000000E+01 0. -1.
        -11    1    3    3    0    0 -0.29123466873E+02  0.65636907651E+02  0.90934705020E+02  0.11586846226E+03  0.00000000000E+00 0. -1.
         11    1    3    3    0    0  0.41366110183E+02  0.43802853127E+01  0.33052187925E+02  0.53129926574E+02  0.00000000000E+00 0.  1.
<mgrwt>
<rscale>  0 0.13593495E+03</rscale>
<asrwt>0</asrwt>
<pdfrwt beam="2">  1        1 0.87860995E-02 0.14379594E+03</pdfrwt>
<pdfrwt beam="1">  1       -1 0.45519702E-01 0.14379594E+03</pdfrwt>
<totfact> 0.36019231E+03</totfact>
</mgrwt>
</event>
<event>
 7    1  0.1254976E-005  0.1361663E+03  0.7546771E-02  0.1235962E+00
         -2   -1    0    0    0  501 -0.00000000000E+00  0.00000000000E+00  0.66641816374E+02  0.66641816374E+02  0.00000000000E+00 0.  1.
          2   -1    0    0  501    0  0.00000000000E+00 -0.00000000000E+00 -0.32376150522E+03  0.32376150522E+03  0.00000000000E+00 0. -1.
         23    2    1    2    0    0  0.28037755846E+02 -0.21018207285E+01 -0.23368045424E+03  0.25223434270E+03  0.90692202183E+02 0.  0.
          5    1    1    2  502    0 -0.76677391378E+02  0.25192681199E+02 -0.23243117204E+02  0.84121495659E+02  0.47000000000E+01 0. -1.
         -5    1    1    2    0  502  0.48639635532E+02 -0.23090860471E+02 -0.19611739522E+00  0.54047483234E+02  0.47000000000E+01 0.  1.
        -11    1    3    3    0    0  0.58228077589E+02 -0.10871259712E+02 -0.11371282247E+03  0.12821583094E+03  0.00000000000E+00 0.  1.
         11    1    3    3    0    0 -0.30190321743E+02  0.87694389836E+01 -0.11996763177E+03  0.12401851176E+03  0.00000000000E+00 0. -1.
<mgrwt>
<rscale>  0 0.12443045E+03</rscale>
<asrwt>0</asrwt>
<pdfrwt beam="2">  1        2 0.49809462E-01 0.13616633E+03</pdfrwt>
<pdfrwt beam="1">  1       -2 0.10252587E-01 0.13616633E+03</pdfrwt>
<totfact> 0.61326238E+03</totfact>
</mgrwt>
</event>
<event>
 7    1  0.1254976E-005  0.1299132E+03  0.7546771E-02  0.1246217E+00
         -4   -1    0    0    0  501 -0.00000000000E+00  0.00000000000E+00  0.16662872976E+03  0.16662872976E+03  0.00000000000E+00 0.  1.
          4   -1    0    0  501    0  0.00000000000E+00 -0.00000000000E+00 -0.11886650897E+03  0.11886650897E+03  0.00000000000E+00 0. -1.
         23    2    1    2    0    0  0.32819856998E+02 -0.13191527964E+02 -0.67713606954E+02  0.11167891861E+03  0.81460965328E+02 0.  0.
          5    1    1    2  502    0 -0.29237625684E+02 -0.38005149133E+02  0.11228004416E+03  0.12218072038E+03  0.47000000000E+01 0. -1.
         -5    1    1    2    0  502 -0.35822313140E+01  0.51196677097E+02  0.31957835757E+01  0.51635599731E+02  0.47000000000E+01 0. -1.
        -11    1    3    3    0    0  0.54980146941E+02  0.40442157375E+01 -0.62117276183E+02  0.83052563109E+02  0.00000000000E+00 0. -1.
         11    1    3    3    0    0 -0.22160289942E+02 -0.17235743701E+02 -0.55963307711E+01  0.28626355503E+02  0.00000000000E+00 0.  1.
<mgrwt>
<rscale>  0 0.11812840E+03</rscale>
<asrwt>0</asrwt>
<pdfrwt beam="2">  1        4 0.18287155E-01 0.12991323E+03</pdfrwt>
<pdfrwt beam="1">  1       -4 0.25635189E-01 0.12991323E+03</pdfrwt>
<totfact> 0.62233129E+02</totfact>
</mgrwt>
</event>
<event>
 7    1  0.1254976E-005  0.1401910E+03  0.7546771E-02  0.1228514E+00
          1   -1    0    0  501    0  0.00000000000E+00  0.00000000000E+00  0.15649408062E+03  0.15649408062E+03  0.00000000000E+00 0. -1.
         -1   -1    0    0    0  501 -0.00000000000E+00 -0.00000000000E+00 -0.93452080801E+02  0.93452080801E+02  0.00000000000E+00 0.  1.
         23    2    1    2    0    0 -0.62366287828E+02  0.11766648864E+02  0.32216344790E+02  0.10640613032E+03  0.79097179558E+02 0.  0.
          5    1    1    2  502    0 -0.21582858766E+02 -0.41313176630E+02 -0.57630192693E+01  0.47200643501E+02  0.47000000000E+01 0. -1.
         -5    1    1    2    0  502  0.83949146595E+02  0.29546527766E+02  0.36588674297E+02  0.96339387603E+02  0.47000000000E+01 0. -1.
        -11    1    3    3    0    0 -0.47632527388E+02  0.27324729811E+02  0.53169784795E+02  0.76436408470E+02  0.00000000000E+00 0. -1.
         11    1    3    3    0    0 -0.14733760440E+02 -0.15558080947E+02 -0.20953440005E+02  0.29969721846E+02  0.00000000000E+00 0.  1.
<mgrwt>
<rscale>  0 0.12928923E+03</rscale>
<asrwt>0</asrwt>
<pdfrwt beam="1">  1        1 0.24076012E-01 0.14019101E+03</pdfrwt>
<pdfrwt beam="2">  1       -1 0.14377243E-01 0.14019101E+03</pdfrwt>
<totfact> 0.65746327E+03</totfact>
</mgrwt>
</event>
<event>
 7    1  0.1254976E-005  0.1571790E+03  0.7546771E-02  0.1201522E+00
         -1   -1    0    0    0  501 -0.00000000000E+00  0.00000000000E+00  0.20758741359E+03  0.20758741359E+03  0.00000000000E+00 0.  1.
          1   -1    0    0  501    0  0.00000000000E+00 -0.00000000000E+00 -0.12430509367E+03  0.12430509367E+03  0.00000000000E+00 0. -1.
         23    2    1    2    0    0 -0.89389363249E+02  0.33007414392E+02 -0.38419555548E+02  0.13310474261E+03  0.84621880085E+02 0.  0.
          5    1    1    2  502    0  0.62408011034E+02 -0.76272000043E+02  0.49804662953E+02  0.11052046093E+03  0.47000000000E+01 0. -1.
         -5    1    1    2    0  502  0.26981352214E+02  0.43264585651E+02  0.71897212515E+02  0.88267303722E+02  0.47000000000E+01 0. -1.
        -11    1    3    3    0    0 -0.18281515365E+02  0.44681612793E+02 -0.37347733060E+02  0.61036984612E+02  0.00000000000E+00 0.  1.
         11    1    3    3    0    0 -0.71107847884E+02 -0.11674198401E+02 -0.10718224875E+01  0.72067757995E+02  0.00000000000E+00 0. -1.
<mgrwt>
<rscale>  0 0.14914950E+03</rscale>
<asrwt>0</asrwt>
<pdfrwt beam="2">  1        1 0.19123861E-01 0.15717897E+03</pdfrwt>
<pdfrwt beam="1">  1       -1 0.31936525E-01 0.15717897E+03</pdfrwt>
<totfact> 0.24249157E+03</totfact>
</mgrwt>
</event>
<event>
 7    1  0.1254976E-005  0.1461024E+03  0.7546771E-02  0.1217034E+00
          2   -1    0    0  501    0  0.00000000000E+00  0.00000000000E+00  0.24071391943E+03  0.24071391943E+03  0.00000000000E+00 0. -1.
         -2   -1    0    0    0  501 -0.00000000000E+00 -0.00000000000E+00 -0.70499868633E+02  0.70499868633E+02  0.00000000000E+00 0.  1.
         23    2    1    2    0    0 -0.29086312262E+02  0.69855977073E+02  0.64587711504E+02  0.13092837240E+03  0.85116362285E+02 0.  0.
          5    1    1    2  502    0  0.89605581835E+01  0.10514783301E+02 -0.22984471611E+02  0.27225506535E+02  0.47000000000E+01 0. -1.
         -5    1    1    2    0  502  0.20125754079E+02 -0.80370760374E+02  0.12861081091E+03  0.15305990913E+03  0.47000000000E+01 0. -1.
        -11    1    3    3    0    0  0.76260032995E+01  0.23832844101E+02 -0.17048219989E+02  0.30278741537E+02  0.00000000000E+00 0.  1.
         11    1    3    3    0    0 -0.36712315562E+02  0.46023132972E+02  0.81635931493E+02  0.10064963086E+03  0.00000000000E+00 0. -1.
<mgrwt>
<rscale>  0 0.13728190E+03</rscale>
<asrwt>0</asrwt>
<pdfrwt beam="1">  1        2 0.37032910E-01 0.14610239E+03</pdfrwt>
<pdfrwt beam="2">  1       -2 0.10846134E-01 0.14610239E+03</pdfrwt>
<totfact> 0.77234477E+03</totfact>
</mgrwt>
</event>
<event>
 7    1  0.1254976E-005  0.1733597E+03  0.7546771E-02  0.1180608E+00
         -4   -1    0    0    0  501 -0.00000000000E+00  0.00000000000E+00  0.32509340851E+03  0.32509340851E+03  0.00000000000E+00 0. -1.
          4   -1    0    0  501    0  0.00000000000E+00 -0.00000000000E+00 -0.44580764012E+03  0.44580764012E+03  0.00000000000E+00 0.  1.
         23    2    1    2    0    0 -0.11103278138E+03 -0.45762463971E+02 -0.40824356001E+03  0.43515308304E+03  0.90955592134E+02 0.  0.
          5    1    1    2  502    0  0.12315982880E+03  0.55445761025E+02  0.17033203335E+03  0.21743428301E+03  0.47000000000E+01 0.  1.
         -5    1    1    2    0  502 -0.12127047412E+02 -0.96832970541E+01  0.11719729504E+03  0.11831368258E+03  0.47000000000E+01 0.  1.
        -11    1    3    3    0    0 -0.48212888360E+02  0.23506463318E+01 -0.28242936109E+03  0.28652461002E+03  0.00000000000E+00 0.  1.
         11    1    3    3    0    0 -0.62819893024E+02 -0.48113110302E+02 -0.12581419892E+03  0.14862847302E+03  0.00000000000E+00 0. -1.
<mgrwt>
<rscale>  0 0.16737991E+03</rscale>
<asrwt>0</asrwt>
<pdfrwt beam="2">  1        4 0.68585791E-01 0.17335969E+03</pdfrwt>
<pdfrwt beam="1">  1       -4 0.50014371E-01 0.17335969E+03</pdfrwt>
<totfact> 0.13510118E+01</totfact>
</mgrwt>
</event>
<event>
 7    1  0.1254976E-005  0.1634303E+03  0.7546771E-02  0.1191959E+00
         -1   -1    0    0    0  501 -0.00000000000E+00  0.00000000000E+00  0.47102107123E+02  0.47102107123E+02  0.00000000000E+00 0.  1.
          1   -1    0    0  501    0  0.00000000000E+00 -0.00000000000E+00 -0.50825490994E+03  0.50825490994E+03  0.00000000000E+00 0. -1.
         23    2    1    2    0    0  0.39712502734E+02  0.97504298535E+02 -0.15758669733E+03  0.21059356276E+03  0.91825434357E+02 0.  0.
          5    1    1    2  502    0 -0.80203624381E+01 -0.14065279875E+02  0.93874093933E+01  0.19296936718E+02  0.47000000000E+01 0. -1.
         -5    1    1    2    0  502 -0.31692140296E+02 -0.83439018660E+02 -0.31295351488E+03  0.32546651758E+03  0.47000000000E+01 0. -1.
        -11    1    3    3    0    0 -0.61178889775E+01  0.91467552332E+01  0.10523344805E+02  0.15226046195E+02  0.00000000000E+00 0.  1.
         11    1    3    3    0    0  0.45830391712E+02  0.88357543302E+02 -0.16811004213E+03  0.19536751656E+03  0.00000000000E+00 0. -1.
<mgrwt>
<rscale>  0 0.15714425E+03</rscale>
<asrwt>0</asrwt>
<pdfrwt beam="2">  1        1 0.78193061E-01 0.16343029E+03</pdfrwt>
<pdfrwt beam="1">  1       -1 0.72464782E-02 0.16343029E+03</pdfrwt>
<totfact> 0.43189949E+03</totfact>
</mgrwt>
</event>
<event>
 7    1  0.1254976E-005  0.1733488E+03  0.7546771E-02  0.1180592E+00
          1   -1    0    0  501    0  0.00000000000E+00  0.00000000000E+00  0.10103313309E+04  0.10103313309E+04  0.00000000000E+00 0. -1.
         -1   -1    0    0    0  501 -0.00000000000E+00 -0.00000000000E+00 -0.26334045362E+02  0.26334045362E+02  0.00000000000E+00 0.  1.
         23    2    1    2    0    0 -0.11374866290E+03 -0.38558216580E+02  0.39888555400E+03  0.42641496706E+03  0.91074390295E+02 0.  0.
          5    1    1    2  502    0  0.95658948375E+02  0.27526815276E+02  0.19003554893E+03  0.21457856328E+03  0.47000000000E+01 0.  1.
         -5    1    1    2    0  502  0.18089714523E+02  0.11031401304E+02  0.39507618263E+03  0.39567184593E+03  0.47000000000E+01 0.  1.
        -11    1    3    3    0    0 -0.73441226312E+02  0.21067568849E+02  0.24275349177E+03  0.25449305284E+03  0.00000000000E+00 0. -1.
         11    1    3    3    0    0 -0.40307436587E+02 -0.59625785429E+02  0.15613206223E+03  0.17192191422E+03  0.00000000000E+00 0.  1.
<mgrwt>
<rscale>  0 0.16739476E+03</rscale>
<asrwt>0</asrwt>
<pdfrwt beam="1">  1        1 0.15543556E+00 0.17334885E+03</pdfrwt>
<pdfrwt beam="2">  1       -1 0.40513924E-02 0.17334885E+03</pdfrwt>
<totfact> 0.37458149E+03</totfact>
</mgrwt>
</event>
<event>
 7    1  0.1254976E-005  0.1353594E+03  0.7546771E-02  0.1232401E+00
          2   -1    0    0  501    0  0.00000000000E+00  0.00000000000E+00  0.21748692045E+03  0.21748692045E+03  0.00000000000E+00 0. -1.
         -2   -1    0    0    0  501 -0.00000000000E+00 -0.00000000000E+00 -0.74658683112E+02  0.74658683112E+02  0.00000000000E+00 0.  1.
         23    2    1    2    0    0  0.77095995201E+00  0.51905533284E+02  0.11295659643E+03  0.15352932414E+03  0.90095959557E+02 0.  0.
          5    1    1    2  502    0  0.16903795066E+02  0.32682859901E+02  0.36214774750E+02  0.51841176001E+02  0.47000000000E+01 0. -1.
         -5    1    1    2    0  502 -0.17674755018E+02 -0.84588393185E+02 -0.63431338455E+01  0.86775103420E+02  0.47000000000E+01 0. -1.
        -11    1    3    3    0    0 -0.43674590373E+02  0.19929146424E+02  0.41150617478E+02  0.63229850864E+02  0.00000000000E+00 0.  1.
         11    1    3    3    0    0  0.44445550325E+02  0.31976386860E+02  0.71805978950E+02  0.90299473273E+02  0.00000000000E+00 0. -1.
<mgrwt>
<rscale>  0 0.12672281E+03</rscale>
<asrwt>0</asrwt>
<pdfrwt beam="1">  1        2 0.33459526E-01 0.13535937E+03</pdfrwt>
<pdfrwt beam="2">  1       -2 0.11485951E-01 0.13535937E+03</pdfrwt>
<totfact> 0.78207848E+03</totfact>
</mgrwt>
</event>
<event>
 7    1  0.1254976E-005  0.1937450E+03  0.7546771E-02  0.1159648E+00
         -1   -1    0    0    0  501 -0.00000000000E+00  0.00000000000E+00  0.12567740720E+03  0.12567740720E+03  0.00000000000E+00 0.  1.
          1   -1    0    0  501    0  0.00000000000E+00 -0.00000000000E+00 -0.29712398712E+03  0.29712398712E+03  0.00000000000E+00 0. -1.
         23    2    1    2    0    0 -0.10633126347E+03  0.10297815206E+03 -0.14604343858E+03  0.22739812931E+03  0.92034699258E+02 0.  0.
          5    1    1    2  502    0  0.13078724434E+03 -0.66863427557E+02 -0.33650069131E+02  0.15076617120E+03  0.47000000000E+01 0. -1.
         -5    1    1    2    0  502 -0.24455980866E+02 -0.36114724501E+02  0.82469277892E+01  0.44637093810E+02  0.47000000000E+01 0. -1.
        -11    1    3    3    0    0 -0.11336549062E+03  0.57393826409E+02 -0.11807219110E+03  0.17345555074E+03  0.00000000000E+00 0. -1.
         11    1    3    3    0    0  0.70342271476E+01  0.45584325649E+02 -0.27971247484E+02  0.53942578565E+02  0.00000000000E+00 0.  1.
<mgrwt>
<rscale>  0 0.18868983E+03</rscale>
<asrwt>0</asrwt>
<pdfrwt beam="2">  1        1 0.45711383E-01 0.19374498E+03</pdfrwt>
<pdfrwt beam="1">  1       -1 0.19334986E-01 0.19374498E+03</pdfrwt>
<totfact> 0.18714780E+03</totfact>
</mgrwt>
</event>
<event>
 7    1  0.1254976E-005  0.1250852E+03  0.7546771E-02  0.1250788E+00
         -2   -1    0    0    0  501 -0.00000000000E+00  0.00000000000E+00  0.62419682772E+02  0.62419682772E+02  0.00000000000E+00 0. -1.
          2   -1    0    0  501    0  0.00000000000E+00 -0.00000000000E+00 -0.20590545275E+03  0.20590545275E+03  0.00000000000E+00 0.  1.
         23    2    1    2    0    0  0.33854850411E+01 -0.28569845027E+01 -0.10196800599E+03  0.13652968011E+03  0.90682167138E+02 0.  0.
          5    1    1    2  502    0 -0.56064619480E+02 -0.81379097083E+01  0.93324809434E+01  0.57607745420E+02  0.47000000000E+01 0. -1.
         -5    1    1    2    0  502  0.52679134438E+02  0.10994894211E+02 -0.50850244940E+02  0.74187709995E+02  0.47000000000E+01 0. -1.
        -11    1    3    3    0    0  0.41624252558E+01 -0.39927749635E+02 -0.16570091814E+02  0.43429470613E+02  0.00000000000E+00 0. -1.
         11    1    3    3    0    0 -0.77694021465E+00  0.37070765133E+02 -0.85397914172E+02  0.93100209498E+02  0.00000000000E+00 0.  1.
<mgrwt>
<rscale>  0 0.11545544E+03</rscale>
<asrwt>0</asrwt>
<pdfrwt beam="2">  1        2 0.31677761E-01 0.12508524E+03</pdfrwt>
<pdfrwt beam="1">  1       -2 0.96030283E-02 0.12508524E+03</pdfrwt>
<totfact> 0.10932407E+04</totfact>
</mgrwt>
</event>
<event>
 7    1  0.1254976E-005  0.1979472E+03  0.7546771E-02  0.1184709E+00
          4   -1    0    0  501    0  0.00000000000E+00  0.00000000000E+00  0.17425253874E+03  0.17425253874E+03  0.00000000000E+00 0. -1.
         -4   -1    0    0    0  501 -0.00000000000E+00 -0.00000000000E+00 -0.20661593906E+03  0.20661593906E+03  0.00000000000E+00 0.  1.
         23    2    1    2    0    0  0.31790135711E+02  0.76882476082E+01  0.10508471974E+03  0.13988073368E+03  0.86337126720E+02 0.  0.
          5    1    1    2  502    0 -0.93791586943E+02 -0.11919509434E+02 -0.52179743498E+01  0.94806401380E+02  0.47000000000E+01 0. -1.
         -5    1    1    2    0  502  0.62001451232E+02  0.42312618254E+01 -0.13223014571E+03  0.14618134275E+03  0.47000000000E+01 0.  1.
        -11    1    3    3    0    0  0.35092072753E+02 -0.21095017348E+02  0.10299302699E+03  0.11083328442E+03  0.00000000000E+00 0.  1.
         11    1    3    3    0    0 -0.33019370426E+01  0.28783264956E+02  0.20916927569E+01  0.29047449258E+02  0.00000000000E+00 0. -1.
<mgrwt>
<rscale>  0 0.16358421E+03</rscale>
<asrwt>0</asrwt>
<pdfrwt beam="1">  1        4 0.26808083E-01 0.19794723E+03</pdfrwt>
<pdfrwt beam="2">  1       -4 0.31787067E-01 0.19794723E+03</pdfrwt>
<totfact> 0.22223839E+02</totfact>
</mgrwt>
</event>
<event>
 7    1  0.1254976E-005  0.1497630E+03  0.7546771E-02  0.1214114E+00
          1   -1    0    0  501    0  0.00000000000E+00  0.00000000000E+00  0.82786089187E+02  0.82786089187E+02  0.00000000000E+00 0. -1.
         -1   -1    0    0    0  501 -0.00000000000E+00 -0.00000000000E+00 -0.21773909748E+03  0.21773909748E+03  0.00000000000E+00 0.  1.
         23    2    1    2    0    0 -0.61266769784E+02  0.55235480830E+02 -0.90320789582E+02  0.14425301831E+03  0.76462493014E+02 0.  0.
          5    1    1    2  502    0  0.54774573582E+02  0.29642577760E+02 -0.62342977481E+01  0.62768565348E+02  0.47000000000E+01 0.  1.
         -5    1    1    2    0  502  0.64921962014E+01 -0.84878058591E+02 -0.38397920960E+02  0.93503603009E+02  0.47000000000E+01 0.  1.
        -11    1    3    3    0    0  0.59029340947E+01  0.16150765947E+02 -0.57283304571E+02  0.59808601841E+02  0.00000000000E+00 0.  1.
         11    1    3    3    0    0 -0.67169703878E+02  0.39084714883E+02 -0.33037485011E+02  0.84444416467E+02  0.00000000000E+00 0. -1.
<mgrwt>
<rscale>  0 0.13941817E+03</rscale>
<asrwt>0</asrwt>
<pdfrwt beam="1">  1        1 0.12736321E-01 0.14976300E+03</pdfrwt>
<pdfrwt beam="2">  1       -1 0.33498323E-01 0.14976300E+03</pdfrwt>
<totfact> 0.37761490E+03</totfact>
</mgrwt>
</event>
<event>
 7    1  0.1254976E-005  0.1660893E+03  0.7546771E-02  0.1188933E+00
          2   -1    0    0  501    0  0.00000000000E+00  0.00000000000E+00  0.79160565943E+03  0.79160565943E+03  0.00000000000E+00 0. -1.
         -2   -1    0    0    0  501 -0.00000000000E+00 -0.00000000000E+00 -0.30034037615E+02  0.30034037615E+02  0.00000000000E+00 0.  1.
         23    2    1    2    0    0  0.65574618574E+02 -0.87526947416E+02  0.35192510691E+03  0.37960359182E+03  0.91030813030E+02 0.  0.
          5    1    1    2  502    0 -0.21827451735E+02  0.57335271379E+02  0.52376909604E+02  0.80803475500E+02  0.47000000000E+01 0.  1.
         -5    1    1    2    0  502 -0.43747166839E+02  0.30191676037E+02  0.35726960530E+03  0.36123262973E+03  0.47000000000E+01 0.  1.
        -11    1    3    3    0    0 -0.15034457608E+02 -0.22766375855E+02  0.15296013581E+03  0.15537421257E+03  0.00000000000E+00 0. -1.
         11    1    3    3    0    0  0.80609076181E+02 -0.64760571561E+02  0.19896497110E+03  0.22422937925E+03  0.00000000000E+00 0.  1.
<mgrwt>
<rscale>  0 0.15979122E+03</rscale>
<asrwt>0</asrwt>
<pdfrwt beam="1">  1        2 0.12178547E+00 0.16608929E+03</pdfrwt>
<pdfrwt beam="2">  1       -2 0.46206218E-02 0.16608929E+03</pdfrwt>
<totfact> 0.77378506E+03</totfact>
</mgrwt>
</event>
<event>
 7    1  0.1254976E-005  0.1446739E+03  0.7546771E-02  0.1213051E+00
         -1   -1    0    0    0  501 -0.00000000000E+00  0.00000000000E+00  0.20082629407E+03  0.20082629407E+03  0.00000000000E+00 0.  1.
          1   -1    0    0  501    0  0.00000000000E+00 -0.00000000000E+00 -0.21866790178E+03  0.21866790178E+03  0.00000000000E+00 0. -1.
         23    2    1    2    0    0  0.14055434710E+02  0.87792716540E+02 -0.16800408720E+03  0.21097725460E+03  0.91547322850E+02 0.  0.
          5    1    1    2  502    0  0.37770034735E+02 -0.32428043393E+02  0.11376214284E+03  0.12426612034E+03  0.47000000000E+01 0. -1.
         -5    1    1    2    0  502 -0.51825469444E+02 -0.55364673147E+02  0.36400336650E+02  0.84250820911E+02  0.47000000000E+01 0.  1.
        -11    1    3    3    0    0  0.13201867256E+02  0.27806829903E+02  0.18527698075E+01  0.30837344961E+02  0.00000000000E+00 0.  1.
         11    1    3    3    0    0  0.85356745383E+00  0.59985886637E+02 -0.16985685700E+03  0.18013990964E+03  0.00000000000E+00 0. -1.
<mgrwt>
<rscale>  0 0.14020697E+03</rscale>
<asrwt>0</asrwt>
<pdfrwt beam="2">  1        1 0.33641216E-01 0.14467392E+03</pdfrwt>
<pdfrwt beam="1">  1       -1 0.30896353E-01 0.14467392E+03</pdfrwt>
<totfact> 0.12563394E+03</totfact>
</mgrwt>
</event>
<event>
 7    1  0.1254976E-005  0.2106091E+03  0.7546771E-02  0.1144873E+00
         -1   -1    0    0    0  501 -0.00000000000E+00  0.00000000000E+00  0.77538483920E+02  0.77538483920E+02  0.00000000000E+00 0.  1.
          1   -1    0    0  501    0  0.00000000000E+00 -0.00000000000E+00 -0.57258214625E+03  0.57258214625E+03  0.00000000000E+00 0. -1.
         23    2    1    2    0    0  0.11057764806E+03  0.12846391879E+03 -0.33239509681E+03  0.38401777226E+03  0.90844671569E+02 0.  0.
          5    1    1    2  502    0 -0.12126311184E+03 -0.12007916789E+03 -0.91852582500E+02  0.19386267244E+03  0.47000000000E+01 0. -1.
         -5    1    1    2    0  502  0.10685463775E+02 -0.83847508961E+01 -0.70795983023E+02  0.72240185464E+02  0.47000000000E+01 0. -1.
        -11    1    3    3    0    0  0.73234605955E+02  0.47362758512E+02 -0.88321572399E+02  0.12412589800E+03  0.00000000000E+00 0.  1.
         11    1    3    3    0    0  0.37343042106E+02  0.81101160278E+02 -0.24407352441E+03  0.25989187426E+03  0.00000000000E+00 0. -1.
<mgrwt>
<rscale>  0 0.20587721E+03</rscale>
<asrwt>0</asrwt>
<pdfrwt beam="2">  1        1 0.88089558E-01 0.21060906E+03</pdfrwt>
<pdfrwt beam="1">  1       -1 0.11928998E-01 0.21060906E+03</pdfrwt>
<totfact> 0.17279198E+03</totfact>
</mgrwt>
</event>
<event>
 7    1  0.1254976E-005  0.1302497E+03  0.7546771E-02  0.1242079E+00
          2   -1    0    0  501    0  0.00000000000E+00  0.00000000000E+00  0.81266385003E+02  0.81266385003E+02  0.00000000000E+00 0. -1.
         -2   -1    0    0    0  501 -0.00000000000E+00 -0.00000000000E+00 -0.16812797686E+03  0.16812797686E+03  0.00000000000E+00 0.  1.
         23    2    1    2    0    0  0.24791329126E+02  0.26931486938E+02 -0.57767222606E+01  0.95967706582E+02  0.88524093884E+02 0.  0.
          5    1    1    2  502    0 -0.40555334596E+02 -0.71596622052E+02 -0.46945507431E+02  0.94851368579E+02  0.47000000000E+01 0.  1.
         -5    1    1    2    0  502  0.15764005470E+02  0.44665135114E+02 -0.34139362165E+02  0.58575286702E+02  0.47000000000E+01 0.  1.
        -11    1    3    3    0    0  0.44267575391E+02 -0.31729999780E+01  0.23005348874E+02  0.49989321227E+02  0.00000000000E+00 0. -1.
         11    1    3    3    0    0 -0.19476246265E+02  0.30104486916E+02 -0.28782071134E+02  0.45978385355E+02  0.00000000000E+00 0.  1.
<mgrwt>
<rscale>  0 0.12061929E+03</rscale>
<asrwt>0</asrwt>
<pdfrwt beam="1">  1        2 0.12502521E-01 0.13024969E+03</pdfrwt>
<pdfrwt beam="2">  1       -2 0.25865843E-01 0.13024969E+03</pdfrwt>
<totfact> 0.61430037E+03</totfact>
</mgrwt>
</event>
<event>
 7    1  0.1254976E-005  0.1602844E+03  0.7546771E-02  0.1195986E+00
          1   -1    0    0  501    0  0.00000000000E+00  0.00000000000E+00  0.26474845779E+02  0.26474845779E+02  0.00000000000E+00 0. -1.
         -1   -1    0    0    0  501 -0.00000000000E+00 -0.00000000000E+00 -0.84964735717E+03  0.84964735717E+03  0.00000000000E+00 0.  1.
         23    2    1    2    0    0 -0.28794533332E+02 -0.96117008909E+02 -0.30608571876E+03  0.33476295114E+03  0.91160088154E+02 0.  0.
          5    1    1    2  502    0  0.44907006260E+02  0.52353397554E+01 -0.61395611783E+02  0.76390831517E+02  0.47000000000E+01 0. -1.
         -5    1    1    2    0  502 -0.16112472928E+02  0.90881669153E+02 -0.45569118085E+03  0.46496842030E+03  0.47000000000E+01 0. -1.
        -11    1    3    3    0    0 -0.39974415438E+02 -0.21195372742E+02 -0.19585239185E+03  0.20101083829E+03  0.00000000000E+00 0.  1.
         11    1    3    3    0    0  0.11179882106E+02 -0.74921636167E+02 -0.11023332691E+03  0.13375211285E+03  0.00000000000E+00 0. -1.
<mgrwt>
<rscale>  0 0.15371103E+03</rscale>
<asrwt>0</asrwt>
<pdfrwt beam="1">  1        1 0.40730535E-02 0.16028440E+03</pdfrwt>
<pdfrwt beam="2">  1       -1 0.13071497E+00 0.16028440E+03</pdfrwt>
<totfact> 0.11730863E+03</totfact>
</mgrwt>
</event>
<event>
 7    1  0.1254976E-005  0.1697164E+03  0.7546771E-02  0.1184436E+00
         -2   -1    0    0    0  501 -0.00000000000E+00  0.00000000000E+00  0.10090801170E+03  0.10090801170E+03  0.00000000000E+00 0.  1.
          2   -1    0    0  501    0  0.00000000000E+00 -0.00000000000E+00 -0.25068403981E+03  0.25068403981E+03  0.00000000000E+00 0. -1.
         23    2    1    2    0    0  0.10438263046E+03  0.47755455050E+02 -0.55760578314E+02  0.15757511109E+03  0.92435688517E+02 0.  0.
          5    1    1    2  502    0 -0.33942024162E+02 -0.83267130246E+02 -0.41590989449E+02  0.99183548974E+02  0.47000000000E+01 0. -1.
         -5    1    1    2    0  502 -0.70440606294E+02  0.35511675196E+02 -0.52424460347E+02  0.94833391445E+02  0.47000000000E+01 0. -1.
        -11    1    3    3    0    0  0.51890975327E+02 -0.25294074240E+01  0.17061078352E+02  0.54682278819E+02  0.00000000000E+00 0.  1.
         11    1    3    3    0    0  0.52491655129E+02  0.50284862474E+02 -0.72821656666E+02  0.10289283227E+03  0.00000000000E+00 0. -1.
<mgrwt>
<rscale>  0 0.16383327E+03</rscale>
<asrwt>0</asrwt>
<pdfrwt beam="2">  1        2 0.38566775E-01 0.16971644E+03</pdfrwt>
<pdfrwt beam="1">  1       -2 0.15524310E-01 0.16971644E+03</pdfrwt>
<totfact> 0.41801726E+03</totfact>
</mgrwt>
</event>
<event>
 7    1  0.1254976E-005  0.1466526E+03  0.7546771E-02  0.1214272E+00
         -1   -1    0    0    0  501 -0.00000000000E+00  0.00000000000E+00  0.90995030324E+02  0.90995030324E+02  0.00000000000E+00 0.  1.
          1   -1    0    0  501    0  0.00000000000E+00 -0.00000000000E+00 -0.23748422212E+03  0.23748422212E+03  0.00000000000E+00 0. -1.
         23    2    1    2    0    0  0.76568478335E+02  0.50729935011E+01 -0.13670869675E+03  0.18150084943E+03  0.91459408691E+02 0.  0.
          5    1    1    2  502    0 -0.77557824016E+02 -0.93797300525E+01 -0.58576813358E+02  0.97757498255E+02  0.47000000000E+01 0.  1.
         -5    1    1    2    0  502  0.98934568043E+00  0.43067365514E+01  0.48796318313E+02  0.49220904761E+02  0.47000000000E+01 0.  1.
        -11    1    3    3    0    0  0.29916141313E+02 -0.38927781270E+02 -0.31639604597E+02  0.58407296160E+02  0.00000000000E+00 0.  1.
         11    1    3    3    0    0  0.46652337022E+02  0.44000774771E+02 -0.10506909215E+03  0.12309355327E+03  0.00000000000E+00 0. -1.
<mgrwt>
<rscale>  0 0.13930182E+03</rscale>
<asrwt>0</asrwt>
<pdfrwt beam="2">  1        1 0.36536034E-01 0.14665263E+03</pdfrwt>
<pdfrwt beam="1">  1       -1 0.13999236E-01 0.14665263E+03</pdfrwt>
<totfact> 0.40844921E+03</totfact>
</mgrwt>
</event>
<event>
 7    1  0.1254976E-005  0.2165141E+03  0.7546771E-02  0.1139979E+00
         -2   -1    0    0    0  501 -0.00000000000E+00  0.00000000000E+00  0.10112788774E+03  0.10112788774E+03  0.00000000000E+00 0. -1.
          2   -1    0    0  501    0  0.00000000000E+00 -0.00000000000E+00 -0.43080646847E+03  0.43080646847E+03  0.00000000000E+00 0.  1.
         23    2    1    2    0    0 -0.57328022340E+02 -0.16723293882E+03 -0.13291112315E+03  0.23936677369E+03  0.91529928004E+02 0.  0.
          5    1    1    2  502    0 -0.20315970976E+02  0.99306991913E+02 -0.50035410840E+02  0.11313818832E+03  0.47000000000E+01 0.  1.
         -5    1    1    2    0  502  0.77643993316E+02  0.67925946906E+02 -0.14673204675E+03  0.17942939420E+03  0.47000000000E+01 0.  1.
        -11    1    3    3    0    0 -0.63874156153E+02 -0.12261497113E+03 -0.53895352209E+02  0.14838816651E+03  0.00000000000E+00 0. -1.
         11    1    3    3    0    0  0.65461338134E+01 -0.44617967688E+02 -0.79015770936E+02  0.90978607184E+02  0.00000000000E+00 0.  1.
<mgrwt>
<rscale>  0 0.21201625E+03</rscale>
<asrwt>0</asrwt>
<pdfrwt beam="2">  1        2 0.66277920E-01 0.21651411E+03</pdfrwt>
<pdfrwt beam="1">  1       -2 0.15558136E-01 0.21651411E+03</pdfrwt>
<totfact> 0.23485265E+03</totfact>
</mgrwt>
</event>
<event>
 7    1  0.1254976E-005  0.1362770E+03  0.7546771E-02  0.1230248E+00
          2   -1    0    0  501    0  0.00000000000E+00  0.00000000000E+00  0.31438578324E+02  0.31438578324E+02  0.00000000000E+00 0. -1.
         -2   -1    0    0    0  501 -0.00000000000E+00 -0.00000000000E+00 -0.50560828507E+03  0.50560828507E+03  0.00000000000E+00 0.  1.
         23    2    1    2    0    0  0.52080937579E+02  0.15297703605E+02 -0.13815706337E+03  0.17445078841E+03  0.91647474721E+02 0.  0.
          5    1    1    2  502    0 -0.11706053782E+02  0.16091637717E+02  0.21468802583E+01  0.20558978438E+02  0.47000000000E+01 0. -1.
         -5    1    1    2    0  502 -0.40374883797E+02 -0.31389341322E+02 -0.33815952363E+03  0.34203709654E+03  0.47000000000E+01 0. -1.
        -11    1    3    3    0    0  0.46218104406E+02  0.28672129401E+02 -0.14743659685E+03  0.15714882841E+03  0.00000000000E+00 0.  1.
         11    1    3    3    0    0  0.58628331730E+01 -0.13374425796E+02  0.92795334817E+01  0.17301959999E+02  0.00000000000E+00 0. -1.
<mgrwt>
<rscale>  0 0.12813590E+03</rscale>
<asrwt>0</asrwt>
<pdfrwt beam="1">  1        2 0.48367048E-02 0.13627699E+03</pdfrwt>
<pdfrwt beam="2">  1       -2 0.77785882E-01 0.13627699E+03</pdfrwt>
<totfact> 0.23880304E+03</totfact>
</mgrwt>
</event>
<event>
 7    1  0.1254976E-005  0.1850284E+03  0.7546771E-02  0.1168420E+00
         -2   -1    0    0    0  501 -0.00000000000E+00  0.00000000000E+00  0.99796488383E+02  0.99796488383E+02  0.00000000000E+00 0.  1.
          2   -1    0    0  501    0  0.00000000000E+00 -0.00000000000E+00 -0.30432632797E+03  0.30432632797E+03  0.00000000000E+00 0. -1.
         23    2    1    2    0    0  0.12599248180E+03 -0.52274836556E+02 -0.90529518501E+02  0.18679453604E+03  0.89943543227E+02 0.  0.
          5    1    1    2  502    0 -0.14381997758E+03  0.23881002277E+02 -0.11108633424E+03  0.18334871659E+03  0.47000000000E+01 0. -1.
         -5    1    1    2    0  502  0.17827495780E+02  0.28393834279E+02 -0.29139868430E+01  0.33979563713E+02  0.47000000000E+01 0. -1.
        -11    1    3    3    0    0  0.97786466967E+02  0.51705845615E+00 -0.31518505659E+02  0.10274179612E+03  0.00000000000E+00 0. -1.
         11    1    3    3    0    0  0.28206014835E+02 -0.52791895012E+02 -0.59011012842E+02  0.84052739922E+02  0.00000000000E+00 0.  1.
<mgrwt>
<rscale>  0 0.17936421E+03</rscale>
<asrwt>0</asrwt>
<pdfrwt beam="2">  1        2 0.46819435E-01 0.18502840E+03</pdfrwt>
<pdfrwt beam="1">  1       -2 0.15353306E-01 0.18502840E+03</pdfrwt>
<totfact> 0.34734605E+03</totfact>
</mgrwt>
</event>
<event>
 7    1  0.1254976E-005  0.1323864E+03  0.7546771E-02  0.1237031E+00
          2   -1    0    0  501    0  0.00000000000E+00  0.00000000000E+00  0.17538566360E+03  0.17538566360E+03  0.00000000000E+00 0. -1.
         -2   -1    0    0    0  501 -0.00000000000E+00 -0.00000000000E+00 -0.87891394431E+02  0.87891394431E+02  0.00000000000E+00 0.  1.
         23    2    1    2    0    0  0.36577147500E+02  0.23748829206E+02  0.83031744883E+02  0.13081550757E+03  0.91195020444E+02 0.  0.
          5    1    1    2  502    0 -0.24482605760E+02  0.27752189367E+02  0.50081491706E+02  0.62448601353E+02  0.47000000000E+01 0.  1.
         -5    1    1    2    0  502 -0.12094541741E+02 -0.51501018573E+02 -0.45618967424E+02  0.70012949108E+02  0.47000000000E+01 0.  1.
        -11    1    3    3    0    0  0.37853558141E+02  0.67207851264E+01  0.99759647258E+02  0.10691140275E+03  0.00000000000E+00 0. -1.
         11    1    3    3    0    0 -0.12764106403E+01  0.17028044080E+02 -0.16727902375E+02  0.23904104818E+02  0.00000000000E+00 0.  1.
<mgrwt>
<rscale>  0 0.12375291E+03</rscale>
<asrwt>0</asrwt>
<pdfrwt beam="1">  1        2 0.26982410E-01 0.13238636E+03</pdfrwt>
<pdfrwt beam="2">  1       -2 0.13521753E-01 0.13238636E+03</pdfrwt>
<totfact> 0.75893992E+03</totfact>
</mgrwt>
</event>
<event>
 7    1  0.1254976E-005  0.1271157E+03  0.7546771E-02  0.1239002E+00
         -1   -1    0    0    0  501 -0.00000000000E+00  0.00000000000E+00  0.19538452116E+03  0.19538452116E+03  0.00000000000E+00 0.  1.
          1   -1    0    0  501    0  0.00000000000E+00 -0.00000000000E+00 -0.79233425334E+02  0.79233425334E+02  0.00000000000E+00 0. -1.
         23    2    1    2    0    0 -0.57229915185E+02  0.18389477389E+02  0.12126082039E+02  0.11036324553E+03  0.91758204140E+02 0.  0.
          5    1    1    2  502    0  0.13851960378E+02 -0.58033195522E+02  0.23140031830E+02  0.64166031994E+02  0.47000000000E+01 0. -1.
         -5    1    1    2    0  502  0.43377954806E+02  0.39643718133E+02  0.80884981962E+02  0.10008866898E+03  0.47000000000E+01 0.  1.
        -11    1    3    3    0    0  0.13814352207E+02 -0.50900141838E+01  0.30014727260E+02  0.33430950088E+02  0.00000000000E+00 0.  1.
         11    1    3    3    0    0 -0.71044267392E+02  0.23479491572E+02 -0.17888645221E+02  0.76932295439E+02  0.00000000000E+00 0. -1.
<mgrwt>
<rscale>  0 0.12251695E+03</rscale>
<asrwt>0</asrwt>
<pdfrwt beam="2">  1        1 0.12189758E-01 0.12711571E+03</pdfrwt>
<pdfrwt beam="1">  1       -1 0.30059157E-01 0.12711571E+03</pdfrwt>
<totfact> 0.47575153E+03</totfact>
</mgrwt>
</event>
<event>
 7    1  0.1254976E-005  0.1278367E+03  0.7546771E-02  0.1244209E+00
          1   -1    0    0  501    0  0.00000000000E+00  0.00000000000E+00  0.10899878993E+03  0.10899878993E+03  0.00000000000E+00 0. -1.
         -1   -1    0    0    0  501 -0.00000000000E+00 -0.00000000000E+00 -0.11671120358E+03  0.11671120358E+03  0.00000000000E+00 0.  1.
         23    2    1    2    0    0 -0.22795059217E+02 -0.14078450381E+02  0.53928952444E+01  0.97203322723E+02  0.93282287383E+02 0.  0.
          5    1    1    2  502    0 -0.47317910724E+02  0.27886176917E+02 -0.14048161235E+02  0.56886416414E+02  0.47000000000E+01 0. -1.
         -5    1    1    2    0  502  0.70112969941E+02 -0.13807726536E+02  0.94285233119E+00  0.71620254374E+02  0.47000000000E+01 0. -1.
        -11    1    3    3    0    0 -0.24060509365E+02 -0.34028666324E+02 -0.33502101700E+02  0.53471946486E+02  0.00000000000E+00 0.  1.
         11    1    3    3    0    0  0.12654501477E+01  0.19950215943E+02  0.38894996944E+02  0.43731376237E+02  0.00000000000E+00 0. -1.
<mgrwt>
<rscale>  0 0.11932859E+03</rscale>
<asrwt>0</asrwt>
<pdfrwt beam="1">  1        1 0.16769045E-01 0.12783667E+03</pdfrwt>
<pdfrwt beam="2">  1       -1 0.17955570E-01 0.12783667E+03</pdfrwt>
<totfact> 0.72873771E+03</totfact>
</mgrwt>
</event>
<event>
 7    1  0.1254976E-005  0.1295823E+03  0.7546771E-02  0.1241958E+00
         -1   -1    0    0    0  501 -0.00000000000E+00  0.00000000000E+00  0.49699281521E+02  0.49699281521E+02  0.00000000000E+00 0.  1.
          1   -1    0    0  501    0  0.00000000000E+00 -0.00000000000E+00 -0.25965960047E+03  0.25965960047E+03  0.00000000000E+00 0. -1.
         23    2    1    2    0    0  0.26651913186E+02 -0.21332214399E+02 -0.94655773181E+02  0.13590366092E+03  0.91349339396E+02 0.  0.
          5    1    1    2  502    0 -0.62743589895E+02  0.60303104621E+01 -0.14015216477E+02  0.64742868411E+02  0.47000000000E+01 0.  1.
         -5    1    1    2    0  502  0.36091676709E+02  0.15301903937E+02 -0.10128932930E+03  0.10871235266E+03  0.47000000000E+01 0.  1.
        -11    1    3    3    0    0 -0.27381868014E+02 -0.13767208538E+02 -0.51478251118E+01  0.31077368458E+02  0.00000000000E+00 0.  1.
         11    1    3    3    0    0  0.54033781200E+02 -0.75650058611E+01 -0.89507948069E+02  0.10482629247E+03  0.00000000000E+00 0. -1.
<mgrwt>
<rscale>  0 0.12069308E+03</rscale>
<asrwt>0</asrwt>
<pdfrwt beam="2">  1        1 0.39947630E-01 0.12958231E+03</pdfrwt>
<pdfrwt beam="1">  1       -1 0.76460435E-02 0.12958231E+03</pdfrwt>
<totfact> 0.91587162E+03</totfact>
</mgrwt>
</event>
<event>
 7    1  0.1254976E-005  0.1677625E+03  0.7546771E-02  0.1186248E+00
          2   -1    0    0  501    0  0.00000000000E+00  0.00000000000E+00  0.51084714802E+03  0.51084714802E+03  0.00000000000E+00 0. -1.
         -2   -1    0    0    0  501 -0.00000000000E+00 -0.00000000000E+00 -0.48402872024E+02  0.48402872024E+02  0.00000000000E+00 0.  1.
         23    2    1    2    0    0 -0.10696194727E+03 -0.32821688725E+02  0.22501515808E+03  0.26853218978E+03  0.94655132811E+02 0.  0.
          5    1    1    2  502    0 -0.22307960037E+01  0.52742623476E+02  0.10686804453E+03  0.11928801165E+03  0.47000000000E+01 0.  1.
         -5    1    1    2    0  502  0.10919274328E+03 -0.19920934751E+02  0.13056107338E+03  0.17142981861E+03  0.47000000000E+01 0.  1.
        -11    1    3    3    0    0 -0.42434386589E+02 -0.41983676129E+02  0.17915918553E+03  0.18884205037E+03  0.00000000000E+00 0. -1.
         11    1    3    3    0    0 -0.64527560684E+02  0.91619874044E+01  0.45855972541E+02  0.79690139407E+02  0.00000000000E+00 0.  1.
<mgrwt>
<rscale>  0 0.16218839E+03</rscale>
<asrwt>0</asrwt>
<pdfrwt beam="1">  1        2 0.78591865E-01 0.16776254E+03</pdfrwt>
<pdfrwt beam="2">  1       -2 0.74465960E-02 0.16776254E+03</pdfrwt>
<totfact> 0.62474181E+03</totfact>
</mgrwt>
</event>
<event>
 7    1  0.1254976E-005  0.3045171E+03  0.7546771E-02  0.1118513E+00
         -2   -1    0    0    0  501 -0.00000000000E+00  0.00000000000E+00  0.27993307709E+03  0.27993307709E+03  0.00000000000E+00 0.  1.
          2   -1    0    0  501    0  0.00000000000E+00 -0.00000000000E+00 -0.17234676135E+03  0.17234676135E+03  0.00000000000E+00 0. -1.
         23    2    1    2    0    0  0.43449926122E+02 -0.68091659166E+02 -0.18444919046E+02  0.12271268625E+03  0.90519711670E+02 0.  0.
          5    1    1    2  502    0 -0.13061992593E+03  0.12622396153E+03  0.24066244885E+02  0.18329028249E+03  0.47000000000E+01 0. -1.
         -5    1    1    2    0  502  0.87169999804E+02 -0.58132302365E+02  0.10196498989E+03  0.14627686970E+03  0.47000000000E+01 0.  1.
        -11    1    3    3    0    0  0.55806259141E+02 -0.13729225465E+02 -0.31384888105E+02  0.65481611103E+02  0.00000000000E+00 0. -1.
         11    1    3    3    0    0 -0.12356333019E+02 -0.54362433701E+02  0.12939969059E+02  0.57231075150E+02  0.00000000000E+00 0.  1.
<mgrwt>
<rscale>  0 0.24193044E+03</rscale>
<asrwt>0</asrwt>
<pdfrwt beam="2">  1        2 0.26514886E-01 0.30451705E+03</pdfrwt>
<pdfrwt beam="1">  1       -2 0.43066627E-01 0.30451705E+03</pdfrwt>
<totfact> 0.10416783E+03</totfact>
</mgrwt>
</event>
<event>
 7    1  0.1254976E-005  0.5169469E+03  0.7546771E-02  0.1068625E+00
          2   -1    0    0  501    0  0.00000000000E+00  0.00000000000E+00  0.10202167553E+04  0.10202167553E+04  0.00000000000E+00 0. -1.
         -2   -1    0    0    0  501 -0.00000000000E+00 -0.00000000000E+00 -0.91399180421E+02  0.91399180421E+02  0.00000000000E+00 0.  1.
         23    2    1    2    0    0  0.50465971511E+01 -0.46216789453E-01  0.17287798236E+03  0.19582187795E+03  0.91836489586E+02 0.  0.
          5    1    1    2  502    0 -0.79345822185E+02 -0.95092672533E+02  0.78237470628E+03  0.79213044815E+03  0.47000000000E+01 0. -1.
         -5    1    1    2    0  502  0.74299225034E+02  0.95138889322E+02 -0.26435113767E+02  0.12366360961E+03  0.47000000000E+01 0.  1.
        -11    1    3    3    0    0 -0.82162143483E+01 -0.33638329067E+02  0.22799723860E+02  0.41459266379E+02  0.00000000000E+00 0.  1.
         11    1    3    3    0    0  0.13262811499E+02  0.33592112277E+02  0.15007825850E+03  0.15436261157E+03  0.00000000000E+00 0. -1.
<mgrwt>
<rscale>  0 0.33573913E+03</rscale>
<asrwt>0</asrwt>
<pdfrwt beam="1">  1        2 0.15695642E+00 0.51694689E+03</pdfrwt>
<pdfrwt beam="2">  1       -2 0.14061413E-01 0.51694689E+03</pdfrwt>
<totfact> 0.96583045E+02</totfact>
</mgrwt>
</event>
<event>
 7    1  0.1462046E-005  0.2771175E+03  0.7546771E-02  0.1099178E+00
         -1   -1    0    0    0  501 -0.00000000000E+00  0.00000000000E+00  0.72305176470E+02  0.72305176470E+02  0.00000000000E+00 0.  1.
          1   -1    0    0  501    0  0.00000000000E+00 -0.00000000000E+00 -0.10145189103E+04  0.10145189103E+04  0.00000000000E+00 0. -1.
         23    2    1    2    0    0 -0.21246026010E+03 -0.12660789099E+03 -0.48988408178E+03  0.55635613896E+03  0.91524967035E+02 0.  0.
          5    1    1    2  502    0  0.17270634885E+02  0.29314011129E+02 -0.17129496364E+03  0.17470443797E+03  0.47000000000E+01 0.  1.
         -5    1    1    2    0  502  0.19518962521E+03  0.97293879857E+02 -0.28103468841E+03  0.35576350984E+03  0.47000000000E+01 0.  1.
        -11    1    3    3    0    0 -0.66855964382E+02  0.53319073295E+01 -0.13313911599E+03  0.14907774286E+03  0.00000000000E+00 0.  1.
         11    1    3    3    0    0 -0.14560429572E+03 -0.13193979832E+03 -0.35674496580E+03  0.40727839610E+03  0.00000000000E+00 0. -1.
<mgrwt>
<rscale>  0 0.27370443E+03</rscale>
<asrwt>0</asrwt>
<pdfrwt beam="2">  1        1 0.15607983E+00 0.27711754E+03</pdfrwt>
<pdfrwt beam="1">  1       -1 0.11123873E-01 0.27711754E+03</pdfrwt>
<totfact> 0.80644168E+02</totfact>
</mgrwt>
</event>
<event>
 7    1  0.1254976E-005  0.1142975E+03  0.7546771E-02  0.1261774E+00
          1   -1    0    0  501    0  0.00000000000E+00  0.00000000000E+00  0.65257208305E+03  0.65257208305E+03  0.00000000000E+00 0. -1.
         -1   -1    0    0    0  501 -0.00000000000E+00 -0.00000000000E+00 -0.17462423687E+02  0.17462423687E+02  0.00000000000E+00 0.  1.
         23    2    1    2    0    0  0.25054695883E+02  0.17463315919E+02  0.35008007322E+03  0.36294202893E+03  0.90764274388E+02 0.  0.
          5    1    1    2  502    0  0.30827253003E+02  0.28058549205E+02  0.11155769170E+03  0.11918393469E+03  0.47000000000E+01 0. -1.
         -5    1    1    2    0  502 -0.55881948886E+02 -0.45521865125E+02  0.17347189444E+03  0.18790854312E+03  0.47000000000E+01 0.  1.
        -11    1    3    3    0    0  0.58962135093E+02  0.11815846892E+02  0.24971792733E+03  0.25685636228E+03  0.00000000000E+00 0. -1.
         11    1    3    3    0    0 -0.33907439210E+02  0.56474690269E+01  0.10036214589E+03  0.10608566665E+03  0.00000000000E+00 0.  1.
<mgrwt>
<rscale>  0 0.10935254E+03</rscale>
<asrwt>0</asrwt>
<pdfrwt beam="1">  1        1 0.10039569E+00 0.11429753E+03</pdfrwt>
<pdfrwt beam="2">  1       -1 0.26865272E-02 0.11429753E+03</pdfrwt>
<totfact> 0.13030961E+04</totfact>
</mgrwt>
</event>
<event>
 7    1  0.1254976E-005  0.1753700E+03  0.7546771E-02  0.1178147E+00
         -1   -1    0    0    0  501 -0.00000000000E+00  0.00000000000E+00  0.22109569211E+02  0.22109569211E+02  0.00000000000E+00 0.  1.
          1   -1    0    0  501    0  0.00000000000E+00 -0.00000000000E+00 -0.13206789320E+04  0.13206789320E+04  0.00000000000E+00 0. -1.
         23    2    1    2    0    0  0.12179083298E+03 -0.17193609121E+02 -0.78991239067E+03  0.80474894383E+03  0.92361520545E+02 0.  0.
          5    1    1    2  502    0 -0.33479697735E+02  0.43934901982E+02 -0.35063543751E+03  0.35499079679E+03  0.47000000000E+01 0.  1.
         -5    1    1    2    0  502 -0.88311135241E+02 -0.26741292860E+02 -0.15802153464E+03  0.18304876061E+03  0.47000000000E+01 0.  1.
        -11    1    3    3    0    0  0.75574292955E+02  0.34943257096E+02 -0.47250582601E+03  0.47978564024E+03  0.00000000000E+00 0. -1.
         11    1    3    3    0    0  0.46216540022E+02 -0.52136866217E+02 -0.31740656466E+03  0.32496330359E+03  0.00000000000E+00 0.  1.
<mgrwt>
<rscale>  0 0.16971363E+03</rscale>
<asrwt>0</asrwt>
<pdfrwt beam="2">  1        1 0.20318144E+00 0.17537004E+03</pdfrwt>
<pdfrwt beam="1">  1       -1 0.34014712E-02 0.17537004E+03</pdfrwt>
<totfact> 0.29416987E+03</totfact>
</mgrwt>
</event>
<event>
 7    1  0.1254976E-005  0.2235311E+03  0.7546771E-02  0.1131278E+00
          2   -1    0    0  501    0  0.00000000000E+00  0.00000000000E+00  0.63347729389E+03  0.63347729389E+03  0.00000000000E+00 0. -1.
         -2   -1    0    0    0  501 -0.00000000000E+00 -0.00000000000E+00 -0.19718990999E+02  0.19718990999E+02  0.00000000000E+00 0.  1.
         23    2    1    2    0    0 -0.54346072507E+01  0.27605964517E+02  0.27890132539E+03  0.29466239606E+03  0.90820449878E+02 0.  0.
          5    1    1    2  502    0 -0.12150490753E+02 -0.69231506618E+02  0.12196300498E+03  0.14084637204E+03  0.47000000000E+01 0.  1.
         -5    1    1    2    0  502  0.17585098003E+02  0.41625542101E+02  0.21289397252E+03  0.21768751678E+03  0.47000000000E+01 0.  1.
        -11    1    3    3    0    0  0.21610591460E+01 -0.33459102976E+02  0.95935470124E+02  0.10162576532E+03  0.00000000000E+00 0. -1.
         11    1    3    3    0    0 -0.75956663967E+01  0.61065067493E+02  0.18296585527E+03  0.19303663074E+03  0.00000000000E+00 0.  1.
<mgrwt>
<rscale>  0 0.22353105E+03</rscale>
<asrwt>0</asrwt>
<pdfrwt beam="1">  1        2 0.97458030E-01 0.22353105E+03</pdfrwt>
<pdfrwt beam="2">  1       -2 0.30336914E-02 0.22353105E+03</pdfrwt>
<totfact> 0.19346041E+04</totfact>
</mgrwt>
</event>
<event>
 7    1  0.1254976E-005  0.1325766E+03  0.7546771E-02  0.1232671E+00
         -1   -1    0    0    0  501 -0.00000000000E+00  0.00000000000E+00  0.17581892270E+03  0.17581892270E+03  0.00000000000E+00 0.  1.
          1   -1    0    0  501    0  0.00000000000E+00 -0.00000000000E+00 -0.99461732916E+02  0.99461732916E+02  0.00000000000E+00 0. -1.
         23    2    1    2    0    0 -0.17270193828E+02 -0.40663078934E+02 -0.19382802181E+02  0.11174865855E+03  0.10079843295E+03 0.  0.
          5    1    1    2  502    0 -0.22748210800E+02 -0.35693542161E+02  0.14511259829E+02  0.44990851386E+02  0.47000000000E+01 0. -1.
         -5    1    1    2    0  502  0.40018404629E+02  0.76356621095E+02  0.81228732141E+02  0.11854114568E+03  0.47000000000E+01 0. -1.
        -11    1    3    3    0    0  0.16379112313E+02 -0.36889351138E+02 -0.51260559484E+02  0.65243731546E+02  0.00000000000E+00 0. -1.
         11    1    3    3    0    0 -0.33649306141E+02 -0.37737277965E+01  0.31877757302E+02  0.46504927007E+02  0.00000000000E+00 0.  1.
<mgrwt>
<rscale>  0 0.12654721E+03</rscale>
<asrwt>0</asrwt>
<pdfrwt beam="2">  1        1 0.15301805E-01 0.13257665E+03</pdfrwt>
<pdfrwt beam="1">  1       -1 0.27049065E-01 0.13257665E+03</pdfrwt>
<totfact> 0.42321710E+03</totfact>
</mgrwt>
</event>
<event>
 7    1  0.1254976E-005  0.1766971E+03  0.7546771E-02  0.1176360E+00
         -2   -1    0    0    0  501 -0.00000000000E+00  0.00000000000E+00  0.34790488881E+03  0.34790488881E+03  0.00000000000E+00 0.  1.
          2   -1    0    0  501    0  0.00000000000E+00 -0.00000000000E+00 -0.80863192477E+02  0.80863192477E+02  0.00000000000E+00 0. -1.
         23    2    1    2    0    0 -0.23356018545E+02  0.12269396895E+03  0.10113953647E+03  0.18639362093E+03  0.94414312830E+02 0.  0.
          5    1    1    2  502    0  0.17232336710E+02 -0.34545564747E+02 -0.14447596377E+02  0.41487016201E+02  0.47000000000E+01 0. -1.
         -5    1    1    2    0  502  0.61236818357E+01 -0.88148404204E+02  0.18034975624E+03  0.20088744415E+03  0.47000000000E+01 0. -1.
        -11    1    3    3    0    0  0.36691920708E+02  0.48981261790E+02  0.34094540029E+02  0.70056396650E+02  0.00000000000E+00 0.  1.
         11    1    3    3    0    0 -0.60047939254E+02  0.73712707161E+02  0.67044996441E+02  0.11633722428E+03  0.00000000000E+00 0. -1.
<mgrwt>
<rscale>  0 0.17143417E+03</rscale>
<asrwt>0</asrwt>
<pdfrwt beam="2">  1        2 0.12440491E-01 0.17669706E+03</pdfrwt>
<pdfrwt beam="1">  1       -2 0.53523828E-01 0.17669706E+03</pdfrwt>
<totfact> 0.16070397E+03</totfact>
</mgrwt>
</event>
<event>
 7    1  0.1254976E-005  0.1290011E+03  0.7546771E-02  0.1244084E+00
         -1   -1    0    0    0  501 -0.00000000000E+00  0.00000000000E+00  0.12884735247E+03  0.12884735247E+03  0.00000000000E+00 0.  1.
          1   -1    0    0  501    0  0.00000000000E+00 -0.00000000000E+00 -0.10162112169E+03  0.10162112169E+03  0.00000000000E+00 0. -1.
         23    2    1    2    0    0  0.31425872750E+02 -0.54570903709E+01 -0.12452898208E+02  0.95502872137E+02  0.89153567507E+02 0.  0.
          5    1    1    2  502    0  0.29444702006E+02 -0.42011391438E+02  0.12690769332E+02  0.53057451061E+02  0.47000000000E+01 0.  1.
         -5    1    1    2    0  502 -0.60870574756E+02  0.47468481809E+02  0.26988359661E+02  0.81908150959E+02  0.47000000000E+01 0.  1.
        -11    1    3    3    0    0 -0.14015301518E+02 -0.28517026575E+02 -0.27868538134E+02  0.42264700390E+02  0.00000000000E+00 0. -1.
         11    1    3    3    0    0  0.45441174268E+02  0.23059936204E+02  0.15415639926E+02  0.53238171747E+02  0.00000000000E+00 0.  1.
<mgrwt>
<rscale>  0 0.11940381E+03</rscale>
<asrwt>0</asrwt>
<pdfrwt beam="2">  1        1 0.15634019E-01 0.12900109E+03</pdfrwt>
<pdfrwt beam="1">  1       -1 0.19822670E-01 0.12900109E+03</pdfrwt>
<totfact> 0.68155687E+03</totfact>
</mgrwt>
</event>
<event>
 7    1  0.1254976E-005  0.1320293E+03  0.7546771E-02  0.1237968E+00
          3   -1    0    0  501    0  0.00000000000E+00  0.00000000000E+00  0.71943402552E+02  0.71943402552E+02  0.00000000000E+00 0. -1.
         -3   -1    0    0    0  501 -0.00000000000E+00 -0.00000000000E+00 -0.25511702658E+03  0.25511702658E+03  0.00000000000E+00 0.  1.
         23    2    1    2    0    0 -0.21729739267E+02  0.36512019199E+02  0.15639419325E+01  0.99992834326E+02  0.90503104298E+02 0.  0.
          5    1    1    2  502    0  0.58626963705E+02 -0.58022242031E+02 -0.85337101159E+02  0.11877799576E+03  0.47000000000E+01 0. -1.
         -5    1    1    2    0  502 -0.36897224438E+02  0.21510222832E+02 -0.99400464798E+02  0.10828959904E+03  0.47000000000E+01 0. -1.
        -11    1    3    3    0    0 -0.20611103609E+02  0.13223883475E+02 -0.43121976107E+02  0.49590256195E+02  0.00000000000E+00 0.  1.
         11    1    3    3    0    0 -0.11186356586E+01  0.23288135724E+02  0.44685918039E+02  0.50402578131E+02  0.00000000000E+00 0. -1.
<mgrwt>
<rscale>  0 0.12316337E+03</rscale>
<asrwt>0</asrwt>
<pdfrwt beam="1">  1        3 0.11068216E-01 0.13202926E+03</pdfrwt>
<pdfrwt beam="2">  1       -3 0.39248774E-01 0.13202926E+03</pdfrwt>
<totfact> 0.92169181E+02</totfact>
</mgrwt>
</event>
<event>
 7    1  0.1254976E-005  0.1415451E+03  0.7546771E-02  0.1222115E+00
         -1   -1    0    0    0  501 -0.00000000000E+00  0.00000000000E+00  0.23134856563E+02  0.23134856563E+02  0.00000000000E+00 0.  1.
          1   -1    0    0  501    0  0.00000000000E+00 -0.00000000000E+00 -0.72496047129E+03  0.72496047129E+03  0.00000000000E+00 0. -1.
         23    2    1    2    0    0 -0.59079573721E+02 -0.30322751936E+02 -0.38436463823E+03  0.40050867494E+03  0.90890914095E+02 0.  0.
          5    1    1    2  502    0  0.85081716952E+02  0.34691253390E+02 -0.13622724398E+03  0.16438471225E+03  0.47000000000E+01 0.  1.
         -5    1    1    2    0  502 -0.26002143230E+02 -0.43685014539E+01 -0.18123373252E+03  0.18320194066E+03  0.47000000000E+01 0.  1.
        -11    1    3    3    0    0 -0.31669210609E+02  0.26462602443E+02 -0.83922609432E+02  0.93521187987E+02  0.00000000000E+00 0.  1.
         11    1    3    3    0    0 -0.27410363112E+02 -0.56785354379E+02 -0.30044202880E+03  0.30698748695E+03  0.00000000000E+00 0. -1.
<mgrwt>
<rscale>  0 0.13366649E+03</rscale>
<asrwt>0</asrwt>
<pdfrwt beam="2">  1        1 0.11153238E+00 0.14154508E+03</pdfrwt>
<pdfrwt beam="1">  1       -1 0.35592088E-02 0.14154508E+03</pdfrwt>
<totfact> 0.75626166E+03</totfact>
</mgrwt>
</event>
<event>
 7    1  0.1254976E-005  0.1301054E+03  0.7546771E-02  0.1241717E+00
          1   -1    0    0  501    0  0.00000000000E+00  0.00000000000E+00  0.66203467015E+03  0.66203467015E+03  0.00000000000E+00 0. -1.
         -1   -1    0    0    0  501 -0.00000000000E+00 -0.00000000000E+00 -0.30478056849E+02  0.30478056849E+02  0.00000000000E+00 0.  1.
         23    2    1    2    0    0  0.16634170139E+02 -0.32029188687E+02  0.49311346711E+03  0.50252869694E+03  0.89842279942E+02 0.  0.
          5    1    1    2  502    0  0.20850056739E+02  0.46062560505E+02  0.55114998399E+01  0.51077891272E+02  0.47000000000E+01 0.  1.
         -5    1    1    2    0  502 -0.37484226878E+02 -0.14033371818E+02  0.13293164635E+03  0.13890613878E+03  0.47000000000E+01 0.  1.
        -11    1    3    3    0    0  0.78410933690E+01 -0.63435173208E+02  0.34438717528E+03  0.35026851192E+03  0.00000000000E+00 0. -1.
         11    1    3    3    0    0  0.87930767696E+01  0.31405984521E+02  0.14872629183E+03  0.15226018502E+03  0.00000000000E+00 0.  1.
<mgrwt>
<rscale>  0 0.12084074E+03</rscale>
<asrwt>0</asrwt>
<pdfrwt beam="1">  1        1 0.10185148E+00 0.13010545E+03</pdfrwt>
<pdfrwt beam="2">  1       -1 0.46889323E-02 0.13010545E+03</pdfrwt>
<totfact> 0.57143748E+03</totfact>
</mgrwt>
</event>
<event>
 7    1  0.1254976E-005  0.1287371E+03  0.7546771E-02  0.1243624E+00
          2   -1    0    0  501    0  0.00000000000E+00  0.00000000000E+00  0.29876811405E+03  0.29876811405E+03  0.00000000000E+00 0. -1.
         -2   -1    0    0    0  501 -0.00000000000E+00 -0.00000000000E+00 -0.45058959810E+02  0.45058959810E+02  0.00000000000E+00 0.  1.
         23    2    1    2    0    0  0.49005307603E+01  0.30333300671E+02  0.15154051550E+03  0.17947475938E+03  0.91118258793E+02 0.  0.
          5    1    1    2  502    0 -0.35273657603E+02 -0.66738110611E+02  0.84833009974E+02  0.11365269865E+03  0.47000000000E+01 0.  1.
         -5    1    1    2    0  502  0.30373126843E+02  0.36404809939E+02  0.17335628770E+02  0.50699615835E+02  0.47000000000E+01 0.  1.
        -11    1    3    3    0    0  0.24073736282E+02 -0.14199258572E+02  0.11610363621E+03  0.11942034192E+03  0.00000000000E+00 0. -1.
         11    1    3    3    0    0 -0.19173205522E+02  0.44532559243E+02  0.35436879283E+02  0.60054417456E+02  0.00000000000E+00 0.  1.
<mgrwt>
<rscale>  0 0.11968122E+03</rscale>
<asrwt>0</asrwt>
<pdfrwt beam="1">  1        2 0.45964324E-01 0.12873715E+03</pdfrwt>
<pdfrwt beam="2">  1       -2 0.69321479E-02 0.12873715E+03</pdfrwt>
<totfact> 0.12197408E+04</totfact>
</mgrwt>
</event>
<event>
 7    1  0.1254976E-005  0.3393805E+03  0.7546771E-02  0.1103936E+00
          2   -1    0    0  501    0  0.00000000000E+00  0.00000000000E+00  0.69895498868E+03  0.69895498868E+03  0.00000000000E+00 0. -1.
         -2   -1    0    0    0  501 -0.00000000000E+00 -0.00000000000E+00 -0.90996784324E+02  0.90996784324E+02  0.00000000000E+00 0.  1.
         23    2    1    2    0    0 -0.65138248204E+02  0.49794968806E+02  0.32214311284E+03  0.34625209505E+03  0.96911288709E+02 0.  0.
          5    1    1    2  502    0  0.67813237533E+02 -0.16924771597E+03  0.66927188881E+02  0.19428011518E+03  0.47000000000E+01 0. -1.
         -5    1    1    2    0  502 -0.26749893283E+01  0.11945274716E+03  0.21888790263E+03  0.24941956277E+03  0.47000000000E+01 0.  1.
        -11    1    3    3    0    0  0.11603802742E+02  0.40534018224E+02  0.17538296484E+03  0.18037970847E+03  0.00000000000E+00 0.  1.
         11    1    3    3    0    0 -0.76742050946E+02  0.92609505823E+01  0.14676014800E+03  0.16587238658E+03  0.00000000000E+00 0. -1.
<mgrwt>
<rscale>  0 0.26540965E+03</rscale>
<asrwt>0</asrwt>
<pdfrwt beam="1">  1        2 0.10753153E+00 0.33938052E+03</pdfrwt>
<pdfrwt beam="2">  1       -2 0.13999506E-01 0.33938052E+03</pdfrwt>
<totfact> 0.16152402E+03</totfact>
</mgrwt>
</event>
<event>
 7    1  0.1254976E-005  0.1467685E+03  0.7546771E-02  0.1214118E+00
          1   -1    0    0  501    0  0.00000000000E+00  0.00000000000E+00  0.54725705735E+03  0.54725705735E+03  0.00000000000E+00 0. -1.
         -1   -1    0    0    0  501 -0.00000000000E+00 -0.00000000000E+00 -0.34175556441E+02  0.34175556441E+02  0.00000000000E+00 0.  1.
         23    2    1    2    0    0 -0.16022482396E+02 -0.75297657227E+02  0.29781545649E+03  0.32089381943E+03  0.91391137994E+02 0.  0.
          5    1    1    2  502    0 -0.39829190955E+02  0.78993236134E+02  0.15202074447E+03  0.17595082426E+03  0.47000000000E+01 0. -1.
         -5    1    1    2    0  502  0.55851673351E+02 -0.36955789071E+01  0.63245299954E+02  0.84587970102E+02  0.47000000000E+01 0. -1.
        -11    1    3    3    0    0  0.95943118495E+01 -0.87535303028E+02  0.19019105302E+03  0.20958796899E+03  0.00000000000E+00 0.  1.
         11    1    3    3    0    0 -0.25616794246E+02  0.12237645801E+02  0.10762440346E+03  0.11130585044E+03  0.00000000000E+00 0. -1.
<mgrwt>
<rscale>  0 0.13941551E+03</rscale>
<asrwt>0</asrwt>
<pdfrwt beam="1">  1        1 0.84193387E-01 0.14676850E+03</pdfrwt>
<pdfrwt beam="2">  1       -1 0.52577783E-02 0.14676850E+03</pdfrwt>
<totfact> 0.62951785E+03</totfact>
</mgrwt>
</event>
<event>
 7    1  0.1254976E-005  0.2284258E+03  0.7546771E-02  0.1127753E+00
         -2   -1    0    0    0  501 -0.00000000000E+00  0.00000000000E+00  0.10488905980E+02  0.10488905980E+02  0.00000000000E+00 0.  1.
          2   -1    0    0  501    0  0.00000000000E+00 -0.00000000000E+00 -0.12436561007E+04  0.12436561007E+04  0.00000000000E+00 0. -1.
         23    2    1    2    0    0  0.52662328244E+02 -0.54417648411E+01 -0.49715454068E+03  0.50571740804E+03  0.76056070441E+02 0.  0.
          5    1    1    2  502    0 -0.92772957524E+02 -0.43813130187E+01 -0.55208268706E+03  0.55986016192E+03  0.47000000000E+01 0. -1.
         -5    1    1    2    0  502  0.40110629280E+02  0.98230778598E+01 -0.18392996693E+03  0.18856743668E+03  0.47000000000E+01 0. -1.
        -11    1    3    3    0    0  0.11305031632E+02  0.33327559001E+02 -0.15939788146E+03  0.16323668259E+03  0.00000000000E+00 0. -1.
         11    1    3    3    0    0  0.41357296612E+02 -0.38769323842E+02 -0.33775665922E+03  0.34248072544E+03  0.00000000000E+00 0.  1.
<mgrwt>
<rscale>  0 0.22842585E+03</rscale>
<asrwt>0</asrwt>
<pdfrwt beam="2">  1        2 0.19133157E+00 0.22842585E+03</pdfrwt>
<pdfrwt beam="1">  1       -2 0.16136790E-02 0.22842585E+03</pdfrwt>
<totfact> 0.19804388E+04</totfact>
</mgrwt>
</event>
<event>
 7    1  0.1254976E-005  0.1265942E+03  0.7546771E-02  0.1247350E+00
          1   -1    0    0  501    0  0.00000000000E+00  0.00000000000E+00  0.45490156631E+03  0.45490156631E+03  0.00000000000E+00 0. -1.
         -1   -1    0    0    0  501 -0.00000000000E+00 -0.00000000000E+00 -0.26891156611E+02  0.26891156611E+02  0.00000000000E+00 0.  1.
         23    2    1    2    0    0  0.41277144032E+01 -0.19562263667E+02  0.20254632478E+03  0.22321941226E+03  0.91663363117E+02 0.  0.
          5    1    1    2  502    0 -0.11461404015E+02  0.28677596697E+02 -0.14852600998E+01  0.31274020078E+02  0.47000000000E+01 0.  1.
         -5    1    1    2    0  502  0.73336896118E+01 -0.91153330298E+01  0.22694934501E+03  0.22729929059E+03  0.47000000000E+01 0.  1.
        -11    1    3    3    0    0  0.45256854094E+02  0.55365702372E+01  0.95158510562E+02  0.10551766954E+03  0.00000000000E+00 0. -1.
         11    1    3    3    0    0 -0.41129139691E+02 -0.25098833904E+02  0.10738781422E+03  0.11770174272E+03  0.00000000000E+00 0.  1.
<mgrwt>
<rscale>  0 0.11745797E+03</rscale>
<asrwt>0</asrwt>
<pdfrwt beam="1">  1        1 0.69984851E-01 0.12659425E+03</pdfrwt>
<pdfrwt beam="2">  1       -1 0.41371014E-02 0.12659425E+03</pdfrwt>
<totfact> 0.11302756E+04</totfact>
</mgrwt>
</event>
<event>
 7    1  0.1254976E-005  0.3747530E+03  0.7546771E-02  0.1088779E+00
          1   -1    0    0  501    0  0.00000000000E+00  0.00000000000E+00  0.85682739287E+03  0.85682739287E+03  0.00000000000E+00 0. -1.
         -1   -1    0    0    0  501 -0.00000000000E+00 -0.00000000000E+00 -0.77503108137E+02  0.77503108137E+02  0.00000000000E+00 0.  1.
         23    2    1    2    0    0  0.81733913147E+02 -0.68112002962E+02  0.23164420776E+03  0.27070914061E+03  0.91130249184E+02 0.  0.
          5    1    1    2  502    0  0.30586457034E+01 -0.99138370588E+02  0.43195200106E+03  0.44321822284E+03  0.47000000000E+01 0. -1.
         -5    1    1    2    0  502 -0.84792558850E+02  0.16725037355E+03  0.11572807591E+03  0.22040313755E+03  0.47000000000E+01 0.  1.
        -11    1    3    3    0    0 -0.32804363892E+01 -0.13107813305E+02 -0.41153741064E+01  0.14124883596E+02  0.00000000000E+00 0.  1.
         11    1    3    3    0    0  0.85014349536E+02 -0.55004189657E+02  0.23575958187E+03  0.25658425702E+03  0.00000000000E+00 0. -1.
<mgrwt>
<rscale>  0 0.29302753E+03</rscale>
<asrwt>0</asrwt>
<pdfrwt beam="1">  1        1 0.13181959E+00 0.37475304E+03</pdfrwt>
<pdfrwt beam="2">  1       -1 0.11923556E-01 0.37475304E+03</pdfrwt>
<totfact> 0.95600791E+02</totfact>
</mgrwt>
</event>
<event>
 7    1  0.1254976E-005  0.1298796E+03  0.7546771E-02  0.1242216E+00
         -2   -1    0    0    0  501 -0.00000000000E+00  0.00000000000E+00  0.55645210099E+02  0.55645210099E+02  0.00000000000E+00 0.  1.
          2   -1    0    0  501    0  0.00000000000E+00 -0.00000000000E+00 -0.24965041957E+03  0.24965041957E+03  0.00000000000E+00 0. -1.
         23    2    1    2    0    0  0.16815249855E+02  0.31004532187E+02 -0.12622378452E+03  0.15879294831E+03  0.89658925988E+02 0.  0.
          5    1    1    2  502    0 -0.22359455501E+02  0.41925684694E+02 -0.16340630838E+01  0.47775186547E+02  0.47000000000E+01 0.  1.
         -5    1    1    2    0  502  0.55442056457E+01 -0.72930216882E+02 -0.66147361870E+02  0.98727494817E+02  0.47000000000E+01 0.  1.
        -11    1    3    3    0    0 -0.32146888604E+02  0.17941611249E+02 -0.87775122929E+02  0.95182961008E+02  0.00000000000E+00 0. -1.
         11    1    3    3    0    0  0.48962138459E+02  0.13062920938E+02 -0.38448661591E+02  0.63609987298E+02  0.00000000000E+00 0.  1.
<mgrwt>
<rscale>  0 0.12053561E+03</rscale>
<asrwt>0</asrwt>
<pdfrwt beam="2">  1        2 0.38407758E-01 0.12987961E+03</pdfrwt>
<pdfrwt beam="1">  1       -2 0.85608014E-02 0.12987961E+03</pdfrwt>
<totfact> 0.10671582E+04</totfact>
</mgrwt>
</event>
<event>
 7    1  0.1254976E-005  0.1376133E+03  0.7546771E-02  0.1229032E+00
          2   -1    0    0  501    0  0.00000000000E+00  0.00000000000E+00  0.35013570147E+03  0.35013570147E+03  0.00000000000E+00 0. -1.
         -2   -1    0    0    0  501 -0.00000000000E+00 -0.00000000000E+00 -0.42401501620E+02  0.42401501620E+02  0.00000000000E+00 0.  1.
         23    2    1    2    0    0  0.57522416793E+02  0.20518645959E+01  0.13450637807E+03  0.17130134619E+03  0.89101890456E+02 0.  0.
          5    1    1    2  502    0 -0.88213751713E+02  0.17786755744E+02  0.15689689543E+03  0.18093302757E+03  0.47000000000E+01 0.  1.
         -5    1    1    2    0  502  0.30691334920E+02 -0.19838620339E+02  0.16330926348E+02  0.40302829324E+02  0.47000000000E+01 0.  1.
        -11    1    3    3    0    0  0.33165807684E+02  0.11014284980E+02  0.65080157195E+00  0.34952951458E+02  0.00000000000E+00 0.  1.
         11    1    3    3    0    0  0.24356609109E+02 -0.89624203842E+01  0.13385557649E+03  0.13634839473E+03  0.00000000000E+00 0. -1.
<mgrwt>
<rscale>  0 0.12894365E+03</rscale>
<asrwt>0</asrwt>
<pdfrwt beam="1">  1        2 0.53867029E-01 0.13761332E+03</pdfrwt>
<pdfrwt beam="2">  1       -2 0.65233082E-02 0.13761332E+03</pdfrwt>
<totfact> 0.11371336E+04</totfact>
</mgrwt>
</event>
<event>
 7    1  0.1254976E-005  0.1452652E+03  0.7546771E-02  0.1212190E+00
          1   -1    0    0  501    0  0.00000000000E+00  0.00000000000E+00  0.25567871223E+03  0.25567871223E+03  0.00000000000E+00 0. -1.
         -1   -1    0    0    0  501 -0.00000000000E+00 -0.00000000000E+00 -0.76761564691E+02  0.76761564691E+02  0.00000000000E+00 0.  1.
         23    2    1    2    0    0 -0.37309893861E+02  0.63899720524E+02  0.11980802193E+03  0.17560962254E+03  0.10492652165E+03 0.  0.
          5    1    1    2  502    0  0.64525560820E+02  0.10354018551E+02  0.33386184588E+02  0.73535576564E+02  0.47000000000E+01 0.  1.
         -5    1    1    2    0  502 -0.27215666959E+02 -0.74253739075E+02  0.25722941022E+02  0.83295077823E+02  0.47000000000E+01 0.  1.
        -11    1    3    3    0    0 -0.17415183960E+02  0.42872199627E+01 -0.17216360772E+02  0.24861053188E+02  0.00000000000E+00 0.  1.
         11    1    3    3    0    0 -0.19894709901E+02  0.59612500562E+02  0.13702438270E+03  0.15074856935E+03  0.00000000000E+00 0. -1.
<mgrwt>
<rscale>  0 0.14084988E+03</rscale>
<asrwt>0</asrwt>
<pdfrwt beam="1">  1        1 0.39335186E-01 0.14526516E+03</pdfrwt>
<pdfrwt beam="2">  1       -1 0.11809472E-01 0.14526516E+03</pdfrwt>
<totfact> 0.48515675E+03</totfact>
</mgrwt>
</event>
<event>
 7    1  0.1254976E-005  0.3502815E+03  0.7546771E-02  0.1064258E+00
          1   -1    0    0  501    0  0.00000000000E+00  0.00000000000E+00  0.25593377995E+03  0.25593377995E+03  0.00000000000E+00 0. -1.
         -1   -1    0    0    0  501 -0.00000000000E+00 -0.00000000000E+00 -0.46360592245E+03  0.46360592245E+03  0.00000000000E+00 0.  1.
         23    2    1    2    0    0 -0.23622925500E+03 -0.21746133149E+03 -0.57774436469E+02  0.33853251281E+03  0.90402904315E+02 0.  0.
          5    1    1    2  502    0  0.44215155228E+02  0.12822038676E+03 -0.35420865997E+02  0.14025753200E+03  0.47000000000E+01 0. -1.
         -5    1    1    2    0  502  0.19201409977E+03  0.89240944728E+02 -0.11447684003E+03  0.24074965759E+03  0.47000000000E+01 0.  1.
        -11    1    3    3    0    0 -0.57654350359E+02 -0.42044940602E+02  0.23856088756E+02  0.75239046487E+02  0.00000000000E+00 0. -1.
         11    1    3    3    0    0 -0.17857490464E+03 -0.17541639089E+03 -0.81630525225E+02  0.26329346632E+03  0.00000000000E+00 0.  1.
<mgrwt>
<rscale>  0 0.34602576E+03</rscale>
<asrwt>0</asrwt>
<pdfrwt beam="1">  1        1 0.39374428E-01 0.35028154E+03</pdfrwt>
<pdfrwt beam="2">  1       -1 0.71323987E-01 0.35028154E+03</pdfrwt>
<totfact> 0.22147054E+02</totfact>
</mgrwt>
</event>
<event>
 7    1  0.1254976E-005  0.1322550E+03  0.7546771E-02  0.1236661E+00
          1   -1    0    0  501    0  0.00000000000E+00  0.00000000000E+00  0.39754580788E+02  0.39754580788E+02  0.00000000000E+00 0. -1.
         -1   -1    0    0    0  501 -0.00000000000E+00 -0.00000000000E+00 -0.58777443688E+03  0.58777443688E+03  0.00000000000E+00 0.  1.
         23    2    1    2    0    0  0.30576011035E+02  0.30516765882E+02 -0.52883809986E+02  0.11503404037E+03  0.92574119678E+02 0.  0.
          5    1    1    2  502    0  0.37152858789E+02 -0.37064991726E+02 -0.32419371997E+03  0.32844757054E+03  0.47000000000E+01 0. -1.
         -5    1    1    2    0  502 -0.67728869823E+02  0.65482258439E+01 -0.17094232614E+03  0.18404740676E+03  0.47000000000E+01 0. -1.
        -11    1    3    3    0    0  0.24439716523E+02  0.14547297338E+01 -0.74420971419E+02  0.78344731599E+02  0.00000000000E+00 0.  1.
         11    1    3    3    0    0  0.61362945110E+01  0.29062036148E+02  0.21537161433E+02  0.36689308770E+02  0.00000000000E+00 0. -1.
<mgrwt>
<rscale>  0 0.12398714E+03</rscale>
<asrwt>0</asrwt>
<pdfrwt beam="1">  1        1 0.61160894E-02 0.13225505E+03</pdfrwt>
<pdfrwt beam="2">  1       -1 0.90426836E-01 0.13225505E+03</pdfrwt>
<totfact> 0.15430717E+03</totfact>
</mgrwt>
</event>
<event>
 7    1  0.1254976E-005  0.1459899E+03  0.7546771E-02  0.1214280E+00
          1   -1    0    0  501    0  0.00000000000E+00  0.00000000000E+00  0.22009841289E+03  0.22009841289E+03  0.00000000000E+00 0. -1.
         -1   -1    0    0    0  501 -0.00000000000E+00 -0.00000000000E+00 -0.82301310354E+02  0.82301310354E+02  0.00000000000E+00 0.  1.
         23    2    1    2    0    0  0.47257452463E+02  0.58717265985E+02  0.81727159248E+02  0.14601274917E+03  0.94654161154E+02 0.  0.
          5    1    1    2  502    0 -0.63538159555E+02 -0.79146585919E+02  0.72816966275E+02  0.12500272141E+03  0.47000000000E+01 0. -1.
         -5    1    1    2    0  502  0.16280707092E+02  0.20429319934E+02 -0.16747022987E+02  0.31384252664E+02  0.47000000000E+01 0. -1.
        -11    1    3    3    0    0  0.45664232106E+02  0.36740035819E+01  0.78452864232E+02  0.90849173371E+02  0.00000000000E+00 0. -1.
         11    1    3    3    0    0  0.15932203575E+01  0.55043262404E+02  0.32742950157E+01  0.55163575799E+02  0.00000000000E+00 0.  1.
<mgrwt>
<rscale>  0 0.13929521E+03</rscale>
<asrwt>0</asrwt>
<pdfrwt beam="1">  1        1 0.33861294E-01 0.14598989E+03</pdfrwt>
<pdfrwt beam="2">  1       -1 0.12661740E-01 0.14598989E+03</pdfrwt>
<totfact> 0.52467997E+03</totfact>
</mgrwt>
</event>
<event>
 7    1  0.1254976E-005  0.1239733E+03  0.7546771E-02  0.1251756E+00
         -1   -1    0    0    0  501 -0.00000000000E+00  0.00000000000E+00  0.28204996373E+02  0.28204996373E+02  0.00000000000E+00 0.  1.
          1   -1    0    0  501    0  0.00000000000E+00 -0.00000000000E+00 -0.42463029419E+03  0.42463029419E+03  0.00000000000E+00 0. -1.
         23    2    1    2    0    0  0.62091478577E+01 -0.12277648446E+02 -0.20872646785E+03  0.22789032772E+03  0.90432123265E+02 0.  0.
          5    1    1    2  502    0  0.57212767813E+02  0.18441068010E+01 -0.10917464613E+03  0.12336083207E+03  0.47000000000E+01 0. -1.
         -5    1    1    2    0  502 -0.63421915671E+02  0.10433541645E+02 -0.78524183836E+02  0.10158413078E+03  0.47000000000E+01 0.  1.
        -11    1    3    3    0    0 -0.21346566501E+02  0.24677864289E+02 -0.14852301293E+03  0.15206498038E+03  0.00000000000E+00 0.  1.
         11    1    3    3    0    0  0.27555714359E+02 -0.36955512735E+02 -0.60203454926E+02  0.75825347347E+02  0.00000000000E+00 0. -1.
<mgrwt>
<rscale>  0 0.11489976E+03</rscale>
<asrwt>0</asrwt>
<pdfrwt beam="2">  1        1 0.65327734E-01 0.12397333E+03</pdfrwt>
<pdfrwt beam="1">  1       -1 0.43392305E-02 0.12397333E+03</pdfrwt>
<totfact> 0.11484705E+04</totfact>
</mgrwt>
</event>
<event>
 7    1  0.1254976E-005  0.2134701E+03  0.7546771E-02  0.1141720E+00
         -2   -1    0    0    0  501 -0.00000000000E+00  0.00000000000E+00  0.35439301397E+03  0.35439301397E+03  0.00000000000E+00 0.  1.
          2   -1    0    0  501    0  0.00000000000E+00 -0.00000000000E+00 -0.12048311130E+03  0.12048311130E+03  0.00000000000E+00 0. -1.
         23    2    1    2    0    0  0.10641669160E+03  0.13645260721E+03  0.99977228288E+02  0.22286925209E+03  0.98648016133E+02 0.  0.
          5    1    1    2  502    0  0.14892903020E+02 -0.66005958469E+02  0.18576385703E+02  0.70326077806E+02  0.47000000000E+01 0. -1.
         -5    1    1    2    0  502 -0.12130959462E+03 -0.70446648740E+02  0.11535628868E+03  0.18168079536E+03  0.47000000000E+01 0. -1.
        -11    1    3    3    0    0  0.12498243540E+03  0.10861195678E+03  0.86269624301E+02  0.18670729603E+03  0.00000000000E+00 0. -1.
         11    1    3    3    0    0 -0.18565743800E+02  0.27840650428E+02  0.13707603987E+02  0.36161956062E+02  0.00000000000E+00 0.  1.
<mgrwt>
<rscale>  0 0.20980596E+03</rscale>
<asrwt>0</asrwt>
<pdfrwt beam="2">  1        2 0.18535863E-01 0.21347015E+03</pdfrwt>
<pdfrwt beam="1">  1       -2 0.54522002E-01 0.21347015E+03</pdfrwt>
<totfact> 0.97252574E+02</totfact>
</mgrwt>
</event>
<event>
 6    1  0.1254976E-005  0.2402861E+03  0.7546771E-02  0.1163752E+00
          2   -1    0    0  501    0  0.00000000000E+00  0.00000000000E+00  0.25238225446E+03  0.25238225446E+03  0.00000000000E+00 0.  1.
         -2   -1    0    0    0  501 -0.00000000000E+00 -0.00000000000E+00 -0.11496791605E+03  0.11496791605E+03  0.00000000000E+00 0. -1.
          5    1    1    2  502    0 -0.55308296450E+02  0.95854840572E+02 -0.63558771279E+02  0.12770656022E+03  0.47000000000E+01 0. -1.
         -5    1    1    2    0  502  0.31904918067E+02 -0.19203426240E+02  0.11105822180E+03  0.11722932229E+03  0.47000000000E+01 0.  1.
        -11    1    1    2    0    0  0.13410557701E+01 -0.41719715106E+02  0.44108314219E+02  0.60727888506E+02  0.00000000000E+00 0. -1.
         11    1    1    2    0    0  0.22062322614E+02 -0.34931699227E+02  0.45806573671E+02  0.61686399485E+02  0.00000000000E+00 0.  1.
<mgrwt>
<rscale>  0 0.18424981E+03</rscale>
<asrwt>0</asrwt>
<pdfrwt beam="1">  1        2 0.38828039E-01 0.24028606E+03</pdfrwt>
<pdfrwt beam="2">  1       -2 0.17687372E-01 0.24028606E+03</pdfrwt>
<totfact> 0.33908537E+03</totfact>
</mgrwt>
</event>
<event>
 7    1  0.1254976E-005  0.1288319E+03  0.7546771E-02  0.1243217E+00
         -2   -1    0    0    0  501 -0.00000000000E+00  0.00000000000E+00  0.45580936280E+02  0.45580936280E+02  0.00000000000E+00 0.  1.
          2   -1    0    0  501    0  0.00000000000E+00 -0.00000000000E+00 -0.31855790929E+03  0.31855790929E+03  0.00000000000E+00 0. -1.
         23    2    1    2    0    0  0.72449111038E+01  0.30350133198E+02 -0.18300362027E+03  0.20699922172E+03  0.91568190100E+02 0.  0.
          5    1    1    2  502    0  0.25426981055E+02 -0.30907806277E+02 -0.11093946026E+03  0.11803168090E+03  0.47000000000E+01 0. -1.
         -5    1    1    2    0  502 -0.32671892158E+02  0.55767307887E+00  0.20966107524E+02  0.39107942942E+02  0.47000000000E+01 0. -1.
        -11    1    3    3    0    0  0.41840608204E+02 -0.99742685062E+01 -0.93382941858E+02  0.10281291921E+03  0.00000000000E+00 0. -1.
         11    1    3    3    0    0 -0.34595697100E+02  0.40324401705E+02 -0.89620678416E+02  0.10418630251E+03  0.00000000000E+00 0.  1.
<mgrwt>
<rscale>  0 0.11992714E+03</rscale>
<asrwt>0</asrwt>
<pdfrwt beam="2">  1        2 0.49008910E-01 0.12883190E+03</pdfrwt>
<pdfrwt beam="1">  1       -2 0.70124516E-02 0.12883190E+03</pdfrwt>
<totfact> 0.11199312E+04</totfact>
</mgrwt>
</event>
<event>
 7    1  0.1254976E-005  0.2076398E+03  0.7546771E-02  0.1146521E+00
         -1   -1    0    0    0  501 -0.00000000000E+00  0.00000000000E+00  0.69606598137E+02  0.69606598137E+02  0.00000000000E+00 0.  1.
          1   -1    0    0  501    0  0.00000000000E+00 -0.00000000000E+00 -0.65518075301E+03  0.65518075301E+03  0.00000000000E+00 0. -1.
         23    2    1    2    0    0 -0.16133673523E+03  0.38211331178E+02 -0.40899161629E+03  0.45221500946E+03  0.98664201347E+02 0.  0.
          5    1    1    2  502    0  0.10283957644E+03 -0.83494969888E+02 -0.10042987620E+03  0.16629984520E+03  0.47000000000E+01 0.  1.
         -5    1    1    2    0  502  0.58497158784E+02  0.45283638710E+02 -0.76152662379E+02  0.10627249648E+03  0.47000000000E+01 0.  1.
        -11    1    3    3    0    0 -0.10939277898E+03  0.43405360320E+01 -0.34963466002E+03  0.36637414734E+03  0.00000000000E+00 0. -1.
         11    1    3    3    0    0 -0.51943956242E+02  0.33870795146E+02 -0.59356956263E+02  0.85840862127E+02  0.00000000000E+00 0.  1.
<mgrwt>
<rscale>  0 0.20386198E+03</rscale>
<asrwt>0</asrwt>
<pdfrwt beam="2">  1        1 0.10079704E+00 0.20763980E+03</pdfrwt>
<pdfrwt beam="1">  1       -1 0.10708708E-01 0.20763980E+03</pdfrwt>
<totfact> 0.16936434E+03</totfact>
</mgrwt>
</event>
<event>
 7    1  0.1254976E-005  0.1284332E+03  0.7546771E-02  0.1243651E+00
         -1   -1    0    0    0  501 -0.00000000000E+00  0.00000000000E+00  0.62560015783E+03  0.62560015783E+03  0.00000000000E+00 0.  1.
          1   -1    0    0  501    0  0.00000000000E+00 -0.00000000000E+00 -0.22614639257E+02  0.22614639257E+02  0.00000000000E+00 0. -1.
         23    2    1    2    0    0  0.22804474163E+02  0.18738524561E+02  0.16011466244E+03  0.18709693886E+03  0.92181251122E+02 0.  0.
          5    1    1    2  502    0 -0.32128857209E+02  0.24168727561E+02  0.39059424330E+03  0.39268606260E+03  0.47000000000E+01 0. -1.
         -5    1    1    2    0  502  0.93243830464E+01 -0.42907252122E+02  0.52276612830E+02  0.68431795627E+02  0.47000000000E+01 0. -1.
        -11    1    3    3    0    0  0.47474869826E+02 -0.23617872322E+01  0.14238100902E+03  0.15010593937E+03  0.00000000000E+00 0.  1.
         11    1    3    3    0    0 -0.24670395663E+02  0.21100311793E+02  0.17733653421E+02  0.36990999494E+02  0.00000000000E+00 0. -1.
<mgrwt>
<rscale>  0 0.11966497E+03</rscale>
<asrwt>0</asrwt>
<pdfrwt beam="2">  1        1 0.34791757E-02 0.12843319E+03</pdfrwt>
<pdfrwt beam="1">  1       -1 0.96246165E-01 0.12843319E+03</pdfrwt>
<totfact> 0.29166510E+03</totfact>
</mgrwt>
</event>
<event>
 7    1  0.1254976E-005  0.1732547E+03  0.7546771E-02  0.1181383E+00
         -2   -1    0    0    0  501 -0.00000000000E+00  0.00000000000E+00  0.20852644360E+02  0.20852644360E+02  0.00000000000E+00 0.  1.
          2   -1    0    0  501    0  0.00000000000E+00 -0.00000000000E+00 -0.12867627932E+04  0.12867627932E+04  0.00000000000E+00 0. -1.
         23    2    1    2    0    0  0.78476979036E+02 -0.90682113218E+02 -0.71023308019E+03  0.72555513732E+03  0.87277415149E+02 0.  0.
          5    1    1    2  502    0 -0.39003450774E+02  0.95864492354E+02 -0.21102842378E+03  0.23508797441E+03  0.47000000000E+01 0.  1.
         -5    1    1    2    0  502 -0.39473528262E+02 -0.51823791361E+01 -0.34464864490E+03  0.34697232587E+03  0.47000000000E+01 0.  1.
        -11    1    3    3    0    0  0.34721932250E+02 -0.91817969356E+02 -0.57771946219E+03  0.58599993947E+03  0.00000000000E+00 0.  1.
         11    1    3    3    0    0  0.43755046786E+02  0.11358561386E+01 -0.13251361801E+03  0.13955519785E+03  0.00000000000E+00 0. -1.
<mgrwt>
<rscale>  0 0.16665360E+03</rscale>
<asrwt>0</asrwt>
<pdfrwt beam="2">  1        2 0.19796347E+00 0.17325469E+03</pdfrwt>
<pdfrwt beam="1">  1       -2 0.32080997E-02 0.17325469E+03</pdfrwt>
<totfact> 0.67398542E+03</totfact>
</mgrwt>
</event>
<event>
 7    1  0.1254976E-005  0.1444169E+03  0.7546771E-02  0.1217377E+00
         -1   -1    0    0    0  501 -0.00000000000E+00  0.00000000000E+00  0.16332537680E+03  0.16332537680E+03  0.00000000000E+00 0.  1.
          1   -1    0    0  501    0  0.00000000000E+00 -0.00000000000E+00 -0.15614843396E+03  0.15614843396E+03  0.00000000000E+00 0. -1.
         23    2    1    2    0    0 -0.64473277748E+02 -0.32658125515E+02 -0.88048548836E+02  0.14648784404E+03  0.92102034690E+02 0.  0.
          5    1    1    2  502    0 -0.20743979622E+02 -0.27778801944E+01 -0.17171561376E+02  0.27476932671E+02  0.47000000000E+01 0. -1.
         -5    1    1    2    0  502  0.85217257369E+02  0.35436005710E+02  0.11239705306E+03  0.14550903405E+03  0.47000000000E+01 0. -1.
        -11    1    3    3    0    0 -0.10065373655E+02  0.71782958668E+01  0.17386091102E+02  0.21333444218E+02  0.00000000000E+00 0.  1.
         11    1    3    3    0    0 -0.54407904093E+02 -0.39836421382E+02 -0.10543463994E+03  0.12515439982E+03  0.00000000000E+00 0. -1.
<mgrwt>
<rscale>  0 0.13703389E+03</rscale>
<asrwt>0</asrwt>
<pdfrwt beam="2">  1        1 0.24022836E-01 0.14441693E+03</pdfrwt>
<pdfrwt beam="1">  1       -1 0.25126981E-01 0.14441693E+03</pdfrwt>
<totfact> 0.27007890E+03</totfact>
</mgrwt>
</event>
<event>
 7    1  0.1254976E-005  0.2700882E+03  0.7546771E-02  0.1101229E+00
         -1   -1    0    0    0  501 -0.00000000000E+00  0.00000000000E+00  0.12454305882E+03  0.12454305882E+03  0.00000000000E+00 0.  1.
          1   -1    0    0  501    0  0.00000000000E+00 -0.00000000000E+00 -0.14643054809E+03  0.14643054809E+03  0.00000000000E+00 0. -1.
         23    2    1    2    0    0 -0.62891241625E+02  0.16796212210E+02 -0.57019871144E+02  0.12572814515E+03  0.91207893084E+02 0.  0.
          5    1    1    2  502    0  0.35986245252E+02 -0.93544372688E+01  0.82188772582E+02  0.90330502503E+02  0.47000000000E+01 0.  1.
         -5    1    1    2    0  502  0.26904996374E+02 -0.74417749416E+01 -0.47056390703E+02  0.54914959256E+02  0.47000000000E+01 0.  1.
        -11    1    3    3    0    0 -0.36373195960E+02  0.43905118372E+02 -0.65531662703E+02  0.86862348691E+02  0.00000000000E+00 0. -1.
         11    1    3    3    0    0 -0.26518045666E+02 -0.27108906161E+02  0.85117915584E+01  0.38865796463E+02  0.00000000000E+00 0.  1.
<mgrwt>
<rscale>  0 0.27008820E+03</rscale>
<asrwt>0</asrwt>
<pdfrwt beam="2">  1        1 0.22527776E-01 0.27008820E+03</pdfrwt>
<pdfrwt beam="1">  1       -1 0.19160471E-01 0.27008820E+03</pdfrwt>
<totfact> 0.46977531E+03</totfact>
</mgrwt>
</event>
<event>
 7    1  0.1254976E-005  0.1331983E+03  0.7546771E-02  0.1234757E+00
         -2   -1    0    0    0  501 -0.00000000000E+00  0.00000000000E+00  0.67115941743E+02  0.67115941743E+02  0.00000000000E+00 0.  1.
          2   -1    0    0  501    0  0.00000000000E+00 -0.00000000000E+00 -0.42919520643E+03  0.42919520643E+03  0.00000000000E+00 0. -1.
         23    2    1    2    0    0 -0.39472101377E+02  0.23635675002E+02 -0.34702348837E+03  0.36226467914E+03  0.93240036209E+02 0.  0.
          5    1    1    2  502    0  0.61830308049E+02  0.21815532433E+02 -0.40457332526E+02  0.77186722977E+02  0.47000000000E+01 0. -1.
         -5    1    1    2    0  502 -0.22358206672E+02 -0.45451207435E+02  0.25401556215E+02  0.56859746051E+02  0.47000000000E+01 0. -1.
        -11    1    3    3    0    0 -0.66406450839E+02  0.31904314751E+02 -0.28064843191E+03  0.29015727519E+03  0.00000000000E+00 0. -1.
         11    1    3    3    0    0  0.26934349462E+02 -0.82686397484E+01 -0.66375056457E+02  0.72107403946E+02  0.00000000000E+00 0.  1.
<mgrwt>
<rscale>  0 0.12519995E+03</rscale>
<asrwt>0</asrwt>
<pdfrwt beam="2">  1        2 0.66030035E-01 0.13319827E+03</pdfrwt>
<pdfrwt beam="1">  1       -2 0.10325529E-01 0.13319827E+03</pdfrwt>
<totfact> 0.44856908E+03</totfact>
</mgrwt>
</event>
<event>
 7    1  0.1254976E-005  0.7271991E+03  0.7546771E-02  0.1026093E+00
          2   -1    0    0  501    0  0.00000000000E+00  0.00000000000E+00  0.79050191385E+03  0.79050191385E+03  0.00000000000E+00 0. -1.
         -2   -1    0    0    0  501 -0.00000000000E+00 -0.00000000000E+00 -0.29950948733E+03  0.29950948733E+03  0.00000000000E+00 0.  1.
         23    2    1    2    0    0  0.23265297211E+02 -0.60440936480E+02  0.32550847095E+03  0.34422088751E+03  0.91311959137E+02 0.  0.
          5    1    1    2  502    0 -0.28185092446E+03  0.23036208994E+03  0.22873288283E+03  0.42993890006E+03  0.47000000000E+01 0. -1.
         -5    1    1    2    0  502  0.25858562725E+03 -0.16992115346E+03 -0.63248927265E+02  0.31585161360E+03  0.47000000000E+01 0.  1.
        -11    1    3    3    0    0 -0.22008273954E+02 -0.62113896685E+02  0.21198449702E+03  0.22199082697E+03  0.00000000000E+00 0.  1.
         11    1    3    3    0    0  0.45273571165E+02  0.16729602051E+01  0.11352397393E+03  0.12223006054E+03  0.00000000000E+00 0. -1.
<mgrwt>
<rscale>  0 0.45550553E+03</rscale>
<asrwt>0</asrwt>
<pdfrwt beam="1">  1        2 0.12161568E+00 0.72719911E+03</pdfrwt>
<pdfrwt beam="2">  1       -2 0.46078383E-01 0.72719911E+03</pdfrwt>
<totfact> 0.15816084E+02</totfact>
</mgrwt>
</event>
<event>
 7    1  0.1254976E-005  0.1473052E+03  0.7546771E-02  0.1213827E+00
         -1   -1    0    0    0  501 -0.00000000000E+00  0.00000000000E+00  0.50675152572E+03  0.50675152572E+03  0.00000000000E+00 0.  1.
          1   -1    0    0  501    0  0.00000000000E+00 -0.00000000000E+00 -0.41103212921E+02  0.41103212921E+02  0.00000000000E+00 0. -1.
         23    2    1    2    0    0 -0.23648629561E+02 -0.74252960967E+02  0.10637746671E+03  0.15955797642E+03  0.89832190901E+02 0.  0.
          5    1    1    2  502    0 -0.36448381902E+02  0.78582240687E+02  0.20404228395E+03  0.22171828236E+03  0.47000000000E+01 0. -1.
         -5    1    1    2    0  502  0.60097011463E+02 -0.43292797198E+01  0.15522856213E+03  0.16657847986E+03  0.47000000000E+01 0. -1.
        -11    1    3    3    0    0 -0.56668698236E+02 -0.38259254115E+02  0.48530257496E+02  0.83846871008E+02  0.00000000000E+00 0.  1.
         11    1    3    3    0    0  0.33020068675E+02 -0.35993706852E+02  0.57847209218E+02  0.75711105411E+02  0.00000000000E+00 0. -1.
<mgrwt>
<rscale>  0 0.13963032E+03</rscale>
<asrwt>0</asrwt>
<pdfrwt beam="2">  1        1 0.63235716E-02 0.14730524E+03</pdfrwt>
<pdfrwt beam="1">  1       -1 0.77961769E-01 0.14730524E+03</pdfrwt>
<totfact> 0.20161430E+03</totfact>
</mgrwt>
</event>
<event>
 7    1  0.1254976E-005  0.1695512E+03  0.7546771E-02  0.1196516E+00
          1   -1    0    0  501    0  0.00000000000E+00  0.00000000000E+00  0.21434989560E+02  0.21434989560E+02  0.00000000000E+00 0. -1.
         -1   -1    0    0    0  501 -0.00000000000E+00 -0.00000000000E+00 -0.99393941974E+03  0.99393941974E+03  0.00000000000E+00 0.  1.
         23    2    1    2    0    0 -0.45791222846E+02  0.49759356492E+02 -0.27151022918E+03  0.29416675565E+03  0.90793424509E+02 0.  0.
          5    1    1    2  502    0  0.44332951015E+02 -0.82848628992E+02 -0.22286397609E+03  0.24190855237E+03  0.47000000000E+01 0. -1.
         -5    1    1    2    0  502  0.14582718305E+01  0.33089272500E+02 -0.47813022492E+03  0.47929910128E+03  0.47000000000E+01 0.  1.
        -11    1    3    3    0    0 -0.47312506343E+02  0.73925692397E+02 -0.19328290931E+03  0.21227756425E+03  0.00000000000E+00 0.  1.
         11    1    3    3    0    0  0.15212834975E+01 -0.24166335905E+02 -0.78227319869E+02  0.81889191402E+02  0.00000000000E+00 0. -1.
<mgrwt>
<rscale>  0 0.15326602E+03</rscale>
<asrwt>0</asrwt>
<pdfrwt beam="1">  1        1 0.32976912E-02 0.16955120E+03</pdfrwt>
<pdfrwt beam="2">  1       -1 0.15291373E+00 0.16955120E+03</pdfrwt>
<totfact> 0.10587129E+03</totfact>
</mgrwt>
</event>
<event>
 7    1  0.1254976E-005  0.1487587E+03  0.7546771E-02  0.1211398E+00
         -1   -1    0    0    0  501 -0.00000000000E+00  0.00000000000E+00  0.90597076225E+02  0.90597076225E+02  0.00000000000E+00 0.  1.
          1   -1    0    0  501    0  0.00000000000E+00 -0.00000000000E+00 -0.21009951710E+03  0.21009951710E+03  0.00000000000E+00 0. -1.
         23    2    1    2    0    0 -0.76354341030E+02 -0.25972592431E+02 -0.24045031125E+02  0.12394460563E+03  0.90991982017E+02 0.  0.
          5    1    1    2  502    0  0.74513604785E+02  0.61683191354E+02 -0.28925481476E+02  0.10107357158E+03  0.47000000000E+01 0.  1.
         -5    1    1    2    0  502  0.18407362457E+01 -0.35710598923E+02 -0.66531928273E+02  0.75678416111E+02  0.47000000000E+01 0.  1.
        -11    1    3    3    0    0 -0.93186474527E+02 -0.67365043453E+01 -0.29165551309E+02  0.97876089566E+02  0.00000000000E+00 0.  1.
         11    1    3    3    0    0  0.16832133496E+02 -0.19236088086E+02  0.51205201837E+01  0.26068516065E+02  0.00000000000E+00 0. -1.
<mgrwt>
<rscale>  0 0.14144452E+03</rscale>
<asrwt>0</asrwt>
<pdfrwt beam="2">  1        1 0.32323003E-01 0.14875869E+03</pdfrwt>
<pdfrwt beam="1">  1       -1 0.13938012E-01 0.14875869E+03</pdfrwt>
<totfact> 0.47922772E+03</totfact>
</mgrwt>
</event>
<event>
 7    1  0.1254976E-005  0.1263355E+03  0.7546771E-02  0.1247958E+00
         -2   -1    0    0    0  501 -0.00000000000E+00  0.00000000000E+00  0.52144342668E+02  0.52144342668E+02  0.00000000000E+00 0.  1.
          2   -1    0    0  501    0  0.00000000000E+00 -0.00000000000E+00 -0.23730149728E+03  0.23730149728E+03  0.00000000000E+00 0. -1.
         23    2    1    2    0    0 -0.12458516165E+02 -0.13523399384E+02 -0.10197479939E+03  0.13818457619E+03  0.91422209717E+02 0.  0.
          5    1    1    2  502    0  0.82557199769E+01 -0.55742070445E+02 -0.41932080862E+02  0.70396908563E+02  0.47000000000E+01 0.  1.
         -5    1    1    2    0  502  0.42027961878E+01  0.69265469829E+02 -0.41250274357E+02  0.80864355194E+02  0.47000000000E+01 0.  1.
        -11    1    3    3    0    0  0.80696620683E+01 -0.42277855584E+02 -0.17214889350E+02  0.46356109997E+02  0.00000000000E+00 0.  1.
         11    1    3    3    0    0 -0.20528178233E+02  0.28754456200E+02 -0.84759910042E+02  0.91828466192E+02  0.00000000000E+00 0. -1.
<mgrwt>
<rscale>  0 0.11710078E+03</rscale>
<asrwt>0</asrwt>
<pdfrwt beam="2">  1        2 0.36507922E-01 0.12633553E+03</pdfrwt>
<pdfrwt beam="1">  1       -2 0.80222066E-02 0.12633553E+03</pdfrwt>
<totfact> 0.12425995E+04</totfact>
</mgrwt>
</event>
<event>
 7    1  0.1254976E-005  0.3838684E+03  0.7546771E-02  0.1050463E+00
          1   -1    0    0  501    0  0.00000000000E+00  0.00000000000E+00  0.55102180156E+03  0.55102180156E+03  0.00000000000E+00 0. -1.
         -1   -1    0    0    0  501 -0.00000000000E+00 -0.00000000000E+00 -0.32788275851E+03  0.32788275851E+03  0.00000000000E+00 0.  1.
         23    2    1    2    0    0  0.36077689468E+03  0.38231809464E+02  0.30984063647E+03  0.48536665230E+03  0.89207220352E+02 0.  0.
          5    1    1    2  502    0 -0.17309521682E+03 -0.80021604814E+02 -0.55693287574E+02  0.19871900665E+03  0.47000000000E+01 0. -1.
         -5    1    1    2    0  502 -0.18768167787E+03  0.41789795350E+02 -0.31008305847E+02  0.19481890112E+03  0.47000000000E+01 0. -1.
        -11    1    3    3    0    0  0.22373726772E+03  0.41555903718E+02  0.24279797460E+03  0.33277036311E+03  0.00000000000E+00 0.  1.
         11    1    3    3    0    0  0.13703962697E+03 -0.33240942539E+01  0.67042661876E+02  0.15259628919E+03  0.00000000000E+00 0. -1.
<mgrwt>
<rscale>  0 0.38127600E+03</rscale>
<asrwt>0</asrwt>
<pdfrwt beam="1">  1        1 0.84772585E-01 0.38386836E+03</pdfrwt>
<pdfrwt beam="2">  1       -1 0.50443501E-01 0.38386836E+03</pdfrwt>
<totfact> 0.15944575E+02</totfact>
</mgrwt>
</event>
<event>
 7    1  0.1254976E-005  0.2307909E+03  0.7546771E-02  0.1129154E+00
         -1   -1    0    0    0  501 -0.00000000000E+00  0.00000000000E+00  0.15381774873E+03  0.15381774873E+03  0.00000000000E+00 0.  1.
          1   -1    0    0  501    0  0.00000000000E+00 -0.00000000000E+00 -0.32198759611E+03  0.32198759611E+03  0.00000000000E+00 0. -1.
         23    2    1    2    0    0 -0.19380456985E+03  0.89787589108E+01 -0.71551814583E+02  0.22560642415E+03  0.90209572889E+02 0.  0.
          5    1    1    2  502    0  0.14998465586E+03 -0.57279240790E+02 -0.44741157534E+02  0.16673382859E+03  0.47000000000E+01 0. -1.
         -5    1    1    2    0  502  0.43819913985E+02  0.48300481879E+02 -0.51876875270E+02  0.83465092100E+02  0.47000000000E+01 0. -1.
        -11    1    3    3    0    0 -0.60794854936E+02  0.46720853630E+01  0.19893141880E+02  0.64137195622E+02  0.00000000000E+00 0.  1.
         11    1    3    3    0    0 -0.13300971491E+03  0.43066735478E+01 -0.91444956464E+02  0.16146922853E+03  0.00000000000E+00 0. -1.
<mgrwt>
<rscale>  0 0.22646280E+03</rscale>
<asrwt>0</asrwt>
<pdfrwt beam="2">  1        1 0.49536553E-01 0.23079093E+03</pdfrwt>
<pdfrwt beam="1">  1       -1 0.23664269E-01 0.23079093E+03</pdfrwt>
<totfact> 0.12202489E+03</totfact>
</mgrwt>
</event>
<event>
 7    1  0.1254976E-005  0.1373639E+03  0.7546771E-02  0.1229120E+00
         -2   -1    0    0    0  501 -0.00000000000E+00  0.00000000000E+00  0.13777888317E+03  0.13777888317E+03  0.00000000000E+00 0.  1.
          2   -1    0    0  501    0  0.00000000000E+00 -0.00000000000E+00 -0.11179419450E+03  0.11179419450E+03  0.00000000000E+00 0. -1.
         23    2    1    2    0    0 -0.45025201019E+02  0.34875576861E+02 -0.11788070502E+02  0.10711040603E+03  0.89945015897E+02 0.  0.
          5    1    1    2  502    0  0.46934272496E+02 -0.10661009182E+02 -0.38795104530E+02  0.61997041760E+02  0.47000000000E+01 0. -1.
         -5    1    1    2    0  502 -0.19090714765E+01 -0.24214567678E+02  0.76567863696E+02  0.80465629884E+02  0.47000000000E+01 0. -1.
        -11    1    3    3    0    0 -0.65782436310E+02  0.29728968258E+02 -0.30810773824E+02  0.78488497656E+02  0.00000000000E+00 0. -1.
         11    1    3    3    0    0  0.20757235291E+02  0.51466086026E+01  0.19022703323E+02  0.28621908370E+02  0.00000000000E+00 0.  1.
<mgrwt>
<rscale>  0 0.12888452E+03</rscale>
<asrwt>0</asrwt>
<pdfrwt beam="2">  1        2 0.17199107E-01 0.13736387E+03</pdfrwt>
<pdfrwt beam="1">  1       -2 0.21196751E-01 0.13736387E+03</pdfrwt>
<totfact> 0.59841606E+03</totfact>
</mgrwt>
</event>
<event>
 7    1  0.1254976E-005  0.3796160E+03  0.7546771E-02  0.1054954E+00
          1   -1    0    0  501    0  0.00000000000E+00  0.00000000000E+00  0.62668021214E+03  0.62668021214E+03  0.00000000000E+00 0. -1.
         -1   -1    0    0    0  501 -0.00000000000E+00 -0.00000000000E+00 -0.20749597857E+03  0.20749597857E+03  0.00000000000E+00 0.  1.
         23    2    1    2    0    0  0.29432505185E+03  0.14323828024E+03  0.17114770098E+03  0.38071128754E+03  0.92223141560E+02 0.  0.
          5    1    1    2  502    0 -0.20094619246E+02 -0.77204709958E+02  0.11876542184E+03  0.14314914036E+03  0.47000000000E+01 0. -1.
         -5    1    1    2    0  502 -0.27423043260E+03 -0.66033570280E+02  0.12927111075E+03  0.31031576280E+03  0.47000000000E+01 0.  1.
        -11    1    3    3    0    0  0.22116952367E+03  0.14740320144E+03  0.12178777207E+03  0.29236265736E+03  0.00000000000E+00 0.  1.
         11    1    3    3    0    0  0.73155528176E+02 -0.41649212067E+01  0.49359928911E+02  0.88348630173E+02  0.00000000000E+00 0. -1.
<mgrwt>
<rscale>  0 0.36931875E+03</rscale>
<asrwt>0</asrwt>
<pdfrwt beam="1">  1        1 0.96412340E-01 0.37961599E+03</pdfrwt>
<pdfrwt beam="2">  1       -1 0.31922458E-01 0.37961599E+03</pdfrwt>
<totfact> 0.30322949E+02</totfact>
</mgrwt>
</event>
<event>
 7    1  0.1254976E-005  0.1355598E+03  0.7546771E-02  0.1232035E+00
          2   -1    0    0  501    0  0.00000000000E+00  0.00000000000E+00  0.32773257284E+03  0.32773257284E+03  0.00000000000E+00 0. -1.
         -2   -1    0    0    0  501 -0.00000000000E+00 -0.00000000000E+00 -0.45575376475E+02  0.45575376475E+02  0.00000000000E+00 0.  1.
         23    2    1    2    0    0  0.52449995298E+02  0.69903080851E+00  0.15899450745E+03  0.19015363421E+03  0.90153538756E+02 0.  0.
          5    1    1    2  502    0 -0.29848590231E+02 -0.19544089796E+02  0.14293227747E+03  0.14739279401E+03  0.47000000000E+01 0.  1.
         -5    1    1    2    0  502 -0.22601405068E+02  0.18845058988E+02 -0.19769588558E+02  0.35761521095E+02  0.47000000000E+01 0.  1.
        -11    1    3    3    0    0  0.47804214379E+02 -0.28962090847E+02  0.43514427308E+02  0.70834673731E+02  0.00000000000E+00 0.  1.
         11    1    3    3    0    0  0.46457809189E+01  0.29661121655E+02  0.11548008015E+03  0.11931896047E+03  0.00000000000E+00 0. -1.
<mgrwt>
<rscale>  0 0.12696164E+03</rscale>
<asrwt>0</asrwt>
<pdfrwt beam="1">  1        2 0.50420394E-01 0.13555978E+03</pdfrwt>
<pdfrwt beam="2">  1       -2 0.70115966E-02 0.13555978E+03</pdfrwt>
<totfact> 0.10912424E+04</totfact>
</mgrwt>
</event>
<event>
 7    1  0.1254976E-005  0.1608555E+03  0.7546771E-02  0.1195532E+00
          1   -1    0    0  501    0  0.00000000000E+00  0.00000000000E+00  0.75020329114E+03  0.75020329114E+03  0.00000000000E+00 0. -1.
         -1   -1    0    0    0  501 -0.00000000000E+00 -0.00000000000E+00 -0.35302048004E+02  0.35302048004E+02  0.00000000000E+00 0.  1.
         23    2    1    2    0    0  0.74335352615E+02  0.68703120223E+02  0.49404709003E+03  0.51228189779E+03  0.90024175972E+02 0.  0.
          5    1    1    2  502    0 -0.74747989747E+02  0.12277477306E+02  0.77262366137E+02  0.10830310079E+03  0.47000000000E+01 0. -1.
         -5    1    1    2    0  502  0.41263713130E+00 -0.80980597530E+02  0.14359178697E+03  0.16492034056E+03  0.47000000000E+01 0. -1.
        -11    1    3    3    0    0  0.77563840352E+02  0.14413098911E+02  0.33605786421E+03  0.34519382215E+03  0.00000000000E+00 0. -1.
         11    1    3    3    0    0 -0.32284877369E+01  0.54290021313E+02  0.15798922582E+03  0.16708807564E+03  0.00000000000E+00 0.  1.
<mgrwt>
<rscale>  0 0.15409271E+03</rscale>
<asrwt>0</asrwt>
<pdfrwt beam="1">  1        1 0.11541588E+00 0.16085550E+03</pdfrwt>
<pdfrwt beam="2">  1       -1 0.54310849E-02 0.16085550E+03</pdfrwt>
<totfact> 0.38762389E+03</totfact>
</mgrwt>
</event>
<event>
 7    1  0.1254976E-005  0.1255906E+03  0.7546771E-02  0.1249309E+00
          2   -1    0    0  501    0  0.00000000000E+00  0.00000000000E+00  0.52698803871E+02  0.52698803871E+02  0.00000000000E+00 0. -1.
         -2   -1    0    0    0  501 -0.00000000000E+00 -0.00000000000E+00 -0.24950203051E+03  0.24950203051E+03  0.00000000000E+00 0.  1.
         23    2    1    2    0    0  0.89984938673E+00  0.12144014425E+02 -0.38401346784E+02  0.10005198273E+03  0.91583016970E+02 0.  0.
          5    1    1    2  502    0 -0.34645061747E+02 -0.12175052189E+02 -0.16355295801E+03  0.16769070419E+03  0.47000000000E+01 0. -1.
         -5    1    1    2    0  502  0.33745212361E+02  0.31037763708E-01  0.51510781514E+01  0.34458147465E+02  0.47000000000E+01 0. -1.
        -11    1    3    3    0    0 -0.39854022008E+02 -0.11057435752E+02 -0.32872109098E+02  0.52831671488E+02  0.00000000000E+00 0.  1.
         11    1    3    3    0    0  0.40753871395E+02  0.23201450177E+02 -0.55292376859E+01  0.47220311238E+02  0.00000000000E+00 0. -1.
<mgrwt>
<rscale>  0 0.11631160E+03</rscale>
<asrwt>0</asrwt>
<pdfrwt beam="1">  1        2 0.81075083E-02 0.12559062E+03</pdfrwt>
<pdfrwt beam="2">  1       -2 0.38384928E-01 0.12559062E+03</pdfrwt>
<totfact> 0.50899835E+03</totfact>
</mgrwt>
</event>
<event>
 7    1  0.1254976E-005  0.1520776E+03  0.7546771E-02  0.1211191E+00
         -1   -1    0    0    0  501 -0.00000000000E+00  0.00000000000E+00  0.30755060233E+02  0.30755060233E+02  0.00000000000E+00 0.  1.
          1   -1    0    0  501    0  0.00000000000E+00 -0.00000000000E+00 -0.69143785873E+03  0.69143785873E+03  0.00000000000E+00 0. -1.
         23    2    1    2    0    0  0.63613008436E+02 -0.28203185528E+02 -0.43704668472E+03  0.45174754538E+03  0.90686303329E+02 0.  0.
          5    1    1    2  502    0  0.18387821221E+01  0.72461234459E+02 -0.98694403917E+02  0.12254259253E+03  0.47000000000E+01 0. -1.
         -5    1    1    2    0  502 -0.65451790558E+02 -0.44258048931E+02 -0.12494170986E+03  0.14790278106E+03  0.47000000000E+01 0.  1.
        -11    1    3    3    0    0  0.32095442271E+02  0.30626373489E+02 -0.22901347686E+03  0.23327079704E+03  0.00000000000E+00 0. -1.
         11    1    3    3    0    0  0.31517566165E+02 -0.58829559017E+02 -0.20803320786E+03  0.21847674834E+03  0.00000000000E+00 0.  1.
<mgrwt>
<rscale>  0 0.14160118E+03</rscale>
<asrwt>0</asrwt>
<pdfrwt beam="2">  1        1 0.10637506E+00 0.15207757E+03</pdfrwt>
<pdfrwt beam="1">  1       -1 0.47315476E-02 0.15207757E+03</pdfrwt>
<totfact> 0.53430446E+03</totfact>
</mgrwt>
</event>
<event>
 7    1  0.1254976E-005  0.1414630E+03  0.7546771E-02  0.1222124E+00
         -2   -1    0    0    0  501 -0.00000000000E+00  0.00000000000E+00  0.10594789043E+03  0.10594789043E+03  0.00000000000E+00 0.  1.
          2   -1    0    0  501    0  0.00000000000E+00 -0.00000000000E+00 -0.16339486401E+03  0.16339486401E+03  0.00000000000E+00 0. -1.
         23    2    1    2    0    0 -0.62511001530E+02  0.21901895648E+02 -0.60296271614E+02  0.12785108785E+03  0.91230159208E+02 0.  0.
          5    1    1    2  502    0  0.63193201159E+02 -0.50342716213E+02  0.43322804819E+02  0.91797195849E+02  0.47000000000E+01 0.  1.
         -5    1    1    2    0  502 -0.68219962864E+00  0.28440820565E+02 -0.40473506785E+02  0.49694470741E+02  0.47000000000E+01 0.  1.
        -11    1    3    3    0    0 -0.61481254663E+01  0.20615202106E+02 -0.67657264455E+02  0.70995009953E+02  0.00000000000E+00 0. -1.
         11    1    3    3    0    0 -0.56362876064E+02  0.12866935415E+01  0.73609928416E+01  0.56856077899E+02  0.00000000000E+00 0.  1.
<mgrwt>
<rscale>  0 0.13365998E+03</rscale>
<asrwt>0</asrwt>
<pdfrwt beam="2">  1        2 0.25137671E-01 0.14146297E+03</pdfrwt>
<pdfrwt beam="1">  1       -2 0.16299676E-01 0.14146297E+03</pdfrwt>
<totfact> 0.60741998E+03</totfact>
</mgrwt>
</event>
<event>
 7    1  0.1254976E-005  0.1528757E+03  0.7546771E-02  0.1206240E+00
         -1   -1    0    0    0  501 -0.00000000000E+00  0.00000000000E+00  0.77054620627E+02  0.77054620627E+02  0.00000000000E+00 0.  1.
          1   -1    0    0  501    0  0.00000000000E+00 -0.00000000000E+00 -0.25111952338E+03  0.25111952338E+03  0.00000000000E+00 0. -1.
         23    2    1    2    0    0 -0.84768442454E+02 -0.23683499148E+02 -0.71695190980E+02  0.14418900424E+03  0.88902595947E+02 0.  0.
          5    1    1    2  502    0  0.21621209575E+02  0.69767242051E+02 -0.61757056113E+02  0.95765175020E+02  0.47000000000E+01 0.  1.
         -5    1    1    2    0  502  0.63147232879E+02 -0.46083742902E+02 -0.40612655658E+02  0.88219964746E+02  0.47000000000E+01 0.  1.
        -11    1    3    3    0    0 -0.48200945032E+02 -0.55654807002E+02 -0.27734502449E+02  0.78676497574E+02  0.00000000000E+00 0.  1.
         11    1    3    3    0    0 -0.36567497422E+02  0.31971307854E+02 -0.43960688531E+02  0.65512506667E+02  0.00000000000E+00 0. -1.
<mgrwt>
<rscale>  0 0.14540155E+03</rscale>
<asrwt>0</asrwt>
<pdfrwt beam="2">  1        1 0.38633773E-01 0.15287568E+03</pdfrwt>
<pdfrwt beam="1">  1       -1 0.11854557E-01 0.15287568E+03</pdfrwt>
<totfact> 0.49461781E+03</totfact>
</mgrwt>
</event>
<event>
 7    1  0.1254976E-005  0.2111409E+03  0.7546771E-02  0.1170162E+00
         -1   -1    0    0    0  501 -0.00000000000E+00  0.00000000000E+00  0.31855549665E+03  0.31855549665E+03  0.00000000000E+00 0.  1.
          1   -1    0    0  501    0  0.00000000000E+00 -0.00000000000E+00 -0.17182734333E+03  0.17182734333E+03  0.00000000000E+00 0. -1.
         23    2    1    2    0    0 -0.10576994818E+02  0.53344550599E+02 -0.11363620955E+03  0.15516636959E+03  0.90586424105E+02 0.  0.
          5    1    1    2  502    0  0.11010203212E+02  0.46938793408E+02 -0.76264524883E+01  0.49038022788E+02  0.47000000000E+01 0. -1.
         -5    1    1    2    0  502 -0.43320839414E+00 -0.10028334401E+03  0.26799081536E+03  0.28617844760E+03  0.47000000000E+01 0.  1.
        -11    1    3    3    0    0  0.22040066516E+02  0.24882953005E+02  0.34434024647E+00  0.33242208898E+02  0.00000000000E+00 0.  1.
         11    1    3    3    0    0 -0.32617061333E+02  0.28461597594E+02 -0.11398054980E+03  0.12192416069E+03  0.00000000000E+00 0. -1.
<mgrwt>
<rscale>  0 0.17758403E+03</rscale>
<asrwt>0</asrwt>
<pdfrwt beam="2">  1        1 0.26434976E-01 0.21114090E+03</pdfrwt>
<pdfrwt beam="1">  1       -1 0.49008538E-01 0.21114090E+03</pdfrwt>
<totfact> 0.75962365E+02</totfact>
</mgrwt>
</event>
<event>
 7    1  0.1254976E-005  0.1361182E+03  0.7546771E-02  0.1230722E+00
          1   -1    0    0  501    0  0.00000000000E+00  0.00000000000E+00  0.12838667467E+03  0.12838667467E+03  0.00000000000E+00 0. -1.
         -1   -1    0    0    0  501 -0.00000000000E+00 -0.00000000000E+00 -0.12068389210E+03  0.12068389210E+03  0.00000000000E+00 0.  1.
         23    2    1    2    0    0  0.41115383138E+02 -0.34848212796E+02  0.32469814783E+02  0.11071749520E+03  0.91099957224E+02 0.  0.
          5    1    1    2  502    0  0.11235492630E+02 -0.27666771204E+02 -0.44998749545E+02  0.54209445525E+02  0.47000000000E+01 0. -1.
         -5    1    1    2    0  502 -0.52350875768E+02  0.62514984000E+02  0.20231717325E+02  0.84143626045E+02  0.47000000000E+01 0. -1.
        -11    1    3    3    0    0 -0.43572434470E+01  0.26471726499E+02 -0.21088763742E+01  0.26910689955E+02  0.00000000000E+00 0.  1.
         11    1    3    3    0    0  0.45472626585E+02 -0.61319939295E+02  0.34578691157E+02  0.83806805247E+02  0.00000000000E+00 0. -1.
<mgrwt>
<rscale>  0 0.12782305E+03</rscale>
<asrwt>0</asrwt>
<pdfrwt beam="1">  1        1 0.19751796E-01 0.13611821E+03</pdfrwt>
<pdfrwt beam="2">  1       -1 0.18566753E-01 0.13611821E+03</pdfrwt>
<totfact> 0.56301570E+03</totfact>
</mgrwt>
</event>
<event>
 7    1  0.1254976E-005  0.1587594E+03  0.7546771E-02  0.1198030E+00
         -1   -1    0    0    0  501 -0.00000000000E+00  0.00000000000E+00  0.24056704211E+02  0.24056704211E+02  0.00000000000E+00 0.  1.
          1   -1    0    0  501    0  0.00000000000E+00 -0.00000000000E+00 -0.88761432048E+03  0.88761432048E+03  0.00000000000E+00 0. -1.
         23    2    1    2    0    0  0.82458106688E+02  0.52729794863E+02 -0.38398696526E+03  0.40650516191E+03  0.90668001781E+02 0.  0.
          5    1    1    2  502    0 -0.44638972500E+02 -0.88749285893E+02 -0.23754048965E+03  0.25752018918E+03  0.47000000000E+01 0.  1.
         -5    1    1    2    0  502 -0.37819134189E+02  0.36019491030E+02 -0.24203016135E+03  0.24764567359E+03  0.47000000000E+01 0.  1.
        -11    1    3    3    0    0  0.82666662875E+02  0.64273211612E+01 -0.19437269885E+03  0.21131926951E+03  0.00000000000E+00 0.  1.
         11    1    3    3    0    0 -0.20855618701E+00  0.46302473702E+02 -0.18961426641E+03  0.19518589240E+03  0.00000000000E+00 0. -1.
<mgrwt>
<rscale>  0 0.15200520E+03</rscale>
<asrwt>0</asrwt>
<pdfrwt beam="2">  1        1 0.13655604E+00 0.15875938E+03</pdfrwt>
<pdfrwt beam="1">  1       -1 0.37010316E-02 0.15875938E+03</pdfrwt>
<totfact> 0.52832210E+03</totfact>
</mgrwt>
</event>
<event>
 7    1  0.1254976E-005  0.1361769E+03  0.7546771E-02  0.1231710E+00
         -2   -1    0    0    0  501 -0.00000000000E+00  0.00000000000E+00  0.12310430348E+03  0.12310430348E+03  0.00000000000E+00 0.  1.
          2   -1    0    0  501    0  0.00000000000E+00 -0.00000000000E+00 -0.28297676849E+03  0.28297676849E+03  0.00000000000E+00 0. -1.
         23    2    1    2    0    0 -0.31219290782E+02  0.44093048224E+02 -0.23048093181E+03  0.25268710184E+03  0.88376866256E+02 0.  0.
          5    1    1    2  502    0  0.72427632536E+02 -0.42356042051E+02  0.73689750472E+02  0.11176790943E+03  0.47000000000E+01 0. -1.
         -5    1    1    2    0  502 -0.41208341754E+02 -0.17370061730E+01 -0.30812836746E+01  0.41626060703E+02  0.47000000000E+01 0. -1.
        -11    1    3    3    0    0  0.26089393169E+02 -0.62004486600E+01 -0.49424818305E+02  0.56230904883E+02  0.00000000000E+00 0.  1.
         11    1    3    3    0    0 -0.57308683950E+02  0.50293496884E+02 -0.18105611350E+03  0.19645619695E+03  0.00000000000E+00 0. -1.
<mgrwt>
<rscale>  0 0.12717423E+03</rscale>
<asrwt>0</asrwt>
<pdfrwt beam="2">  1        2 0.43534887E-01 0.13617692E+03</pdfrwt>
<pdfrwt beam="1">  1       -2 0.18939124E-01 0.13617692E+03</pdfrwt>
<totfact> 0.26123227E+03</totfact>
</mgrwt>
</event>
<event>
 7    1  0.1254976E-005  0.1633808E+03  0.7546771E-02  0.1192099E+00
          2   -1    0    0  501    0  0.00000000000E+00  0.00000000000E+00  0.31184755959E+02  0.31184755959E+02  0.00000000000E+00 0. -1.
         -2   -1    0    0    0  501 -0.00000000000E+00 -0.00000000000E+00 -0.74275506611E+03  0.74275506611E+03  0.00000000000E+00 0.  1.
         23    2    1    2    0    0  0.10053332841E+03 -0.31002276770E+02 -0.36749283771E+03  0.39304274283E+03  0.91452286129E+02 0.  0.
          5    1    1    2  502    0 -0.65633681564E+01 -0.25717208688E+02 -0.92352330038E+01  0.28492668406E+02  0.47000000000E+01 0. -1.
         -5    1    1    2    0  502 -0.93969960256E+02  0.56719485458E+02 -0.33484223943E+03  0.35240441083E+03  0.47000000000E+01 0. -1.
        -11    1    3    3    0    0  0.11836081506E+02  0.29375563992E+02 -0.71414202380E+02  0.78121731208E+02  0.00000000000E+00 0. -1.
         11    1    3    3    0    0  0.88697246906E+02 -0.60377840763E+02 -0.29607863533E+03  0.31492101163E+03  0.00000000000E+00 0.  1.
<mgrwt>
<rscale>  0 0.15702338E+03</rscale>
<asrwt>0</asrwt>
<pdfrwt beam="1">  1        2 0.47976551E-02 0.16338078E+03</pdfrwt>
<pdfrwt beam="2">  1       -2 0.11427000E+00 0.16338078E+03</pdfrwt>
<totfact> 0.10161620E+03</totfact>
</mgrwt>
</event>
<event>
 7    1  0.1254976E-005  0.1255625E+03  0.7546771E-02  0.1249074E+00
          2   -1    0    0  501    0  0.00000000000E+00  0.00000000000E+00  0.10736085366E+03  0.10736085366E+03  0.00000000000E+00 0. -1.
         -2   -1    0    0    0  501 -0.00000000000E+00 -0.00000000000E+00 -0.11758547359E+03  0.11758547359E+03  0.00000000000E+00 0.  1.
         23    2    1    2    0    0  0.10163013149E+02 -0.18403280359E+01  0.21703365922E+02  0.95388111942E+02  0.92310249506E+02 0.  0.
          5    1    1    2  502    0  0.25831843409E+02 -0.53372214499E+02 -0.15694014494E+02  0.61516416552E+02  0.47000000000E+01 0. -1.
         -5    1    1    2    0  502 -0.35994856558E+02  0.55212542535E+02 -0.16233971360E+02  0.68041798756E+02  0.47000000000E+01 0. -1.
        -11    1    3    3    0    0  0.25191250878E+02 -0.42571366051E+02  0.12045456707E+02  0.50911819409E+02  0.00000000000E+00 0.  1.
         11    1    3    3    0    0 -0.15028237730E+02  0.40731038015E+02  0.96579092151E+01  0.44476292533E+02  0.00000000000E+00 0. -1.
<mgrwt>
<rscale>  0 0.11644819E+03</rscale>
<asrwt>0</asrwt>
<pdfrwt beam="1">  1        2 0.16517054E-01 0.12556247E+03</pdfrwt>
<pdfrwt beam="2">  1       -2 0.18090073E-01 0.12556247E+03</pdfrwt>
<totfact> 0.81364808E+03</totfact>
</mgrwt>
</event>
<event>
 7    1  0.1254976E-005  0.1342561E+03  0.7546771E-02  0.1233632E+00
          1   -1    0    0  501    0  0.00000000000E+00  0.00000000000E+00  0.13784170745E+03  0.13784170745E+03  0.00000000000E+00 0. -1.
         -1   -1    0    0    0  501 -0.00000000000E+00 -0.00000000000E+00 -0.11343507604E+03  0.11343507604E+03  0.00000000000E+00 0.  1.
         23    2    1    2    0    0  0.67073670840E+00  0.48980717942E+02  0.48848556989E+02  0.11481390278E+03  0.91632364010E+02 0.  0.
          5    1    1    2  502    0 -0.22468224047E+02 -0.34729497164E+02  0.45506596149E+02  0.61675759891E+02  0.47000000000E+01 0.  1.
         -5    1    1    2    0  502  0.21797487338E+02 -0.14251220778E+02 -0.69948521733E+02  0.74787120820E+02  0.47000000000E+01 0.  1.
        -11    1    3    3    0    0 -0.24353330133E+02  0.94896413835E+01 -0.19073866830E+02  0.32356612585E+02  0.00000000000E+00 0.  1.
         11    1    3    3    0    0  0.25024066841E+02  0.39491076559E+02  0.67922423819E+02  0.82457290196E+02  0.00000000000E+00 0. -1.
<mgrwt>
<rscale>  0 0.12592406E+03</rscale>
<asrwt>0</asrwt>
<pdfrwt beam="1">  1        1 0.21206416E-01 0.13425614E+03</pdfrwt>
<pdfrwt beam="2">  1       -1 0.17451550E-01 0.13425614E+03</pdfrwt>
<totfact> 0.56721152E+03</totfact>
</mgrwt>
</event>
<event>
 7    1  0.1254976E-005  0.1821695E+03  0.7546771E-02  0.1171054E+00
          2   -1    0    0  501    0  0.00000000000E+00  0.00000000000E+00  0.10905050576E+04  0.10905050576E+04  0.00000000000E+00 0. -1.
         -2   -1    0    0    0  501 -0.00000000000E+00 -0.00000000000E+00 -0.28325360552E+02  0.28325360552E+02  0.00000000000E+00 0.  1.
         23    2    1    2    0    0 -0.54283436709E+02  0.12093937632E+03  0.61965095547E+03  0.64027277585E+03  0.91700036171E+02 0.  0.
          5    1    1    2  502    0 -0.12907125224E+02 -0.11282420828E+03  0.25685838650E+03  0.28088114314E+03  0.47000000000E+01 0.  1.
         -5    1    1    2    0  502  0.67190561933E+02 -0.81151680468E+01  0.18567035504E+03  0.19767649912E+03  0.47000000000E+01 0.  1.
        -11    1    3    3    0    0 -0.73902182055E+02  0.66831487337E+02  0.32033636441E+03  0.33547483747E+03  0.00000000000E+00 0.  1.
         11    1    3    3    0    0  0.19618745345E+02  0.54107888987E+02  0.29931459106E+03  0.30479793838E+03  0.00000000000E+00 0. -1.
<mgrwt>
<rscale>  0 0.17668134E+03</rscale>
<asrwt>0</asrwt>
<pdfrwt beam="1">  1        2 0.16776998E+00 0.18216951E+03</pdfrwt>
<pdfrwt beam="2">  1       -2 0.43577486E-02 0.18216951E+03</pdfrwt>
<totfact> 0.55124778E+03</totfact>
</mgrwt>
</event>
<event>
 7    1  0.1254976E-005  0.1371150E+03  0.7546771E-02  0.1229332E+00
          1   -1    0    0  501    0  0.00000000000E+00  0.00000000000E+00  0.51526300719E+02  0.51526300719E+02  0.00000000000E+00 0. -1.
         -1   -1    0    0    0  501 -0.00000000000E+00 -0.00000000000E+00 -0.32036785030E+03  0.32036785030E+03  0.00000000000E+00 0.  1.
         23    2    1    2    0    0  0.54762872739E+02  0.13209409394E+02 -0.60694093759E+02  0.12264351978E+03  0.90466563982E+02 0.  0.
          5    1    1    2  502    0 -0.58840312890E+02  0.43946847025E+02 -0.79454344686E+02  0.10829861806E+03  0.47000000000E+01 0.  1.
         -5    1    1    2    0  502  0.40774401510E+01 -0.57156256419E+02 -0.12869311113E+03  0.14095201318E+03  0.47000000000E+01 0.  1.
        -11    1    3    3    0    0  0.12787947959E+02  0.11724307371E+02 -0.75988857853E+02  0.77944194871E+02  0.00000000000E+00 0.  1.
         11    1    3    3    0    0  0.41974924780E+02  0.14851020222E+01  0.15294764093E+02  0.44699324905E+02  0.00000000000E+00 0. -1.
<mgrwt>
<rscale>  0 0.12874333E+03</rscale>
<asrwt>0</asrwt>
<pdfrwt beam="1">  1        1 0.79271231E-02 0.13711497E+03</pdfrwt>
<pdfrwt beam="2">  1       -1 0.49287362E-01 0.13711497E+03</pdfrwt>
<totfact> 0.35708572E+03</totfact>
</mgrwt>
</event>
<event>
 7    1  0.1254976E-005  0.1326223E+03  0.7546771E-02  0.1235867E+00
         -2   -1    0    0    0  501 -0.00000000000E+00  0.00000000000E+00  0.22721287026E+02  0.22721287026E+02  0.00000000000E+00 0.  1.
          2   -1    0    0  501    0  0.00000000000E+00 -0.00000000000E+00 -0.73377293524E+03  0.73377293524E+03  0.00000000000E+00 0. -1.
         23    2    1    2    0    0  0.43957912843E+02  0.41293953380E+01 -0.47217101863E+03  0.48326789502E+03  0.93021704578E+02 0.  0.
          5    1    1    2  502    0  0.26216398371E+02  0.36746162867E+02 -0.12724789067E+03  0.13509883682E+03  0.47000000000E+01 0.  1.
         -5    1    1    2    0  502 -0.70174311214E+02 -0.40875558205E+02 -0.11163273891E+03  0.13812749042E+03  0.47000000000E+01 0.  1.
        -11    1    3    3    0    0 -0.24558696683E+02 -0.16737112159E+02 -0.10247034549E+03  0.10669316853E+03  0.00000000000E+00 0.  1.
         11    1    3    3    0    0  0.68516609526E+02  0.20866507497E+02 -0.36970067314E+03  0.37657472649E+03  0.00000000000E+00 0. -1.
<mgrwt>
<rscale>  0 0.12449097E+03</rscale>
<asrwt>0</asrwt>
<pdfrwt beam="2">  1        2 0.11288813E+00 0.13262229E+03</pdfrwt>
<pdfrwt beam="1">  1       -2 0.34955829E-02 0.13262229E+03</pdfrwt>
<totfact> 0.12699522E+04</totfact>
</mgrwt>
</event>
<event>
 7    1  0.1254976E-005  0.1638622E+03  0.7546771E-02  0.1193006E+00
         -1   -1    0    0    0  501 -0.00000000000E+00  0.00000000000E+00  0.56965688629E+02  0.56965688629E+02  0.00000000000E+00 0.  1.
          1   -1    0    0  501    0  0.00000000000E+00 -0.00000000000E+00 -0.49589867830E+03  0.49589867830E+03  0.00000000000E+00 0. -1.
         23    2    1    2    0    0  0.50438695159E+02 -0.93173649460E+02 -0.32832723046E+03  0.35516646813E+03  0.84374515668E+02 0.  0.
          5    1    1    2  502    0 -0.42404268751E+01 -0.18173521810E+02  0.14351087157E+02  0.24006287044E+02  0.47000000000E+01 0.  1.
         -5    1    1    2    0  502 -0.46198268284E+02  0.11134717127E+03 -0.12495684637E+03  0.17369161176E+03  0.47000000000E+01 0.  1.
        -11    1    3    3    0    0  0.62812085340E+02 -0.27914347436E+02 -0.17845869361E+03  0.19123826548E+03  0.00000000000E+00 0.  1.
         11    1    3    3    0    0 -0.12373390181E+02 -0.65259302024E+02 -0.14986853685E+03  0.16392820265E+03  0.00000000000E+00 0. -1.
<mgrwt>
<rscale>  0 0.15624179E+03</rscale>
<asrwt>0</asrwt>
<pdfrwt beam="2">  1        1 0.76292104E-01 0.16386221E+03</pdfrwt>
<pdfrwt beam="1">  1       -1 0.87639521E-02 0.16386221E+03</pdfrwt>
<totfact> 0.33445368E+03</totfact>
</mgrwt>
</event>
<event>
 7    1  0.1254976E-005  0.1250164E+03  0.7546771E-02  0.1252249E+00
         -2   -1    0    0    0  501 -0.00000000000E+00  0.00000000000E+00  0.65069987186E+02  0.65069987186E+02  0.00000000000E+00 0.  1.
          2   -1    0    0  501    0  0.00000000000E+00 -0.00000000000E+00 -0.18124960410E+03  0.18124960410E+03  0.00000000000E+00 0. -1.
         23    2    1    2    0    0 -0.15502890789E+01  0.10344268902E+01 -0.71214129510E+02  0.11346258893E+03  0.88311003903E+02 0.  0.
          5    1    1    2  502    0  0.19508564155E+02  0.30344990709E+02  0.31514266808E+02  0.48131502667E+02  0.47000000000E+01 0. -1.
         -5    1    1    2    0  502 -0.17958275076E+02 -0.31379417599E+02 -0.76479754214E+02  0.84725499687E+02  0.47000000000E+01 0. -1.
        -11    1    3    3    0    0 -0.19896074526E+02 -0.38662377556E+02 -0.26509347458E+02  0.50925226779E+02  0.00000000000E+00 0. -1.
         11    1    3    3    0    0  0.18345785447E+02  0.39696804447E+02 -0.44704782052E+02  0.62537362155E+02  0.00000000000E+00 0.  1.
<mgrwt>
<rscale>  0 0.11461804E+03</rscale>
<asrwt>0</asrwt>
<pdfrwt beam="2">  1        2 0.27884555E-01 0.12501635E+03</pdfrwt>
<pdfrwt beam="1">  1       -2 0.10010767E-01 0.12501635E+03</pdfrwt>
<totfact> 0.11757469E+04</totfact>
</mgrwt>
</event>
<event>
 6    1  0.1254976E-005  0.1395063E+03  0.7546771E-02  0.1243505E+00
          1   -1    0    0  501    0  0.00000000000E+00  0.00000000000E+00  0.19617718628E+03  0.19617718628E+03  0.00000000000E+00 0. -1.
         -1   -1    0    0    0  501 -0.00000000000E+00 -0.00000000000E+00 -0.59742247542E+02  0.59742247542E+02  0.00000000000E+00 0.  1.
          5    1    1    2  502    0 -0.68596625615E+01  0.28797589113E+02  0.65771625408E+02  0.72279684683E+02  0.47000000000E+01 0. -1.
         -5    1    1    2    0  502  0.59679240688E+02 -0.61195460402E+02  0.92121920344E+01  0.86101397346E+02  0.47000000000E+01 0. -1.
        -11    1    1    2    0    0 -0.18350163633E+02  0.78760397684E+01  0.49810093029E+02  0.53663822780E+02  0.00000000000E+00 0. -1.
         11    1    1    2    0    0 -0.34469414493E+02  0.24521831521E+02  0.11641028262E+02  0.43874529008E+02  0.00000000000E+00 0.  1.
<mgrwt>
<rscale>  0 0.11975275E+03</rscale>
<asrwt>0</asrwt>
<pdfrwt beam="1">  1        1 0.30181105E-01 0.13950625E+03</pdfrwt>
<pdfrwt beam="2">  1       -1 0.91911151E-02 0.13950625E+03</pdfrwt>
<totfact> 0.98683293E+03</totfact>
</mgrwt>
</event>
<event>
 7    1  0.1254976E-005  0.1262543E+03  0.7546771E-02  0.1241331E+00
          2   -1    0    0  501    0  0.00000000000E+00  0.00000000000E+00  0.42030154086E+02  0.42030154086E+02  0.00000000000E+00 0. -1.
         -2   -1    0    0    0  501 -0.00000000000E+00 -0.00000000000E+00 -0.32306121476E+03  0.32306121476E+03  0.00000000000E+00 0.  1.
         23    2    1    2    0    0  0.48299753770E+02  0.27123988356E+02 -0.13068360835E+03  0.16876382697E+03  0.91293191666E+02 0.  0.
          5    1    1    2  502    0 -0.54018755932E+00  0.36750770160E+02 -0.16751450618E+02  0.40664628460E+02  0.47000000000E+01 0. -1.
         -5    1    1    2    0  502 -0.47759566211E+02 -0.63874758517E+02 -0.13359600170E+03  0.15566291341E+03  0.47000000000E+01 0.  1.
        -11    1    3    3    0    0  0.72494928439E+02  0.11775737873E+02 -0.11399245244E+03  0.13560406287E+03  0.00000000000E+00 0. -1.
         11    1    3    3    0    0 -0.24195174668E+02  0.15348250483E+02 -0.16691155908E+02  0.33159764108E+02  0.00000000000E+00 0.  1.
<mgrwt>
<rscale>  0 0.12107713E+03</rscale>
<asrwt>0</asrwt>
<pdfrwt beam="1">  1        2 0.64661775E-02 0.12625430E+03</pdfrwt>
<pdfrwt beam="2">  1       -2 0.49701726E-01 0.12625430E+03</pdfrwt>
<totfact> 0.41243958E+03</totfact>
</mgrwt>
</event>
<event>
 7    1  0.1254976E-005  0.1317608E+03  0.7546771E-02  0.1241295E+00
         -2   -1    0    0    0  501 -0.00000000000E+00  0.00000000000E+00  0.26933698992E+02  0.26933698992E+02  0.00000000000E+00 0.  1.
          2   -1    0    0  501    0  0.00000000000E+00 -0.00000000000E+00 -0.47321362837E+03  0.47321362837E+03  0.00000000000E+00 0. -1.
         23    2    1    2    0    0  0.12957949085E+02  0.39603573820E+02 -0.18308031015E+03  0.20580915926E+03  0.84277271958E+02 0.  0.
          5    1    1    2  502    0 -0.10552861128E+02  0.32648356117E+02 -0.18306268226E+03  0.18630972511E+03  0.47000000000E+01 0.  1.
         -5    1    1    2    0  502 -0.24050879569E+01 -0.72251929937E+02 -0.80136936981E+02  0.10802844300E+03  0.47000000000E+01 0.  1.
        -11    1    3    3    0    0 -0.28080709622E+02  0.12599764591E+02 -0.12953923627E+03  0.13314538690E+03  0.00000000000E+00 0. -1.
         11    1    3    3    0    0  0.41038658707E+02  0.27003809230E+02 -0.53541073880E+02  0.72663772360E+02  0.00000000000E+00 0.  1.
<mgrwt>
<rscale>  0 0.12109890E+03</rscale>
<asrwt>0</asrwt>
<pdfrwt beam="2">  1        2 0.72802098E-01 0.13176083E+03</pdfrwt>
<pdfrwt beam="1">  1       -2 0.41436460E-02 0.13176083E+03</pdfrwt>
<totfact> 0.16242448E+04</totfact>
</mgrwt>
</event>
<event>
 7    1  0.1254976E-005  0.1688994E+03  0.7546771E-02  0.1186909E+00
         -1   -1    0    0    0  501 -0.00000000000E+00  0.00000000000E+00  0.27140630210E+03  0.27140630210E+03  0.00000000000E+00 0.  1.
          1   -1    0    0  501    0  0.00000000000E+00 -0.00000000000E+00 -0.93659591931E+02  0.93659591931E+02  0.00000000000E+00 0. -1.
         23    2    1    2    0    0 -0.93888036826E+02 -0.25255977891E+02  0.39843650700E+02  0.14701942664E+03  0.10283174330E+03 0.  0.
          5    1    1    2  502    0 -0.23995418443E+02  0.78772244953E+01  0.82776105059E+02  0.86670665976E+02  0.47000000000E+01 0. -1.
         -5    1    1    2    0  502  0.11788345527E+03  0.17378753396E+02  0.55126954414E+02  0.13137580142E+03  0.47000000000E+01 0.  1.
        -11    1    3    3    0    0 -0.94227754870E+02 -0.56536941020E+02  0.35238255076E+02  0.11539943721E+03  0.00000000000E+00 0. -1.
         11    1    3    3    0    0  0.33971804351E+00  0.31280963129E+02  0.46053956237E+01  0.31619989428E+02  0.00000000000E+00 0.  1.
<mgrwt>
<rscale>  0 0.16159339E+03</rscale>
<asrwt>0</asrwt>
<pdfrwt beam="2">  1        1 0.14409168E-01 0.16889940E+03</pdfrwt>
<pdfrwt beam="1">  1       -1 0.41754815E-01 0.16889940E+03</pdfrwt>
<totfact> 0.22019434E+03</totfact>
</mgrwt>
</event>
<event>
 7    1  0.1254976E-005  0.1784697E+03  0.7546771E-02  0.1191063E+00
         -2   -1    0    0    0  501 -0.00000000000E+00  0.00000000000E+00  0.57862460079E+02  0.57862460079E+02  0.00000000000E+00 0.  1.
          2   -1    0    0  501    0  0.00000000000E+00 -0.00000000000E+00 -0.52718310510E+03  0.52718310510E+03  0.00000000000E+00 0. -1.
         23    2    1    2    0    0  0.52713258099E+02  0.32292154928E+02 -0.35883180212E+03  0.37514264650E+03  0.90278857764E+02 0.  0.
          5    1    1    2  502    0  0.44156557188E+01  0.21494256531E+01 -0.13758202141E+03  0.13774984813E+03  0.47000000000E+01 0. -1.
         -5    1    1    2    0  502 -0.57128913818E+02 -0.34441580581E+02  0.27093178513E+02  0.72153070544E+02  0.47000000000E+01 0.  1.
        -11    1    3    3    0    0  0.76024064739E+02  0.10783102178E+02 -0.23067121465E+03  0.24311549309E+03  0.00000000000E+00 0. -1.
         11    1    3    3    0    0 -0.23310806639E+02  0.21509052750E+02 -0.12816058748E+03  0.13202715341E+03  0.00000000000E+00 0.  1.
<mgrwt>
<rscale>  0 0.15792218E+03</rscale>
<asrwt>0</asrwt>
<pdfrwt beam="2">  1        2 0.81105087E-01 0.17846975E+03</pdfrwt>
<pdfrwt beam="1">  1       -2 0.89019176E-02 0.17846975E+03</pdfrwt>
<totfact> 0.45829349E+03</totfact>
</mgrwt>
</event>
<event>
 7    1  0.1254976E-005  0.3038609E+03  0.7546771E-02  0.1084920E+00
         -2   -1    0    0    0  501 -0.00000000000E+00  0.00000000000E+00  0.83911165900E+02  0.83911165900E+02  0.00000000000E+00 0.  1.
          2   -1    0    0  501    0  0.00000000000E+00 -0.00000000000E+00 -0.10567103661E+04  0.10567103661E+04  0.00000000000E+00 0. -1.
         23    2    1    2    0    0 -0.12753442377E+03  0.24584364862E+03 -0.49946260088E+03  0.57814577597E+03  0.89919518327E+02 0.  0.
          5    1    1    2  502    0 -0.14863380545E+02 -0.93814244048E+02 -0.16203479251E+03  0.18788133609E+03  0.47000000000E+01 0.  1.
         -5    1    1    2    0  502  0.14239780432E+03 -0.15202940457E+03 -0.31130180680E+03  0.37459441993E+03  0.47000000000E+01 0.  1.
        -11    1    3    3    0    0 -0.19148986750E+02  0.13393766956E+03 -0.22470018758E+03  0.26229021582E+03  0.00000000000E+00 0. -1.
         11    1    3    3    0    0 -0.10838543702E+03  0.11190597906E+03 -0.27476241330E+03  0.31585556014E+03  0.00000000000E+00 0.  1.
<mgrwt>
<rscale>  0 0.30064152E+03</rscale>
<asrwt>0</asrwt>
<pdfrwt beam="2">  1        2 0.16257084E+00 0.30386089E+03</pdfrwt>
<pdfrwt beam="1">  1       -2 0.12909409E-01 0.30386089E+03</pdfrwt>
<totfact> 0.10642148E+03</totfact>
</mgrwt>
</event>
<event>
 7    1  0.1254976E-005  0.1127714E+03  0.7546771E-02  0.1264720E+00
          1   -1    0    0  501    0  0.00000000000E+00  0.00000000000E+00  0.34086033656E+03  0.34086033656E+03  0.00000000000E+00 0. -1.
         -1   -1    0    0    0  501 -0.00000000000E+00 -0.00000000000E+00 -0.54977306562E+02  0.54977306562E+02  0.00000000000E+00 0.  1.
         23    2    1    2    0    0 -0.37534680015E+01  0.19759288959E+02  0.26490741090E+03  0.28113211116E+03  0.91950038381E+02 0.  0.
          5    1    1    2  502    0  0.31156611988E+01  0.47679351070E+01  0.64284973575E+02  0.64707714976E+02  0.47000000000E+01 0. -1.
         -5    1    1    2    0  502  0.63780680266E+00 -0.24527224066E+02 -0.43309354473E+02  0.49997816980E+02  0.47000000000E+01 0.  1.
        -11    1    3    3    0    0 -0.19990402491E+02  0.47623450065E+02  0.21913606587E+03  0.22514045517E+03  0.00000000000E+00 0. -1.
         11    1    3    3    0    0  0.16236934490E+02 -0.27864161107E+02  0.45771345021E+02  0.55991655993E+02  0.00000000000E+00 0.  1.
<mgrwt>
<rscale>  0 0.10778895E+03</rscale>
<asrwt>0</asrwt>
<pdfrwt beam="1">  1        1 0.52440051E-01 0.11277137E+03</pdfrwt>
<pdfrwt beam="2">  1       -1 0.84580473E-02 0.11277137E+03</pdfrwt>
<totfact> 0.55706674E+03</totfact>
</mgrwt>
</event>
<event>
 7    1  0.1254976E-005  0.1488365E+03  0.7546771E-02  0.1211124E+00
          2   -1    0    0  501    0  0.00000000000E+00  0.00000000000E+00  0.32636821061E+03  0.32636821061E+03  0.00000000000E+00 0. -1.
         -2   -1    0    0    0  501 -0.00000000000E+00 -0.00000000000E+00 -0.64474883404E+02  0.64474883404E+02  0.00000000000E+00 0.  1.
         23    2    1    2    0    0  0.62120782251E+02 -0.51670527512E+02  0.18924811261E+03  0.22522415188E+03  0.91554549106E+02 0.  0.
          5    1    1    2  502    0  0.33570554021E+02  0.11146421130E+02 -0.46989723576E+01  0.35991598221E+02  0.47000000000E+01 0. -1.
         -5    1    1    2    0  502 -0.95691336272E+02  0.40524106381E+02  0.77344186958E+02  0.12962734392E+03  0.47000000000E+01 0. -1.
        -11    1    3    3    0    0  0.10037909024E+02 -0.57896935058E+02  0.14551336523E+03  0.15692977464E+03  0.00000000000E+00 0. -1.
         11    1    3    3    0    0  0.52082873227E+02  0.62264075467E+01  0.43734747380E+02  0.68294377242E+02  0.00000000000E+00 0.  1.
<mgrwt>
<rscale>  0 0.14165135E+03</rscale>
<asrwt>0</asrwt>
<pdfrwt beam="1">  1        2 0.50210493E-01 0.14883651E+03</pdfrwt>
<pdfrwt beam="2">  1       -2 0.99192130E-02 0.14883651E+03</pdfrwt>
<totfact> 0.64401432E+03</totfact>
</mgrwt>
</event>
<event>
 7    1  0.1254976E-005  0.1380004E+03  0.7546771E-02  0.1227003E+00
          4   -1    0    0  501    0  0.00000000000E+00  0.00000000000E+00  0.16409938581E+03  0.16409938581E+03  0.00000000000E+00 0. -1.
         -4   -1    0    0    0  501 -0.00000000000E+00 -0.00000000000E+00 -0.12498429657E+03  0.12498429657E+03  0.00000000000E+00 0.  1.
         23    2    1    2    0    0 -0.34907010114E+02  0.46907633534E+02  0.90107370260E+02  0.14196357887E+03  0.92819686014E+02 0.  0.
          5    1    1    2  502    0  0.77963309160E+02 -0.51416870107E+02 -0.26654977702E+02  0.97234510042E+02  0.47000000000E+01 0.  1.
         -5    1    1    2    0  502 -0.43056299046E+02  0.45092365727E+01 -0.24337303317E+02  0.49885593459E+02  0.47000000000E+01 0.  1.
        -11    1    3    3    0    0 -0.46550770442E+02  0.19854678767E+02  0.99010756038E+02  0.11119492933E+03  0.00000000000E+00 0. -1.
         11    1    3    3    0    0  0.11643760328E+02  0.27052954767E+02 -0.89033857779E+01  0.30768649540E+02  0.00000000000E+00 0.  1.
<mgrwt>
<rscale>  0 0.13030557E+03</rscale>
<asrwt>0</asrwt>
<pdfrwt beam="1">  1        4 0.25246059E-01 0.13800041E+03</pdfrwt>
<pdfrwt beam="2">  1       -4 0.19228353E-01 0.13800041E+03</pdfrwt>
<totfact> 0.59238099E+02</totfact>
</mgrwt>
</event>
<event>
 7    1  0.1254976E-005  0.1252154E+03  0.7546771E-02  0.1251069E+00
          2   -1    0    0  501    0  0.00000000000E+00  0.00000000000E+00  0.14284994188E+03  0.14284994188E+03  0.00000000000E+00 0. -1.
         -2   -1    0    0    0  501 -0.00000000000E+00 -0.00000000000E+00 -0.14340556526E+03  0.14340556526E+03  0.00000000000E+00 0.  1.
         23    2    1    2    0    0  0.23518677592E+01  0.69473059337E+01  0.93402126506E+02  0.12970851827E+03  0.89702542514E+02 0.  0.
          5    1    1    2  502    0  0.35878175840E+02  0.12198562559E+02 -0.10534426266E+03  0.11205156003E+03  0.47000000000E+01 0.  1.
         -5    1    1    2    0  502 -0.38230043599E+02 -0.19145868493E+02  0.11386512783E+02  0.44495428836E+02  0.47000000000E+01 0.  1.
        -11    1    3    3    0    0  0.39443566655E+02 -0.43317576597E+00  0.14170939812E+02  0.41914175727E+02  0.00000000000E+00 0.  1.
         11    1    3    3    0    0 -0.37091698896E+02  0.73804816997E+01  0.79231186693E+02  0.87794342539E+02  0.00000000000E+00 0. -1.
<mgrwt>
<rscale>  0 0.11529389E+03</rscale>
<asrwt>0</asrwt>
<pdfrwt beam="1">  1        2 0.21976914E-01 0.12521542E+03</pdfrwt>
<pdfrwt beam="2">  1       -2 0.22062395E-01 0.12521542E+03</pdfrwt>
<totfact> 0.42070963E+03</totfact>
</mgrwt>
</event>
<event>
 7    1  0.1254976E-005  0.1581971E+03  0.7546771E-02  0.1202555E+00
         -1   -1    0    0    0  501 -0.00000000000E+00  0.00000000000E+00  0.14815507957E+03  0.14815507957E+03  0.00000000000E+00 0.  1.
          1   -1    0    0  501    0  0.00000000000E+00 -0.00000000000E+00 -0.32351178371E+03  0.32351178371E+03  0.00000000000E+00 0. -1.
         23    2    1    2    0    0  0.20399105125E+02  0.80409647848E+02 -0.26357265155E+03  0.29053607367E+03  0.89771000329E+02 0.  0.
          5    1    1    2  502    0  0.47439749161E+02 -0.24981785435E+02 -0.38508689842E+01  0.53958674890E+02  0.47000000000E+01 0. -1.
         -5    1    1    2    0  502 -0.67838854286E+02 -0.55427862412E+02  0.92066816397E+02  0.12717211473E+03  0.47000000000E+01 0.  1.
        -11    1    3    3    0    0  0.42934515163E+02  0.82519117472E+02 -0.16515537558E+03  0.18954966479E+03  0.00000000000E+00 0. -1.
         11    1    3    3    0    0 -0.22535410038E+02 -0.21094696244E+01 -0.98417275973E+02  0.10098640888E+03  0.00000000000E+00 0.  1.
<mgrwt>
<rscale>  0 0.14831841E+03</rscale>
<asrwt>0</asrwt>
<pdfrwt beam="2">  1        1 0.49771043E-01 0.15819706E+03</pdfrwt>
<pdfrwt beam="1">  1       -1 0.22793089E-01 0.15819706E+03</pdfrwt>
<totfact> 0.12822628E+03</totfact>
</mgrwt>
</event>
<event>
 7    1  0.1254976E-005  0.1558966E+03  0.7546771E-02  0.1198695E+00
          2   -1    0    0  501    0  0.00000000000E+00  0.00000000000E+00  0.77739024621E+03  0.77739024621E+03  0.00000000000E+00 0. -1.
         -2   -1    0    0    0  501 -0.00000000000E+00 -0.00000000000E+00 -0.28912435991E+02  0.28912435991E+02  0.00000000000E+00 0.  1.
         23    2    1    2    0    0  0.61036425233E+02  0.70357581843E+02  0.42702640320E+03  0.44904263067E+03  0.10301505039E+03 0.  0.
          5    1    1    2  502    0 -0.36591812698E+02 -0.88121804170E+02  0.31035905588E+03  0.32472949773E+03  0.47000000000E+01 0. -1.
         -5    1    1    2    0  502 -0.24444612535E+02  0.17764222327E+02  0.11092351145E+02  0.32530553804E+02  0.47000000000E+01 0. -1.
        -11    1    3    3    0    0  0.48330961400E+02  0.97497369766E+02  0.34147460444E+03  0.35839436996E+03  0.00000000000E+00 0.  1.
         11    1    3    3    0    0  0.12705463833E+02 -0.27139787923E+02  0.85551798758E+02  0.90648260714E+02  0.00000000000E+00 0. -1.
<mgrwt>
<rscale>  0 0.15145637E+03</rscale>
<asrwt>0</asrwt>
<pdfrwt beam="1">  1        2 0.11959848E+00 0.15589656E+03</pdfrwt>
<pdfrwt beam="2">  1       -2 0.44480677E-02 0.15589656E+03</pdfrwt>
<totfact> 0.83521592E+03</totfact>
</mgrwt>
</event>
<event>
 7    1  0.1254976E-005  0.1382701E+03  0.7546771E-02  0.1227054E+00
          3   -1    0    0  501    0  0.00000000000E+00  0.00000000000E+00  0.16000540116E+02  0.16000540116E+02  0.00000000000E+00 0. -1.
         -3   -1    0    0    0  501 -0.00000000000E+00 -0.00000000000E+00 -0.10033446806E+04  0.10033446806E+04  0.00000000000E+00 0.  1.
         23    2    1    2    0    0 -0.49594713965E+02 -0.32165228048E+02 -0.32669721329E+03  0.34438374750E+03  0.91514254741E+02 0.  0.
          5    1    1    2  502    0 -0.90717608716E+01  0.12704463555E+02 -0.53107264477E+03  0.53132282490E+03  0.47000000000E+01 0. -1.
         -5    1    1    2    0  502  0.58666474837E+02  0.19460764493E+02 -0.12957428243E+03  0.14363864832E+03  0.47000000000E+01 0. -1.
        -11    1    3    3    0    0 -0.29059107792E+02  0.12753770922E+02 -0.30223383173E+02  0.43824003797E+02  0.00000000000E+00 0. -1.
         11    1    3    3    0    0 -0.20535606173E+02 -0.44918998970E+02 -0.29647383011E+03  0.30055974370E+03  0.00000000000E+00 0.  1.
<mgrwt>
<rscale>  0 0.13027122E+03</rscale>
<asrwt>0</asrwt>
<pdfrwt beam="1">  1        3 0.24616216E-02 0.13827013E+03</pdfrwt>
<pdfrwt beam="2">  1       -3 0.15436072E+00 0.13827013E+03</pdfrwt>
<totfact> 0.51447320E+02</totfact>
</mgrwt>
</event>
<event>
 7    1  0.1254976E-005  0.1526735E+03  0.7546771E-02  0.1205638E+00
         -1   -1    0    0    0  501 -0.00000000000E+00  0.00000000000E+00  0.34783862499E+03  0.34783862499E+03  0.00000000000E+00 0.  1.
          1   -1    0    0  501    0  0.00000000000E+00 -0.00000000000E+00 -0.56749495257E+02  0.56749495257E+02  0.00000000000E+00 0. -1.
         23    2    1    2    0    0 -0.72221596503E+02 -0.49714764145E+02  0.11471227250E+03  0.17131144796E+03  0.92201897842E+02 0.  0.
          5    1    1    2  502    0 -0.16476685417E+02  0.51432712860E+02  0.10913888636E+03  0.12186136234E+03  0.47000000000E+01 0.  1.
         -5    1    1    2    0  502  0.88698281920E+02 -0.17179487148E+01  0.67237970870E+02  0.11141530994E+03  0.47000000000E+01 0.  1.
        -11    1    3    3    0    0 -0.79036992110E+01 -0.60203973970E+02  0.67794476089E+02  0.91011416488E+02  0.00000000000E+00 0.  1.
         11    1    3    3    0    0 -0.64317897292E+02  0.10489209825E+02  0.46917796412E+02  0.80300031476E+02  0.00000000000E+00 0. -1.
<mgrwt>
<rscale>  0 0.14587281E+03</rscale>
<asrwt>0</asrwt>
<pdfrwt beam="2">  1        1 0.87306918E-02 0.15267354E+03</pdfrwt>
<pdfrwt beam="1">  1       -1 0.53513633E-01 0.15267354E+03</pdfrwt>
<totfact> 0.27123670E+03</totfact>
</mgrwt>
</event>
<event>
 7    1  0.1254976E-005  0.1414305E+03  0.7546771E-02  0.1222298E+00
         -2   -1    0    0    0  501 -0.00000000000E+00  0.00000000000E+00  0.19718425488E+04  0.19718425488E+04  0.00000000000E+00 0.  1.
          2   -1    0    0  501    0  0.00000000000E+00 -0.00000000000E+00 -0.99268185752E+01  0.99268185752E+01  0.00000000000E+00 0. -1.
         23    2    1    2    0    0  0.66455274584E+01 -0.65841715109E+02  0.47395668538E+03  0.48710395116E+03  0.90862671850E+02 0.  0.
          5    1    1    2  502    0  0.27756108255E+02  0.92991254043E+02  0.10592798417E+04  0.10637263031E+04  0.47000000000E+01 0.  1.
         -5    1    1    2    0  502 -0.34401635714E+02 -0.27149538934E+02  0.42867920316E+03  0.43093911313E+03  0.47000000000E+01 0.  1.
        -11    1    3    3    0    0 -0.39271409459E+02 -0.15845632442E+02  0.23064479321E+03  0.23450020961E+03  0.00000000000E+00 0. -1.
         11    1    3    3    0    0  0.45916936917E+02 -0.49996082667E+02  0.24331189217E+03  0.25260374156E+03  0.00000000000E+00 0.  1.
<mgrwt>
<rscale>  0 0.13353822E+03</rscale>
<asrwt>0</asrwt>
<pdfrwt beam="2">  1        2 0.15272044E-02 0.14143050E+03</pdfrwt>
<pdfrwt beam="1">  1       -2 0.30336008E+00 0.14143050E+03</pdfrwt>
<totfact> 0.27740713E+02</totfact>
</mgrwt>
</event>
<event>
 7    1  0.1254976E-005  0.1407402E+03  0.7546771E-02  0.1223219E+00
         -3   -1    0    0    0  501 -0.00000000000E+00  0.00000000000E+00  0.67838484577E+02  0.67838484577E+02  0.00000000000E+00 0.  1.
          3   -1    0    0  501    0  0.00000000000E+00 -0.00000000000E+00 -0.24164608841E+03  0.24164608841E+03  0.00000000000E+00 0. -1.
         23    2    1    2    0    0 -0.12524254836E+02  0.63460038336E+02 -0.10234464645E+03  0.15164049340E+03  0.91303774056E+02 0.  0.
          5    1    1    2  502    0  0.34964743706E+02  0.58560173343E+00 -0.81755039054E+02  0.89044105041E+02  0.47000000000E+01 0.  1.
         -5    1    1    2    0  502 -0.22440488869E+02 -0.64045640070E+02  0.10292081669E+02  0.68799974547E+02  0.47000000000E+01 0.  1.
        -11    1    3    3    0    0 -0.26813910751E+02  0.13391257005E+02 -0.94307764224E+02  0.98955878890E+02  0.00000000000E+00 0. -1.
         11    1    3    3    0    0  0.14289655915E+02  0.50068781331E+02 -0.80368822254E+01  0.52684614510E+02  0.00000000000E+00 0.  1.
<mgrwt>
<rscale>  0 0.13289723E+03</rscale>
<asrwt>0</asrwt>
<pdfrwt beam="2">  1        3 0.37176322E-01 0.14074018E+03</pdfrwt>
<pdfrwt beam="1">  1       -3 0.10436690E-01 0.14074018E+03</pdfrwt>
<totfact> 0.11389488E+03</totfact>
</mgrwt>
</event>
<event>
 7    1  0.1254976E-005  0.1695095E+03  0.7546771E-02  0.1184800E+00
          1   -1    0    0  501    0  0.00000000000E+00  0.00000000000E+00  0.16738055998E+03  0.16738055998E+03  0.00000000000E+00 0. -1.
         -1   -1    0    0    0  501 -0.00000000000E+00 -0.00000000000E+00 -0.16425320435E+03  0.16425320435E+03  0.00000000000E+00 0.  1.
         23    2    1    2    0    0 -0.72534849868E+02 -0.88587039877E+02  0.51263756867E+02  0.15542199779E+03  0.91755417008E+02 0.  0.
          5    1    1    2  502    0  0.66909730194E+02 -0.54878945023E+01  0.57589535835E+01  0.67544685410E+02  0.47000000000E+01 0.  1.
         -5    1    1    2    0  502  0.56251196736E+01  0.94074934379E+02 -0.53895354823E+02  0.10866708113E+03  0.47000000000E+01 0.  1.
        -11    1    3    3    0    0 -0.29606589251E+02 -0.98136415218E+02  0.31751728979E+02  0.10731019715E+03  0.00000000000E+00 0. -1.
         11    1    3    3    0    0 -0.42928260616E+02  0.95493753406E+01  0.19512027888E+02  0.48111800644E+02  0.00000000000E+00 0.  1.
<mgrwt>
<rscale>  0 0.16350125E+03</rscale>
<asrwt>0</asrwt>
<pdfrwt beam="1">  1        1 0.25750855E-01 0.16950951E+03</pdfrwt>
<pdfrwt beam="2">  1       -1 0.25269724E-01 0.16950951E+03</pdfrwt>
<totfact> 0.24677715E+03</totfact>
</mgrwt>
</event>
<event>
 7    1  0.1254976E-005  0.1856207E+03  0.7546771E-02  0.1167936E+00
         -2   -1    0    0    0  501 -0.00000000000E+00  0.00000000000E+00  0.35064653156E+02  0.35064653156E+02  0.00000000000E+00 0. -1.
          2   -1    0    0  501    0  0.00000000000E+00 -0.00000000000E+00 -0.86969595557E+03  0.86969595557E+03  0.00000000000E+00 0.  1.
         23    2    1    2    0    0  0.13454671270E+03 -0.26949082772E+02 -0.39173902199E+03  0.42454336355E+03  0.89154558107E+02 0.  0.
          5    1    1    2  502    0 -0.14144055680E+03  0.33714450415E+02 -0.44592486941E+03  0.46905561977E+03  0.47000000000E+01 0.  1.
         -5    1    1    2    0  502  0.68938441002E+01 -0.67653676431E+01  0.30325889808E+01  0.11161625408E+02  0.47000000000E+01 0.  1.
        -11    1    3    3    0    0  0.14474369821E+03 -0.17898162501E+02 -0.37811884389E+03  0.40527144298E+03  0.00000000000E+00 0.  1.
         11    1    3    3    0    0 -0.10196985508E+02 -0.90509202706E+01 -0.13620178096E+02  0.19271920573E+02  0.00000000000E+00 0. -1.
<mgrwt>
<rscale>  0 0.17986274E+03</rscale>
<asrwt>0</asrwt>
<pdfrwt beam="2">  1        2 0.13379937E+00 0.18562066E+03</pdfrwt>
<pdfrwt beam="1">  1       -2 0.53945625E-02 0.18562066E+03</pdfrwt>
<totfact> 0.54570597E+03</totfact>
</mgrwt>
</event>
<event>
 7    1  0.1254976E-005  0.1870485E+03  0.7546771E-02  0.1169057E+00
          1   -1    0    0  501    0  0.00000000000E+00  0.00000000000E+00  0.17113045038E+03  0.17113045038E+03  0.00000000000E+00 0. -1.
         -1   -1    0    0    0  501 -0.00000000000E+00 -0.00000000000E+00 -0.17319111501E+03  0.17319111501E+03  0.00000000000E+00 0.  1.
         23    2    1    2    0    0 -0.33626102509E+02 -0.12892441067E+03  0.14542732998E+02  0.15653757148E+03  0.80872132184E+02 0.  0.
          5    1    1    2  502    0 -0.20252591749E+02  0.76787757686E+01 -0.46665990156E+02  0.51661743168E+02  0.47000000000E+01 0. -1.
         -5    1    1    2    0  502  0.53878694257E+02  0.12124563491E+03  0.30062592529E+02  0.13612225075E+03  0.47000000000E+01 0.  1.
        -11    1    3    3    0    0  0.88504168358E+01 -0.75336864192E+02 -0.22032621174E+02  0.78989932145E+02  0.00000000000E+00 0.  1.
         11    1    3    3    0    0 -0.42476519344E+02 -0.53587546483E+02  0.36575354172E+02  0.77547639335E+02  0.00000000000E+00 0. -1.
<mgrwt>
<rscale>  0 0.17871039E+03</rscale>
<asrwt>0</asrwt>
<pdfrwt beam="1">  1        1 0.26327762E-01 0.18704854E+03</pdfrwt>
<pdfrwt beam="2">  1       -1 0.26644787E-01 0.18704854E+03</pdfrwt>
<totfact> 0.22055322E+03</totfact>
</mgrwt>
</event>
<event>
 7    1  0.1254976E-005  0.1387930E+03  0.7546771E-02  0.1226850E+00
         -1   -1    0    0    0  501 -0.00000000000E+00  0.00000000000E+00  0.26945088694E+03  0.26945088694E+03  0.00000000000E+00 0.  1.
          1   -1    0    0  501    0  0.00000000000E+00 -0.00000000000E+00 -0.58709173968E+02  0.58709173968E+02  0.00000000000E+00 0. -1.
         23    2    1    2    0    0  0.59222697397E+02  0.11455747062E+02  0.61842894466E+02  0.12460576544E+03  0.89796944033E+02 0.  0.
          5    1    1    2  502    0  0.24260680799E+02 -0.14750341044E+02  0.10536992945E+03  0.10922941557E+03  0.47000000000E+01 0.  1.
         -5    1    1    2    0  502 -0.83483378196E+02  0.32945939822E+01  0.43528889055E+02  0.94324879893E+02  0.47000000000E+01 0.  1.
        -11    1    3    3    0    0  0.20228705400E+02  0.23026191366E+02 -0.17608733890E+02  0.35347892726E+02  0.00000000000E+00 0. -1.
         11    1    3    3    0    0  0.38993991997E+02 -0.11570444304E+02  0.79451628356E+02  0.89257872716E+02  0.00000000000E+00 0.  1.
<mgrwt>
<rscale>  0 0.13040925E+03</rscale>
<asrwt>0</asrwt>
<pdfrwt beam="2">  1        1 0.90321808E-02 0.13879299E+03</pdfrwt>
<pdfrwt beam="1">  1       -1 0.41453982E-01 0.13879299E+03</pdfrwt>
<totfact> 0.40920942E+03</totfact>
</mgrwt>
</event>
<event>
 7    1  0.1254976E-005  0.1783586E+03  0.7546771E-02  0.1174967E+00
          1   -1    0    0  501    0  0.00000000000E+00  0.00000000000E+00  0.38177838040E+03  0.38177838040E+03  0.00000000000E+00 0. -1.
         -1   -1    0    0    0  501 -0.00000000000E+00 -0.00000000000E+00 -0.10132487882E+03  0.10132487882E+03  0.00000000000E+00 0.  1.
         23    2    1    2    0    0  0.54785089180E+02 -0.11482928702E+03  0.25972019872E+03  0.30354363807E+03  0.92179105228E+02 0.  0.
          5    1    1    2  502    0  0.29704806013E+02  0.48251015971E+02 -0.25584912498E+02  0.62347524330E+02  0.47000000000E+01 0. -1.
         -5    1    1    2    0  502 -0.84489895193E+02  0.66578271046E+02  0.46318215362E+02  0.11721209681E+03  0.47000000000E+01 0. -1.
        -11    1    3    3    0    0  0.27343806598E+02 -0.92692754179E+02  0.96547749402E+02  0.13660563074E+03  0.00000000000E+00 0.  1.
         11    1    3    3    0    0  0.27441282582E+02 -0.22136532838E+02  0.16317244931E+03  0.16693800733E+03  0.00000000000E+00 0. -1.
<mgrwt>
<rscale>  0 0.17279168E+03</rscale>
<asrwt>0</asrwt>
<pdfrwt beam="1">  1        1 0.58735135E-01 0.17835859E+03</pdfrwt>
<pdfrwt beam="2">  1       -1 0.15588443E-01 0.17835859E+03</pdfrwt>
<totfact> 0.19220754E+03</totfact>
</mgrwt>
</event>
<event>
 7    1  0.1254976E-005  0.1625715E+03  0.7546771E-02  0.1193183E+00
         -2   -1    0    0    0  501 -0.00000000000E+00  0.00000000000E+00  0.77098860241E+02  0.77098860241E+02  0.00000000000E+00 0. -1.
          2   -1    0    0  501    0  0.00000000000E+00 -0.00000000000E+00 -0.29409431302E+03  0.29409431302E+03  0.00000000000E+00 0.  1.
         23    2    1    2    0    0 -0.42448319925E+02  0.94784186952E+02 -0.89812242204E+02  0.16478321631E+03  0.91111840975E+02 0.  0.
          5    1    1    2  502    0  0.14479145147E+02 -0.12195907313E+03 -0.90121391468E+02  0.15240609031E+03  0.47000000000E+01 0. -1.
         -5    1    1    2    0  502  0.27969174778E+02  0.27174886182E+02 -0.37061819107E+02  0.54003866642E+02  0.47000000000E+01 0. -1.
        -11    1    3    3    0    0 -0.28822028174E+02 -0.11373890913E+02 -0.23338844072E+02  0.38791446804E+02  0.00000000000E+00 0.  1.
         11    1    3    3    0    0 -0.13626291752E+02  0.10615807787E+03 -0.66473398131E+02  0.12599176950E+03  0.00000000000E+00 0. -1.
<mgrwt>
<rscale>  0 0.15609045E+03</rscale>
<asrwt>0</asrwt>
<pdfrwt beam="2">  1        2 0.45245279E-01 0.16257153E+03</pdfrwt>
<pdfrwt beam="1">  1       -2 0.11861363E-01 0.16257153E+03</pdfrwt>
<totfact> 0.54450620E+03</totfact>
</mgrwt>
</event>
<event>
 7    1  0.1254976E-005  0.1257026E+03  0.7546771E-02  0.1247037E+00
         -3   -1    0    0    0  501 -0.00000000000E+00  0.00000000000E+00  0.19610396003E+03  0.19610396003E+03  0.00000000000E+00 0.  1.
          3   -1    0    0  501    0  0.00000000000E+00 -0.00000000000E+00 -0.67853363312E+02  0.67853363312E+02  0.00000000000E+00 0. -1.
         23    2    1    2    0    0 -0.99434794320E+01  0.88338848131E+01  0.20944598292E+02  0.98682666487E+02  0.95512732990E+02 0.  0.
          5    1    1    2  502    0  0.10073437817E+02  0.17747695811E+02  0.12897196194E+03  0.13066105703E+03  0.47000000000E+01 0. -1.
         -5    1    1    2    0  502 -0.12995838486E+00 -0.26581580624E+02 -0.21665963519E+02  0.34613599825E+02  0.47000000000E+01 0. -1.
        -11    1    3    3    0    0  0.43020681205E+02  0.45401998118E+01  0.10757372382E+02  0.44577051117E+02  0.00000000000E+00 0.  1.
         11    1    3    3    0    0 -0.52964160637E+02  0.42936850013E+01  0.10187225910E+02  0.54105615371E+02  0.00000000000E+00 0. -1.
<mgrwt>
<rscale>  0 0.11764300E+03</rscale>
<asrwt>0</asrwt>
<pdfrwt beam="2">  1        3 0.10438979E-01 0.12570257E+03</pdfrwt>
<pdfrwt beam="1">  1       -3 0.30169840E-01 0.12570257E+03</pdfrwt>
<totfact> 0.16529896E+03</totfact>
</mgrwt>
</event>
<event>
 7    1  0.1254976E-005  0.1664548E+03  0.7546771E-02  0.1188111E+00
          1   -1    0    0  501    0  0.00000000000E+00  0.00000000000E+00  0.28218163389E+03  0.28218163389E+03  0.00000000000E+00 0. -1.
         -1   -1    0    0    0  501 -0.00000000000E+00 -0.00000000000E+00 -0.90339339029E+02  0.90339339029E+02  0.00000000000E+00 0.  1.
         23    2    1    2    0    0  0.10966850897E+03  0.74423234841E+01  0.13294641526E+03  0.19595390469E+03  0.92954899790E+02 0.  0.
          5    1    1    2  502    0 -0.70228918392E+01 -0.43525560790E+02 -0.12838791239E+02  0.46159722837E+02  0.47000000000E+01 0. -1.
         -5    1    1    2    0  502 -0.10264561713E+03  0.36083237306E+02  0.71734670848E+02  0.13040734539E+03  0.47000000000E+01 0. -1.
        -11    1    3    3    0    0  0.45659755670E+02 -0.90046253664E+00 -0.26827914266E+01  0.45747365941E+02  0.00000000000E+00 0.  1.
         11    1    3    3    0    0  0.64008753302E+02  0.83427860207E+01  0.13562920668E+03  0.15020653875E+03  0.00000000000E+00 0. -1.
<mgrwt>
<rscale>  0 0.16052007E+03</rscale>
<asrwt>0</asrwt>
<pdfrwt beam="1">  1        1 0.43412559E-01 0.16645481E+03</pdfrwt>
<pdfrwt beam="2">  1       -1 0.13898360E-01 0.16645481E+03</pdfrwt>
<totfact> 0.33551560E+03</totfact>
</mgrwt>
</event>
<event>
 7    1  0.1254976E-005  0.1460584E+03  0.7546771E-02  0.1214890E+00
         -3   -1    0    0    0  501 -0.00000000000E+00  0.00000000000E+00  0.30916385757E+03  0.30916385757E+03  0.00000000000E+00 0.  1.
          3   -1    0    0  501    0  0.00000000000E+00 -0.00000000000E+00 -0.60474300597E+02  0.60474300597E+02  0.00000000000E+00 0. -1.
         23    2    1    2    0    0 -0.51431823652E+02  0.55346910779E+02  0.67998421465E+02  0.13729718411E+03  0.92294194971E+02 0.  0.
          5    1    1    2  502    0  0.14200015242E+02  0.33126900157E+01 -0.16916377678E+02  0.22822536707E+02  0.47000000000E+01 0. -1.
         -5    1    1    2    0  502  0.37231808409E+02 -0.58659600794E+02  0.19760751318E+03  0.20951843735E+03  0.47000000000E+01 0. -1.
        -11    1    3    3    0    0  0.15916105916E+02 -0.10656234876E+02 -0.28293515644E+01  0.19361895556E+02  0.00000000000E+00 0. -1.
         11    1    3    3    0    0 -0.67347929568E+02  0.66003145655E+02  0.70827773029E+02  0.11793528855E+03  0.00000000000E+00 0.  1.
<mgrwt>
<rscale>  0 0.13884586E+03</rscale>
<asrwt>0</asrwt>
<pdfrwt beam="2">  1        3 0.93037387E-02 0.14605835E+03</pdfrwt>
<pdfrwt beam="1">  1       -3 0.47563670E-01 0.14605835E+03</pdfrwt>
<totfact> 0.85770276E+02</totfact>
</mgrwt>
</event>
<event>
 7    1  0.1254976E-005  0.1880388E+03  0.7546771E-02  0.1165074E+00
          2   -1    0    0  501    0  0.00000000000E+00  0.00000000000E+00  0.37840705577E+03  0.37840705577E+03  0.00000000000E+00 0. -1.
         -2   -1    0    0    0  501 -0.00000000000E+00 -0.00000000000E+00 -0.11310693019E+03  0.11310693019E+03  0.00000000000E+00 0.  1.
         23    2    1    2    0    0  0.37775493799E+02 -0.13529831224E+03  0.25209354598E+03  0.30301200651E+03  0.92371526661E+02 0.  0.
          5    1    1    2  502    0 -0.19610309380E+02  0.68911063813E+02  0.69147652051E+02  0.99683432596E+02  0.47000000000E+01 0. -1.
         -5    1    1    2    0  502 -0.18165184419E+02  0.66387248427E+02 -0.55941072453E+02  0.88818546857E+02  0.47000000000E+01 0. -1.
        -11    1    3    3    0    0  0.32414390120E+02 -0.45295906212E+02  0.17737130677E+03  0.18591124838E+03  0.00000000000E+00 0. -1.
         11    1    3    3    0    0  0.53611036796E+01 -0.90002406027E+02  0.74722239206E+02  0.11710075813E+03  0.00000000000E+00 0.  1.
<mgrwt>
<rscale>  0 0.18284872E+03</rscale>
<asrwt>0</asrwt>
<pdfrwt beam="1">  1        2 0.58216469E-01 0.18803878E+03</pdfrwt>
<pdfrwt beam="2">  1       -2 0.17401066E-01 0.18803878E+03</pdfrwt>
<totfact> 0.22343103E+03</totfact>
</mgrwt>
</event>
<event>
 7    1  0.1254976E-005  0.1270932E+03  0.7546771E-02  0.1243509E+00
         -1   -1    0    0    0  501 -0.00000000000E+00  0.00000000000E+00  0.11741664944E+03  0.11741664944E+03  0.00000000000E+00 0.  1.
          1   -1    0    0  501    0  0.00000000000E+00 -0.00000000000E+00 -0.13896579134E+03  0.13896579134E+03  0.00000000000E+00 0. -1.
         23    2    1    2    0    0 -0.45988584457E+01  0.22192882680E+02 -0.67995072422E+02  0.12106830820E+03  0.97573212695E+02 0.  0.
          5    1    1    2  502    0 -0.37055599153E+01  0.76710260134E+01 -0.41145897531E+02  0.42280618468E+02  0.47000000000E+01 0.  1.
         -5    1    1    2    0  502  0.83044183609E+01 -0.29863908694E+02  0.87591828056E+02  0.93033514117E+02  0.47000000000E+01 0.  1.
        -11    1    3    3    0    0 -0.23885422484E+02  0.52032865324E+02 -0.18553790092E+02  0.60184513023E+02  0.00000000000E+00 0.  1.
         11    1    3    3    0    0  0.19286564038E+02 -0.29839982644E+02 -0.49441282330E+02  0.60883795175E+02  0.00000000000E+00 0. -1.
<mgrwt>
<rscale>  0 0.11975046E+03</rscale>
<asrwt>0</asrwt>
<pdfrwt beam="2">  1        1 0.21379352E-01 0.12709323E+03</pdfrwt>
<pdfrwt beam="1">  1       -1 0.18064100E-01 0.12709323E+03</pdfrwt>
<totfact> 0.52958151E+03</totfact>
</mgrwt>
</event>
<event>
 7    1  0.1254976E-005  0.1523164E+03  0.7546771E-02  0.1206989E+00
         -2   -1    0    0    0  501 -0.00000000000E+00  0.00000000000E+00  0.37174048496E+02  0.37174048496E+02  0.00000000000E+00 0.  1.
          2   -1    0    0  501    0  0.00000000000E+00 -0.00000000000E+00 -0.51757358404E+03  0.51757358404E+03  0.00000000000E+00 0. -1.
         23    2    1    2    0    0 -0.59618741172E+02  0.63415218988E+02 -0.23483033305E+03  0.26577612466E+03  0.88970662692E+02 0.  0.
          5    1    1    2  502    0 -0.31804650136E+02 -0.20903147641E+02 -0.12996799553E+03  0.13550736959E+03  0.47000000000E+01 0.  1.
         -5    1    1    2    0  502  0.91423391308E+02 -0.42512071346E+02 -0.11560120697E+03  0.15346413829E+03  0.47000000000E+01 0.  1.
        -11    1    3    3    0    0 -0.19255027685E+02 -0.21648787082E+02 -0.40032079250E+02  0.49416530051E+02  0.00000000000E+00 0.  1.
         11    1    3    3    0    0 -0.40363713487E+02  0.85064006069E+02 -0.19479825380E+03  0.21635959461E+03  0.00000000000E+00 0. -1.
<mgrwt>
<rscale>  0 0.14481793E+03</rscale>
<asrwt>0</asrwt>
<pdfrwt beam="2">  1        2 0.79626707E-01 0.15231644E+03</pdfrwt>
<pdfrwt beam="1">  1       -2 0.57190843E-02 0.15231644E+03</pdfrwt>
<totfact> 0.91702736E+03</totfact>
</mgrwt>
</event>
<event>
 7    1  0.1254976E-005  0.1296121E+03  0.7546771E-02  0.1240260E+00
         -1   -1    0    0    0  501 -0.00000000000E+00  0.00000000000E+00  0.23248059994E+03  0.23248059994E+03  0.00000000000E+00 0.  1.
          1   -1    0    0  501    0  0.00000000000E+00 -0.00000000000E+00 -0.61495300254E+02  0.61495300254E+02  0.00000000000E+00 0. -1.
         23    2    1    2    0    0 -0.33583417159E+02 -0.68041227597E+01  0.36676298804E+02  0.10732597874E+03  0.94866078362E+02 0.  0.
          5    1    1    2  502    0 -0.43949031884E+01 -0.60048743688E+01 -0.22800604677E+02  0.24440361370E+02  0.47000000000E+01 0. -1.
         -5    1    1    2    0  502  0.37978320348E+02  0.12808997128E+02  0.15710960555E+03  0.16220956008E+03  0.47000000000E+01 0. -1.
        -11    1    3    3    0    0  0.27872550298E+02  0.19258077728E+02  0.89322130136E+01  0.35036224786E+02  0.00000000000E+00 0.  1.
         11    1    3    3    0    0 -0.61455967458E+02 -0.26062200487E+02  0.27744085791E+02  0.72289753954E+02  0.00000000000E+00 0. -1.
<mgrwt>
<rscale>  0 0.12173599E+03</rscale>
<asrwt>0</asrwt>
<pdfrwt beam="2">  1        1 0.94608155E-02 0.12961206E+03</pdfrwt>
<pdfrwt beam="1">  1       -1 0.35766246E-01 0.12961206E+03</pdfrwt>
<totfact> 0.49530258E+03</totfact>
</mgrwt>
</event>
<event>
 7    1  0.1254976E-005  0.1508075E+03  0.7546771E-02  0.1211284E+00
         -3   -1    0    0    0  501 -0.00000000000E+00  0.00000000000E+00  0.23771518414E+03  0.23771518414E+03  0.00000000000E+00 0.  1.
          3   -1    0    0  501    0  0.00000000000E+00 -0.00000000000E+00 -0.77730630873E+02  0.77730630873E+02  0.00000000000E+00 0. -1.
         23    2    1    2    0    0  0.61990075030E+02 -0.57221763974E+02  0.43203747220E+02  0.12470865460E+03  0.81046807986E+02 0.  0.
          5    1    1    2  502    0  0.18901400741E+02 -0.26711896563E+02  0.16747734016E+02  0.37058939039E+02  0.47000000000E+01 0. -1.
         -5    1    1    2    0  502 -0.80891475772E+02  0.83933660537E+02  0.10003307203E+03  0.15367822137E+03  0.47000000000E+01 0. -1.
        -11    1    3    3    0    0  0.48569358249E+02  0.74913731937E+01  0.29157135495E+02  0.57142294172E+02  0.00000000000E+00 0. -1.
         11    1    3    3    0    0  0.13420716781E+02 -0.64713137167E+02  0.14046611725E+02  0.67566360431E+02  0.00000000000E+00 0.  1.
<mgrwt>
<rscale>  0 0.14153067E+03</rscale>
<asrwt>0</asrwt>
<pdfrwt beam="2">  1        3 0.11958559E-01 0.15080752E+03</pdfrwt>
<pdfrwt beam="1">  1       -3 0.36571566E-01 0.15080752E+03</pdfrwt>
<totfact> 0.94603087E+02</totfact>
</mgrwt>
</event>
<event>
 7    1  0.1254976E-005  0.1302783E+03  0.7546771E-02  0.1242543E+00
          2   -1    0    0  501    0  0.00000000000E+00  0.00000000000E+00  0.83047885873E+02  0.83047885873E+02  0.00000000000E+00 0.  1.
         -2   -1    0    0    0  501 -0.00000000000E+00 -0.00000000000E+00 -0.15698886405E+03  0.15698886405E+03  0.00000000000E+00 0. -1.
         23    2    1    2    0    0 -0.25176605183E+02  0.26731721634E+02 -0.11383302652E+02  0.95517174635E+02  0.87438576618E+02 0.  0.
          5    1    1    2  502    0 -0.45014675812E+02 -0.28782276960E+02 -0.54992220567E+01  0.53917269485E+02  0.47000000000E+01 0. -1.
         -5    1    1    2    0  502  0.70191280995E+02  0.20505553262E+01 -0.57058453473E+02  0.90602305807E+02  0.47000000000E+01 0. -1.
        -11    1    3    3    0    0 -0.11710514658E+01 -0.31628296181E+02 -0.19308333500E+01  0.31708809474E+02  0.00000000000E+00 0.  1.
         11    1    3    3    0    0 -0.24005553718E+02  0.58360017815E+02 -0.94524693021E+01  0.63808365161E+02  0.00000000000E+00 0. -1.
<mgrwt>
<rscale>  0 0.12033666E+03</rscale>
<asrwt>0</asrwt>
<pdfrwt beam="1">  1        2 0.12776598E-01 0.13027834E+03</pdfrwt>
<pdfrwt beam="2">  1       -2 0.24152133E-01 0.13027834E+03</pdfrwt>
<totfact> 0.67466155E+03</totfact>
</mgrwt>
</event>
<event>
 7    1  0.1254976E-005  0.2303899E+03  0.7546771E-02  0.1130486E+00
          3   -1    0    0  501    0  0.00000000000E+00  0.00000000000E+00  0.28590392195E+03  0.28590392195E+03  0.00000000000E+00 0. -1.
         -3   -1    0    0    0  501 -0.00000000000E+00 -0.00000000000E+00 -0.18315748834E+03  0.18315748834E+03  0.00000000000E+00 0.  1.
         23    2    1    2    0    0 -0.15336768310E+03 -0.11803533868E+03  0.11598655356E+03  0.23829137360E+03  0.76654489296E+02 0.  0.
          5    1    1    2  502    0  0.11396968827E+03  0.65195529229E+02  0.48778602358E+02  0.14014631256E+03  0.47000000000E+01 0.  1.
         -5    1    1    2    0  502  0.39397994824E+02  0.52839809449E+02 -0.62018722300E+02  0.90623724126E+02  0.47000000000E+01 0.  1.
        -11    1    3    3    0    0 -0.55279456612E+02 -0.12494322101E+02  0.59300950344E+01  0.56983264519E+02  0.00000000000E+00 0. -1.
         11    1    3    3    0    0 -0.98088226486E+02 -0.10554101658E+03  0.11005645852E+03  0.18130810908E+03  0.00000000000E+00 0.  1.
<mgrwt>
<rscale>  0 0.22461877E+03</rscale>
<asrwt>0</asrwt>
<pdfrwt beam="1">  1        3 0.43985219E-01 0.23038991E+03</pdfrwt>
<pdfrwt beam="2">  1       -3 0.28178075E-01 0.23038991E+03</pdfrwt>
<totfact> 0.15400847E+02</totfact>
</mgrwt>
</event>
<event>
 7    1  0.1254976E-005  0.1543207E+03  0.7546771E-02  0.1203566E+00
          2   -1    0    0  501    0  0.00000000000E+00  0.00000000000E+00  0.21970292778E+03  0.21970292778E+03  0.00000000000E+00 0. -1.
         -2   -1    0    0    0  501 -0.00000000000E+00 -0.00000000000E+00 -0.12808989960E+03  0.12808989960E+03  0.00000000000E+00 0.  1.
         23    2    1    2    0    0  0.85593601518E+02  0.29371023923E+02  0.13588402659E+03  0.18724753228E+03  0.91696499380E+02 0.  0.
          5    1    1    2  502    0 -0.69476917701E+02 -0.40319336782E+02  0.28269086413E+02  0.85287292479E+02  0.47000000000E+01 0.  1.
         -5    1    1    2    0  502 -0.16116683817E+02  0.10948312859E+02 -0.72540084818E+02  0.75258002612E+02  0.47000000000E+01 0.  1.
        -11    1    3    3    0    0  0.11245987391E+02  0.50323163758E+02  0.56098658874E+02  0.76196801577E+02  0.00000000000E+00 0.  1.
         11    1    3    3    0    0  0.74347614127E+02 -0.20952139835E+02  0.79785367711E+02  0.11105073071E+03  0.00000000000E+00 0. -1.
<mgrwt>
<rscale>  0 0.14751030E+03</rscale>
<asrwt>0</asrwt>
<pdfrwt beam="1">  1        2 0.33800450E-01 0.15432067E+03</pdfrwt>
<pdfrwt beam="2">  1       -2 0.19706138E-01 0.15432067E+03</pdfrwt>
<totfact> 0.32193401E+03</totfact>
</mgrwt>
</event>
<event>
 7    1  0.1254976E-005  0.1505676E+03  0.7546771E-02  0.1208763E+00
         -1   -1    0    0    0  501 -0.00000000000E+00  0.00000000000E+00  0.18692659671E+02  0.18692659671E+02  0.00000000000E+00 0.  1.
          1   -1    0    0  501    0  0.00000000000E+00 -0.00000000000E+00 -0.10578858536E+04  0.10578858536E+04  0.00000000000E+00 0. -1.
         23    2    1    2    0    0  0.81235096137E+01 -0.83536996404E+02 -0.58743312522E+03  0.60038763094E+03  0.91341171474E+02 0.  0.
          5    1    1    2  502    0 -0.19611826143E+02 -0.29292193395E+02 -0.13873516750E+03  0.14322078418E+03  0.47000000000E+01 0.  1.
         -5    1    1    2    0  502  0.11488316529E+02  0.11282918980E+03 -0.31302490120E+03  0.33297009815E+03  0.47000000000E+01 0.  1.
        -11    1    3    3    0    0 -0.41179424740E+02 -0.39101778243E+02 -0.30693606190E+03  0.31214490253E+03  0.00000000000E+00 0. -1.
         11    1    3    3    0    0  0.49302934353E+02 -0.44435218161E+02 -0.28049706332E+03  0.28824272841E+03  0.00000000000E+00 0.  1.
<mgrwt>
<rscale>  0 0.14344819E+03</rscale>
<asrwt>0</asrwt>
<pdfrwt beam="2">  1        1 0.16275175E+00 0.15056758E+03</pdfrwt>
<pdfrwt beam="1">  1       -1 0.28757923E-02 0.15056758E+03</pdfrwt>
<totfact> 0.56943050E+03</totfact>
</mgrwt>
</event>
<event>
 7    1  0.1254976E-005  0.1290874E+03  0.7546771E-02  0.1242748E+00
         -2   -1    0    0    0  501 -0.00000000000E+00  0.00000000000E+00  0.52358654700E+02  0.52358654700E+02  0.00000000000E+00 0. -1.
          2   -1    0    0  501    0  0.00000000000E+00 -0.00000000000E+00 -0.25766807087E+03  0.25766807087E+03  0.00000000000E+00 0.  1.
         23    2    1    2    0    0  0.32005644111E+02  0.33129309227E+01 -0.12393147498E+03  0.15742948117E+03  0.91595274354E+02 0.  0.
          5    1    1    2  502    0 -0.59247957838E+01 -0.61311939849E+02 -0.57832724450E+02  0.84622521768E+02  0.47000000000E+01 0. -1.
         -5    1    1    2    0  502 -0.26080848327E+02  0.57999008926E+02 -0.23545216741E+02  0.67974722635E+02  0.47000000000E+01 0. -1.
        -11    1    3    3    0    0 -0.26249235163E+02 -0.13568560908E+02 -0.15945978000E+02  0.33576813520E+02  0.00000000000E+00 0.  1.
         11    1    3    3    0    0  0.58254879274E+02  0.16881491831E+02 -0.10798549698E+03  0.12385266765E+03  0.00000000000E+00 0. -1.
<mgrwt>
<rscale>  0 0.12021210E+03</rscale>
<asrwt>0</asrwt>
<pdfrwt beam="2">  1        2 0.39641240E-01 0.12908737E+03</pdfrwt>
<pdfrwt beam="1">  1       -2 0.80551779E-02 0.12908737E+03</pdfrwt>
<totfact> 0.11331981E+04</totfact>
</mgrwt>
</event>
<event>
 7    1  0.1254976E-005  0.1626434E+03  0.7546771E-02  0.1193961E+00
         -2   -1    0    0    0  501 -0.00000000000E+00  0.00000000000E+00  0.32705820373E+02  0.32705820373E+02  0.00000000000E+00 0.  1.
          2   -1    0    0  501    0  0.00000000000E+00 -0.00000000000E+00 -0.78966594701E+03  0.78966594701E+03  0.00000000000E+00 0. -1.
         23    2    1    2    0    0  0.90338077700E+02  0.51639900842E+02 -0.50160341921E+03  0.51961788035E+03  0.87000596372E+02 0.  0.
          5    1    1    2  502    0 -0.10649184335E+03 -0.68922821433E+01 -0.21546824596E+03  0.24049255970E+03  0.47000000000E+01 0. -1.
         -5    1    1    2    0  502  0.16153765650E+02 -0.44747618699E+02 -0.39888461468E+02  0.62261327341E+02  0.47000000000E+01 0. -1.
        -11    1    3    3    0    0  0.64678836903E+02 -0.77846231354E+01 -0.17662448699E+03  0.18825557550E+03  0.00000000000E+00 0.  1.
         11    1    3    3    0    0  0.25659240796E+02  0.59424523978E+02 -0.32497893222E+03  0.33136230485E+03  0.00000000000E+00 0. -1.
<mgrwt>
<rscale>  0 0.15542466E+03</rscale>
<asrwt>0</asrwt>
<pdfrwt beam="2">  1        2 0.12148707E+00 0.16264338E+03</pdfrwt>
<pdfrwt beam="1">  1       -2 0.50316645E-02 0.16264338E+03</pdfrwt>
<totfact> 0.68198927E+03</totfact>
</mgrwt>
</event>
<event>
 7    1  0.1254976E-005  0.2492691E+03  0.7546771E-02  0.1119612E+00
         -1   -1    0    0    0  501 -0.00000000000E+00  0.00000000000E+00  0.16127999381E+03  0.16127999381E+03  0.00000000000E+00 0.  1.
          1   -1    0    0  501    0  0.00000000000E+00 -0.00000000000E+00 -0.34822194434E+03  0.34822194434E+03  0.00000000000E+00 0. -1.
         23    2    1    2    0    0 -0.71611706178E+01 -0.19422998530E+03 -0.36221812547E+02  0.21820885371E+03  0.92339128101E+02 0.  0.
          5    1    1    2  502    0 -0.22989153576E+02  0.18955691980E+03 -0.16932357760E+03  0.25525064340E+03  0.47000000000E+01 0. -1.
         -5    1    1    2    0  502  0.30150324194E+02  0.46730655052E+01  0.18603439620E+02  0.36042441037E+02  0.47000000000E+01 0.  1.
        -11    1    3    3    0    0 -0.27312766412E+02 -0.14045969976E+03 -0.61149658036E+02  0.15560911009E+03  0.00000000000E+00 0.  1.
         11    1    3    3    0    0  0.20151595795E+02 -0.53770285544E+02  0.24927845489E+02  0.62599743620E+02  0.00000000000E+00 0. -1.
<mgrwt>
<rscale>  0 0.24027170E+03</rscale>
<asrwt>0</asrwt>
<pdfrwt beam="2">  1        1 0.53572606E-01 0.24926913E+03</pdfrwt>
<pdfrwt beam="1">  1       -1 0.24812307E-01 0.24926913E+03</pdfrwt>
<totfact> 0.10222438E+03</totfact>
</mgrwt>
</event>
<event>
 7    1  0.1254976E-005  0.1442296E+03  0.7546771E-02  0.1218104E+00
          1   -1    0    0  501    0  0.00000000000E+00  0.00000000000E+00  0.15551474810E+03  0.15551474810E+03  0.00000000000E+00 0. -1.
         -1   -1    0    0    0  501 -0.00000000000E+00 -0.00000000000E+00 -0.13360738761E+03  0.13360738761E+03  0.00000000000E+00 0.  1.
         23    2    1    2    0    0 -0.56144429601E+02  0.47760523171E+02  0.72152678652E+02  0.13639110170E+03  0.89237094519E+02 0.  0.
          5    1    1    2  502    0 -0.94663537857E+01  0.26939055760E+02  0.16097289958E+02  0.33114004941E+02  0.47000000000E+01 0. -1.
         -5    1    1    2    0  502  0.65610783387E+02 -0.74699578931E+02 -0.66342608120E+02  0.11961702906E+03  0.47000000000E+01 0.  1.
        -11    1    3    3    0    0  0.19986742876E+02  0.18326840683E+02 -0.49375553943E+00  0.27121703021E+02  0.00000000000E+00 0. -1.
         11    1    3    3    0    0 -0.76131172477E+02  0.29433682488E+02  0.72646434191E+02  0.10926939868E+03  0.00000000000E+00 0.  1.
<mgrwt>
<rscale>  0 0.13651011E+03</rscale>
<asrwt>0</asrwt>
<pdfrwt beam="1">  1        1 0.23925346E-01 0.14422960E+03</pdfrwt>
<pdfrwt beam="2">  1       -1 0.20554983E-01 0.14422960E+03</pdfrwt>
<totfact> 0.37648654E+03</totfact>
</mgrwt>
</event>
<event>
 7    1  0.1254976E-005  0.1555109E+03  0.7546771E-02  0.1202833E+00
          2   -1    0    0  501    0  0.00000000000E+00  0.00000000000E+00  0.32524525601E+03  0.32524525601E+03  0.00000000000E+00 0. -1.
         -2   -1    0    0    0  501 -0.00000000000E+00 -0.00000000000E+00 -0.64619639751E+02  0.64619639751E+02  0.00000000000E+00 0.  1.
         23    2    1    2    0    0 -0.78397323299E+02 -0.49105929933E+02  0.15913631303E+03  0.20416698998E+03  0.88330408214E+02 0.  0.
          5    1    1    2  502    0  0.83176353413E+02 -0.20001764404E+02  0.49393412737E+02  0.98894770176E+02  0.47000000000E+01 0.  1.
         -5    1    1    2    0  502 -0.47790301142E+01  0.69107694337E+02  0.52095890485E+02  0.86803135605E+02  0.47000000000E+01 0.  1.
        -11    1    3    3    0    0 -0.56355376915E+02  0.15949771187E+02  0.83536084597E+02  0.10202255210E+03  0.00000000000E+00 0. -1.
         11    1    3    3    0    0 -0.22041946384E+02 -0.65055701120E+02  0.75600228435E+02  0.10214443787E+03  0.00000000000E+00 0.  1.
<mgrwt>
<rscale>  0 0.14809582E+03</rscale>
<asrwt>0</asrwt>
<pdfrwt beam="1">  1        2 0.50037731E-01 0.15551088E+03</pdfrwt>
<pdfrwt beam="2">  1       -2 0.99414832E-02 0.15551088E+03</pdfrwt>
<totfact> 0.64582920E+03</totfact>
</mgrwt>
</event>
<event>
 7    1  0.1254976E-005  0.1490146E+03  0.7546771E-02  0.1211731E+00
          2   -1    0    0  501    0  0.00000000000E+00  0.00000000000E+00  0.21966479406E+03  0.21966479406E+03  0.00000000000E+00 0.  1.
         -2   -1    0    0    0  501 -0.00000000000E+00 -0.00000000000E+00 -0.11026508227E+03  0.11026508227E+03  0.00000000000E+00 0. -1.
         23    2    1    2    0    0  0.73410867417E+02  0.34514613342E+02  0.13283297191E+03  0.17908399411E+03  0.88578013810E+02 0.  0.
          5    1    1    2  502    0  0.29084797028E+02  0.13438732400E+02 -0.18909966328E+02  0.37499356970E+02  0.47000000000E+01 0. -1.
         -5    1    1    2    0  502 -0.10249566444E+03 -0.47953345743E+02 -0.45232937995E+01  0.11334652524E+03  0.47000000000E+01 0. -1.
        -11    1    3    3    0    0  0.76713382563E+02 -0.21926814359E+01  0.11470655289E+03  0.13801211611E+03  0.00000000000E+00 0.  1.
         11    1    3    3    0    0 -0.33025151461E+01  0.36707294778E+02  0.18126419021E+02  0.41071878004E+02  0.00000000000E+00 0. -1.
<mgrwt>
<rscale>  0 0.14119416E+03</rscale>
<asrwt>0</asrwt>
<pdfrwt beam="1">  1        2 0.33794583E-01 0.14901464E+03</pdfrwt>
<pdfrwt beam="2">  1       -2 0.16963859E-01 0.14901464E+03</pdfrwt>
<totfact> 0.41322380E+03</totfact>
</mgrwt>
</event>
<event>
 7    1  0.1254976E-005  0.1284232E+03  0.7546771E-02  0.1244808E+00
          2   -1    0    0  501    0  0.00000000000E+00  0.00000000000E+00  0.15641894110E+03  0.15641894110E+03  0.00000000000E+00 0. -1.
         -2   -1    0    0    0  501 -0.00000000000E+00 -0.00000000000E+00 -0.83419305774E+02  0.83419305774E+02  0.00000000000E+00 0.  1.
         23    2    1    2    0    0  0.17199581825E+02  0.23835510788E+02  0.56982591612E+02  0.11042009706E+03  0.89897858143E+02 0.  0.
          5    1    1    2  502    0 -0.19872477008E+02 -0.93514999594E+01  0.69869317988E+02  0.73390581753E+02  0.47000000000E+01 0.  1.
         -5    1    1    2    0  502  0.26728951830E+01 -0.14484010829E+02 -0.53852274273E+02  0.56027568060E+02  0.47000000000E+01 0.  1.
        -11    1    3    3    0    0  0.39496666115E+02 -0.15125084122E+02  0.63734506606E+01  0.42771201494E+02  0.00000000000E+00 0.  1.
         11    1    3    3    0    0 -0.22297084290E+02  0.38960594910E+02  0.50609140951E+02  0.67648895567E+02  0.00000000000E+00 0. -1.
<mgrwt>
<rscale>  0 0.11896895E+03</rscale>
<asrwt>0</asrwt>
<pdfrwt beam="1">  1        2 0.24064452E-01 0.12842317E+03</pdfrwt>
<pdfrwt beam="2">  1       -2 0.12833739E-01 0.12842317E+03</pdfrwt>
<totfact> 0.93403671E+03</totfact>
</mgrwt>
</event>
<event>
 7    1  0.1254976E-005  0.1335388E+03  0.7546771E-02  0.1235198E+00
         -2   -1    0    0    0  501 -0.00000000000E+00  0.00000000000E+00  0.25014737796E+02  0.25014737796E+02  0.00000000000E+00 0.  1.
          2   -1    0    0  501    0  0.00000000000E+00 -0.00000000000E+00 -0.60498368280E+03  0.60498368280E+03  0.00000000000E+00 0. -1.
         23    2    1    2    0    0 -0.46470102950E+02  0.69683809176E+01 -0.34387109790E+03  0.35875165970E+03  0.90815156027E+02 0.  0.
          5    1    1    2  502    0  0.87676464128E+02  0.61009022059E+01 -0.13454439819E+03  0.16077521094E+03  0.47000000000E+01 0.  1.
         -5    1    1    2    0  502 -0.41206361178E+02 -0.13069283123E+02 -0.10155344891E+03  0.11047154995E+03  0.47000000000E+01 0.  1.
        -11    1    3    3    0    0 -0.54270815622E+02 -0.15352606325E+02 -0.32078534183E+03  0.32570578669E+03  0.00000000000E+00 0. -1.
         11    1    3    3    0    0  0.78007126721E+01  0.22320987243E+02 -0.23085756073E+02  0.33045873013E+02  0.00000000000E+00 0.  1.
<mgrwt>
<rscale>  0 0.12491751E+03</rscale>
<asrwt>0</asrwt>
<pdfrwt beam="2">  1        2 0.93074415E-01 0.13353880E+03</pdfrwt>
<pdfrwt beam="1">  1       -2 0.38484211E-02 0.13353880E+03</pdfrwt>
<totfact> 0.13811579E+04</totfact>
</mgrwt>
</event>
<event>
 7    1  0.1254976E-005  0.2822851E+03  0.7546771E-02  0.1096201E+00
          1   -1    0    0  501    0  0.00000000000E+00  0.00000000000E+00  0.16536998863E+04  0.16536998863E+04  0.00000000000E+00 0. -1.
         -1   -1    0    0    0  501 -0.00000000000E+00 -0.00000000000E+00 -0.46553580360E+02  0.46553580360E+02  0.00000000000E+00 0.  1.
         23    2    1    2    0    0  0.75902444496E+02  0.24233894495E+03  0.69682251752E+03  0.74716677053E+03  0.90593690483E+02 0.  0.
          5    1    1    2  502    0 -0.25090508927E+02 -0.22746864223E+03  0.72301470661E+03  0.75838240539E+03  0.47000000000E+01 0. -1.
         -5    1    1    2    0  502 -0.50811935569E+02 -0.14870302712E+02  0.18730908179E+03  0.19470429070E+03  0.47000000000E+01 0. -1.
        -11    1    3    3    0    0 -0.17280928012E+02  0.70759273294E+02  0.15567613090E+03  0.17187368316E+03  0.00000000000E+00 0.  1.
         11    1    3    3    0    0  0.93183372508E+02  0.17157967165E+03  0.54114638661E+03  0.57529308738E+03  0.00000000000E+00 0. -1.
<mgrwt>
<rscale>  0 0.27906485E+03</rscale>
<asrwt>0</asrwt>
<pdfrwt beam="1">  1        1 0.25441532E+00 0.28228505E+03</pdfrwt>
<pdfrwt beam="2">  1       -1 0.71620906E-02 0.28228505E+03</pdfrwt>
<totfact> 0.57802397E+02</totfact>
</mgrwt>
</event>
<event>
 7    1  0.1254976E-005  0.1293016E+03  0.7546771E-02  0.1247485E+00
          1   -1    0    0  501    0  0.00000000000E+00  0.00000000000E+00  0.25346790753E+03  0.25346790753E+03  0.00000000000E+00 0. -1.
         -1   -1    0    0    0  501 -0.00000000000E+00 -0.00000000000E+00 -0.47069207891E+02  0.47069207891E+02  0.00000000000E+00 0.  1.
         23    2    1    2    0    0  0.33073211081E+02  0.10858113447E+00  0.10004531295E+03  0.13311561592E+03  0.81344043899E+02 0.  0.
          5    1    1    2  502    0 -0.30978398819E+02  0.59345587013E+02  0.72580152449E+02  0.98851041577E+02  0.47000000000E+01 0. -1.
         -5    1    1    2    0  502 -0.20948122629E+01 -0.59454168148E+02  0.33773234238E+02  0.68570457920E+02  0.47000000000E+01 0. -1.
        -11    1    3    3    0    0 -0.25523210151E+02 -0.15707979716E+01  0.14452091674E+02  0.29372855095E+02  0.00000000000E+00 0.  1.
         11    1    3    3    0    0  0.58596421233E+02  0.16793791061E+01  0.85593221280E+02  0.10374276083E+03  0.00000000000E+00 0. -1.
<mgrwt>
<rscale>  0 0.11737883E+03</rscale>
<asrwt>0</asrwt>
<pdfrwt beam="1">  1        1 0.38995062E-01 0.12930165E+03</pdfrwt>
<pdfrwt beam="2">  1       -1 0.72414167E-02 0.12930165E+03</pdfrwt>
<totfact> 0.10236514E+04</totfact>
</mgrwt>
</event>
<event>
 7    1  0.1254976E-005  0.1976436E+03  0.7546771E-02  0.1152770E+00
          1   -1    0    0  501    0  0.00000000000E+00  0.00000000000E+00  0.29128847174E+03  0.29128847174E+03  0.00000000000E+00 0. -1.
         -1   -1    0    0    0  501 -0.00000000000E+00 -0.00000000000E+00 -0.13716136103E+03  0.13716136103E+03  0.00000000000E+00 0.  1.
         23    2    1    2    0    0 -0.17889565117E+02  0.15204633424E+03  0.12189801084E+03  0.22819575979E+03  0.11737144220E+03 0.  0.
          5    1    1    2  502    0 -0.47174002360E+02 -0.90497612985E+02  0.41120946711E+02  0.11012822850E+03  0.47000000000E+01 0.  1.
         -5    1    1    2    0  502  0.65063567477E+02 -0.61548721257E+02 -0.88918468427E+01  0.90125844470E+02  0.47000000000E+01 0.  1.
        -11    1    3    3    0    0 -0.49206166645E+02  0.17810688504E+02  0.17142072642E+02  0.55066488133E+02  0.00000000000E+00 0.  1.
         11    1    3    3    0    0  0.31316601528E+02  0.13423564574E+03  0.10475593820E+03  0.17312927166E+03  0.00000000000E+00 0. -1.
<mgrwt>
<rscale>  0 0.19644934E+03</rscale>
<asrwt>0</asrwt>
<pdfrwt beam="1">  1        1 0.44813611E-01 0.19764357E+03</pdfrwt>
<pdfrwt beam="2">  1       -1 0.21101748E-01 0.19764357E+03</pdfrwt>
<totfact> 0.16656502E+03</totfact>
</mgrwt>
</event>
<event>
 7    1  0.1254976E-005  0.1289483E+03  0.7546771E-02  0.1243906E+00
         -2   -1    0    0    0  501 -0.00000000000E+00  0.00000000000E+00  0.47726109402E+02  0.47726109402E+02  0.00000000000E+00 0.  1.
          2   -1    0    0  501    0  0.00000000000E+00 -0.00000000000E+00 -0.27003151040E+03  0.27003151040E+03  0.00000000000E+00 0. -1.
         23    2    1    2    0    0  0.19784093277E+02  0.24706911878E+02 -0.12007675944E+03  0.15320258845E+03  0.89726044760E+02 0.  0.
          5    1    1    2  502    0 -0.16308435141E+02 -0.70681166824E+02 -0.91724193129E+02  0.11703508023E+03  0.47000000000E+01 0.  1.
         -5    1    1    2    0  502 -0.34756581354E+01  0.45974254946E+02 -0.10504448424E+02  0.47519951115E+02  0.47000000000E+01 0.  1.
        -11    1    3    3    0    0  0.45653525810E+02 -0.72500738449E+01 -0.32659617925E+02  0.56599104521E+02  0.00000000000E+00 0.  1.
         11    1    3    3    0    0 -0.25869432533E+02  0.31956985723E+02 -0.87417141516E+02  0.96603483928E+02  0.00000000000E+00 0. -1.
<mgrwt>
<rscale>  0 0.11951114E+03</rscale>
<asrwt>0</asrwt>
<pdfrwt beam="2">  1        2 0.41543310E-01 0.12894830E+03</pdfrwt>
<pdfrwt beam="1">  1       -2 0.73424783E-02 0.12894830E+03</pdfrwt>
<totfact> 0.12432980E+04</totfact>
</mgrwt>
</event>
<event>
 7    1  0.1254976E-005  0.1315938E+03  0.7546771E-02  0.1238321E+00
          2   -1    0    0  501    0  0.00000000000E+00  0.00000000000E+00  0.19571016092E+03  0.19571016092E+03  0.00000000000E+00 0. -1.
         -2   -1    0    0    0  501 -0.00000000000E+00 -0.00000000000E+00 -0.68886085655E+02  0.68886085655E+02  0.00000000000E+00 0.  1.
         23    2    1    2    0    0  0.38260107660E+02 -0.15148260224E+02  0.62314486884E+02  0.11804107664E+03  0.91418241463E+02 0.  0.
          5    1    1    2  502    0  0.41368162364E+02 -0.12738268736E+02  0.64122631897E+01  0.44009038469E+02  0.47000000000E+01 0. -1.
         -5    1    1    2    0  502 -0.79628270024E+02  0.27886528960E+02  0.58097325187E+02  0.10254613146E+03  0.47000000000E+01 0. -1.
        -11    1    3    3    0    0  0.29004076870E+02  0.34049745689E+02  0.48780448106E+02  0.66182730179E+02  0.00000000000E+00 0.  1.
         11    1    3    3    0    0  0.92560307900E+01 -0.49198005913E+02  0.13534038779E+02  0.51858346459E+02  0.00000000000E+00 0. -1.
<mgrwt>
<rscale>  0 0.12294209E+03</rscale>
<asrwt>0</asrwt>
<pdfrwt beam="1">  1        2 0.30109255E-01 0.13159381E+03</pdfrwt>
<pdfrwt beam="2">  1       -2 0.10597859E-01 0.13159381E+03</pdfrwt>
<totfact> 0.99329519E+03</totfact>
</mgrwt>
</event>
<event>
 6    1  0.1254976E-005  0.2754747E+03  0.7546771E-02  0.1098187E+00
          3   -1    0    0  501    0  0.00000000000E+00  0.00000000000E+00  0.45831171722E+03  0.45831171722E+03  0.00000000000E+00 0. -1.
         -3   -1    0    0    0  501 -0.00000000000E+00 -0.00000000000E+00 -0.41394477101E+02  0.41394477101E+02  0.00000000000E+00 0.  1.
          5    1    1    2  502    0  0.13050398100E+02  0.17353581114E+02  0.16777013240E+03  0.16923465069E+03  0.47000000000E+01 0. -1.
         -5    1    1    2    0  502 -0.86220207165E+01 -0.93096226156E+01 -0.20240455250E+02  0.24346957576E+02  0.47000000000E+01 0. -1.
        -11    1    1    2    0    0 -0.14956713570E+02 -0.75027881984E+02  0.16140178115E+03  0.17861528858E+03  0.00000000000E+00 0. -1.
         11    1    1    2    0    0  0.10528336186E+02  0.66983923485E+02  0.10798578181E+03  0.12750929747E+03  0.00000000000E+00 0.  1.
<mgrwt>
<rscale>  0 0.27547467E+03</rscale>
<asrwt>0</asrwt>
<pdfrwt beam="1">  1        3 0.70509491E-01 0.27547467E+03</pdfrwt>
<pdfrwt beam="2">  1       -3 0.63683814E-02 0.27547467E+03</pdfrwt>
<totfact> 0.77062293E+02</totfact>
</mgrwt>
</event>
<event>
 7    1  0.1254976E-005  0.1512947E+03  0.7546771E-02  0.1207781E+00
         -2   -1    0    0    0  501 -0.00000000000E+00  0.00000000000E+00  0.32859807792E+02  0.32859807792E+02  0.00000000000E+00 0. -1.
          2   -1    0    0  501    0  0.00000000000E+00 -0.00000000000E+00 -0.58268234586E+03  0.58268234586E+03  0.00000000000E+00 0.  1.
         23    2    1    2    0    0 -0.29927588091E+02 -0.79678513261E+02 -0.26859696306E+03  0.29620233387E+03  0.91362837210E+02 0.  0.
          5    1    1    2  502    0  0.11514264379E+02  0.11253531508E+03 -0.21596892059E+03  0.24384716543E+03  0.47000000000E+01 0.  1.
         -5    1    1    2    0  502  0.18413323711E+02 -0.32856801816E+02 -0.65256654412E+02  0.75492654349E+02  0.47000000000E+01 0.  1.
        -11    1    3    3    0    0  0.20017736532E+01  0.18329486324E+02 -0.70758035452E+02  0.73120973378E+02  0.00000000000E+00 0.  1.
         11    1    3    3    0    0 -0.31929361744E+02 -0.98007999584E+02 -0.19783892761E+03  0.22308136050E+03  0.00000000000E+00 0. -1.
<mgrwt>
<rscale>  0 0.14420450E+03</rscale>
<asrwt>0</asrwt>
<pdfrwt beam="2">  1        2 0.89643439E-01 0.15129473E+03</pdfrwt>
<pdfrwt beam="1">  1       -2 0.50553550E-02 0.15129473E+03</pdfrwt>
<totfact> 0.96707198E+03</totfact>
</mgrwt>
</event>
<event>
 7    1  0.1254976E-005  0.2391353E+03  0.7546771E-02  0.1123086E+00
          2   -1    0    0  501    0  0.00000000000E+00  0.00000000000E+00  0.53495367909E+03  0.53495367909E+03  0.00000000000E+00 0. -1.
         -2   -1    0    0    0  501 -0.00000000000E+00 -0.00000000000E+00 -0.10707123277E+03  0.10707123277E+03  0.00000000000E+00 0.  1.
         23    2    1    2    0    0  0.36601452358E+02  0.20055941843E+03  0.28954768626E+03  0.36576019008E+03  0.91536371959E+02 0.  0.
          5    1    1    2  502    0  0.43556179690E+02 -0.48544133708E+02  0.23330752173E+02  0.69426851460E+02  0.47000000000E+01 0. -1.
         -5    1    1    2    0  502 -0.80157632048E+02 -0.15201528472E+03  0.11500400788E+03  0.20683787031E+03  0.47000000000E+01 0. -1.
        -11    1    3    3    0    0 -0.10744538194E+02  0.43445608045E+02  0.17497776348E+02  0.48053492449E+02  0.00000000000E+00 0.  1.
         11    1    3    3    0    0  0.47345990552E+02  0.15711381039E+03  0.27204990992E+03  0.31770669763E+03  0.00000000000E+00 0. -1.
<mgrwt>
<rscale>  0 0.23512116E+03</rscale>
<asrwt>0</asrwt>
<pdfrwt beam="1">  1        2 0.82300565E-01 0.23913530E+03</pdfrwt>
<pdfrwt beam="2">  1       -2 0.16472498E-01 0.23913530E+03</pdfrwt>
<totfact> 0.16820360E+03</totfact>
</mgrwt>
</event>
<event>
 7    1  0.1254976E-005  0.1271154E+03  0.7546771E-02  0.1245899E+00
          1   -1    0    0  501    0  0.00000000000E+00  0.00000000000E+00  0.27055762807E+03  0.27055762807E+03  0.00000000000E+00 0. -1.
         -1   -1    0    0    0  501 -0.00000000000E+00 -0.00000000000E+00 -0.54023300295E+02  0.54023300295E+02  0.00000000000E+00 0.  1.
         23    2    1    2    0    0 -0.22982940314E+02 -0.14290077109E+01  0.15814385514E+03  0.18469605126E+03  0.92589928294E+02 0.  0.
          5    1    1    2  502    0  0.28482337804E+01  0.61719141704E+02  0.39198919925E+02  0.73321280755E+02  0.47000000000E+01 0.  1.
         -5    1    1    2    0  502  0.20134706533E+02 -0.60290133993E+02  0.19191552704E+02  0.66563596352E+02  0.47000000000E+01 0.  1.
        -11    1    3    3    0    0 -0.18399244748E+02 -0.42573155837E+02  0.46725636557E+02  0.65835331828E+02  0.00000000000E+00 0.  1.
         11    1    3    3    0    0 -0.45836955659E+01  0.41144148126E+02  0.11141821859E+03  0.11886071943E+03  0.00000000000E+00 0. -1.
<mgrwt>
<rscale>  0 0.11831714E+03</rscale>
<asrwt>0</asrwt>
<pdfrwt beam="1">  1        1 0.41624250E-01 0.12711543E+03</pdfrwt>
<pdfrwt beam="2">  1       -1 0.83112771E-02 0.12711543E+03</pdfrwt>
<totfact> 0.76671172E+03</totfact>
</mgrwt>
</event>
<event>
 7    1  0.1254976E-005  0.1330524E+03  0.7546771E-02  0.1235782E+00
          4   -1    0    0  501    0  0.00000000000E+00  0.00000000000E+00  0.13358859300E+03  0.13358859300E+03  0.00000000000E+00 0. -1.
         -4   -1    0    0    0  501 -0.00000000000E+00 -0.00000000000E+00 -0.10512645258E+03  0.10512645258E+03  0.00000000000E+00 0.  1.
         23    2    1    2    0    0  0.13866807725E+02  0.43429734270E+02  0.26983893363E+02  0.10565446103E+03  0.91412824372E+02 0.  0.
          5    1    1    2  502    0  0.23211368684E+02 -0.15872387842E+02  0.55153666764E+02  0.62086369595E+02  0.47000000000E+01 0.  1.
         -5    1    1    2    0  502 -0.37078176409E+02 -0.27557346428E+02 -0.53675419710E+02  0.70974214959E+02  0.47000000000E+01 0.  1.
        -11    1    3    3    0    0 -0.32032853219E+02  0.11579172010E+02 -0.13522168154E+02  0.36647372913E+02  0.00000000000E+00 0.  1.
         11    1    3    3    0    0  0.45899660945E+02  0.31850562260E+02  0.40506061517E+02  0.69007088120E+02  0.00000000000E+00 0. -1.
<mgrwt>
<rscale>  0 0.12454524E+03</rscale>
<asrwt>0</asrwt>
<pdfrwt beam="1">  1        4 0.20552091E-01 0.13305237E+03</pdfrwt>
<pdfrwt beam="2">  1       -4 0.16173300E-01 0.13305237E+03</pdfrwt>
<totfact> 0.11637950E+03</totfact>
</mgrwt>
</event>
<event>
 7    1  0.1254976E-005  0.1508247E+03  0.7546771E-02  0.1208779E+00
         -1   -1    0    0    0  501 -0.00000000000E+00  0.00000000000E+00  0.48004922465E+03  0.48004922465E+03  0.00000000000E+00 0.  1.
          1   -1    0    0  501    0  0.00000000000E+00 -0.00000000000E+00 -0.42698091961E+02  0.42698091961E+02  0.00000000000E+00 0. -1.
         23    2    1    2    0    0 -0.51867183153E+02 -0.66560945809E+02  0.12364433739E+03  0.17466680918E+03  0.90000043699E+02 0.  0.
          5    1    1    2  502    0 -0.28977001095E+02  0.27518644723E+02  0.19535478996E+03  0.19945557490E+03  0.47000000000E+01 0. -1.
         -5    1    1    2    0  502  0.80844184248E+02  0.39042301086E+02  0.11835200535E+03  0.14862493253E+03  0.47000000000E+01 0. -1.
        -11    1    3    3    0    0 -0.12638938868E+02 -0.77741633672E+02  0.10077538628E+03  0.12790302131E+03  0.00000000000E+00 0.  1.
         11    1    3    3    0    0 -0.39228244285E+02  0.11180687863E+02  0.22868951111E+02  0.46763787867E+02  0.00000000000E+00 0. -1.
<mgrwt>
<rscale>  0 0.14343601E+03</rscale>
<asrwt>0</asrwt>
<pdfrwt beam="2">  1        1 0.65689376E-02 0.15082469E+03</pdfrwt>
<pdfrwt beam="1">  1       -1 0.73853723E-01 0.15082469E+03</pdfrwt>
<totfact> 0.21381425E+03</totfact>
</mgrwt>
</event>
<event>
 7    1  0.1254976E-005  0.1266566E+03  0.7546771E-02  0.1247342E+00
         -1   -1    0    0    0  501 -0.00000000000E+00  0.00000000000E+00  0.37184373515E+02  0.37184373515E+02  0.00000000000E+00 0.  1.
          1   -1    0    0  501    0  0.00000000000E+00 -0.00000000000E+00 -0.33386510066E+03  0.33386510066E+03  0.00000000000E+00 0. -1.
         23    2    1    2    0    0 -0.16569011057E+02  0.11995182902E+02 -0.15398690726E+03  0.18025269912E+03  0.91436597661E+02 0.  0.
          5    1    1    2  502    0  0.50325649202E+02  0.18266251245E+02 -0.13402841890E+03  0.14440233369E+03  0.47000000000E+01 0.  1.
         -5    1    1    2    0  502 -0.33756638145E+02 -0.30261434147E+02 -0.86654009865E+01  0.46394441367E+02  0.47000000000E+01 0.  1.
        -11    1    3    3    0    0  0.18512067188E+02  0.20490376689E+02 -0.13806935332E+03  0.14080375880E+03  0.00000000000E+00 0. -1.
         11    1    3    3    0    0 -0.35081078245E+02 -0.84951937866E+01 -0.15917553942E+02  0.39448940312E+02  0.00000000000E+00 0.  1.
<mgrwt>
<rscale>  0 0.11746319E+03</rscale>
<asrwt>0</asrwt>
<pdfrwt beam="2">  1        1 0.51363862E-01 0.12665656E+03</pdfrwt>
<pdfrwt beam="1">  1       -1 0.57206728E-02 0.12665656E+03</pdfrwt>
<totfact> 0.10335893E+04</totfact>
</mgrwt>
</event>
<event>
 7    1  0.1254976E-005  0.2796622E+03  0.7546771E-02  0.1097735E+00
         -2   -1    0    0    0  501 -0.00000000000E+00  0.00000000000E+00  0.77295740971E+02  0.77295740971E+02  0.00000000000E+00 0. -1.
          2   -1    0    0  501    0  0.00000000000E+00 -0.00000000000E+00 -0.10075350570E+04  0.10075350570E+04  0.00000000000E+00 0.  1.
         23    2    1    2    0    0 -0.16476997705E+03 -0.18824889384E+03 -0.34213697036E+03  0.43362013738E+03  0.91552857322E+02 0.  0.
          5    1    1    2  502    0  0.34928560060E+02  0.12520278521E+03 -0.34153406058E+03  0.36546319414E+03  0.47000000000E+01 0. -1.
         -5    1    1    2    0  502  0.12984141699E+03  0.63046108627E+02 -0.24656828511E+03  0.28574746648E+03  0.47000000000E+01 0. -1.
        -11    1    3    3    0    0 -0.13879678374E+03 -0.19049911637E+03 -0.32817568869E+03  0.40404670913E+03  0.00000000000E+00 0. -1.
         11    1    3    3    0    0 -0.25973193312E+02  0.22502225350E+01 -0.13961281675E+02  0.29573428248E+02  0.00000000000E+00 0.  1.
<mgrwt>
<rscale>  0 0.27628590E+03</rscale>
<asrwt>0</asrwt>
<pdfrwt beam="2">  1        2 0.15500538E+00 0.27966222E+03</pdfrwt>
<pdfrwt beam="1">  1       -2 0.11891653E-01 0.27966222E+03</pdfrwt>
<totfact> 0.13040871E+03</totfact>
</mgrwt>
</event>
<event>
 7    1  0.1254976E-005  0.2016210E+03  0.7546771E-02  0.1152901E+00
         -2   -1    0    0    0  501 -0.00000000000E+00  0.00000000000E+00  0.99963094627E+02  0.99963094627E+02  0.00000000000E+00 0.  1.
          2   -1    0    0  501    0  0.00000000000E+00 -0.00000000000E+00 -0.62905970212E+03  0.62905970212E+03  0.00000000000E+00 0. -1.
         23    2    1    2    0    0 -0.15289165701E+03 -0.40647718928E+02 -0.49163821081E+03  0.52395165945E+03  0.88255964549E+02 0.  0.
          5    1    1    2  502    0  0.16238650449E+03  0.31410737173E+01 -0.33440748005E+02  0.16589037588E+03  0.47000000000E+01 0.  1.
         -5    1    1    2    0  502 -0.94948474789E+01  0.37506645210E+02 -0.40176486782E+01  0.39180761408E+02  0.47000000000E+01 0.  1.
        -11    1    3    3    0    0 -0.63078572893E+02 -0.43870557618E+02 -0.33180307934E+03  0.34058305249E+03  0.00000000000E+00 0. -1.
         11    1    3    3    0    0 -0.89813084117E+02  0.32228386908E+01 -0.15983513147E+03  0.18336860697E+03  0.00000000000E+00 0.  1.
<mgrwt>
<rscale>  0 0.19629742E+03</rscale>
<asrwt>0</asrwt>
<pdfrwt beam="2">  1        2 0.96778417E-01 0.20162103E+03</pdfrwt>
<pdfrwt beam="1">  1       -2 0.15378937E-01 0.20162103E+03</pdfrwt>
<totfact> 0.15608978E+03</totfact>
</mgrwt>
</event>
<event>
 7    1  0.1254976E-005  0.1500868E+03  0.7546771E-02  0.1209818E+00
         -1   -1    0    0    0  501 -0.00000000000E+00  0.00000000000E+00  0.40444941723E+03  0.40444941723E+03  0.00000000000E+00 0.  1.
          1   -1    0    0  501    0  0.00000000000E+00 -0.00000000000E+00 -0.49152948295E+02  0.49152948295E+02  0.00000000000E+00 0. -1.
         23    2    1    2    0    0  0.66214051134E+02  0.50169108611E+02  0.10286367818E+03  0.15992167569E+03  0.89959802362E+02 0.  0.
          5    1    1    2  502    0 -0.98266175739E+02 -0.27280990689E+02  0.13192928992E+03  0.16681702937E+03  0.47000000000E+01 0.  1.
         -5    1    1    2    0  502  0.32052124605E+02 -0.22888117923E+02  0.12050350084E+03  0.12686366047E+03  0.47000000000E+01 0.  1.
        -11    1    3    3    0    0  0.74482466024E+02  0.57521164562E+02  0.51295710661E+02  0.10718009167E+03  0.00000000000E+00 0. -1.
         11    1    3    3    0    0 -0.82684148900E+01 -0.73520559506E+01  0.51567967517E+02  0.52741584023E+02  0.00000000000E+00 0.  1.
<mgrwt>
<rscale>  0 0.14264169E+03</rscale>
<asrwt>0</asrwt>
<pdfrwt beam="2">  1        1 0.75619923E-02 0.15008675E+03</pdfrwt>
<pdfrwt beam="1">  1       -1 0.62222985E-01 0.15008675E+03</pdfrwt>
<totfact> 0.24732265E+03</totfact>
</mgrwt>
</event>
<event>
 7    1  0.1254976E-005  0.1397871E+03  0.7546771E-02  0.1223700E+00
         -3   -1    0    0    0  501 -0.00000000000E+00  0.00000000000E+00  0.19027619812E+03  0.19027619812E+03  0.00000000000E+00 0.  1.
          3   -1    0    0  501    0  0.00000000000E+00 -0.00000000000E+00 -0.10660500882E+03  0.10660500882E+03  0.00000000000E+00 0. -1.
         23    2    1    2    0    0  0.62288633690E+02 -0.59506608059E+01 -0.29705089573E+02  0.11689613736E+03  0.94164910298E+02 0.  0.
          5    1    1    2  502    0 -0.91677068612E+02  0.33694044906E+02  0.68389677605E+02  0.11932816756E+03  0.47000000000E+01 0. -1.
         -5    1    1    2    0  502  0.29388434922E+02 -0.27743384100E+02  0.44986601274E+02  0.60656902020E+02  0.47000000000E+01 0. -1.
        -11    1    3    3    0    0  0.16996902001E+02  0.37622734388E+02  0.10101216629E+02  0.42501757585E+02  0.00000000000E+00 0.  1.
         11    1    3    3    0    0  0.45291731689E+02 -0.43573395194E+02 -0.39806306202E+02  0.74394379771E+02  0.00000000000E+00 0. -1.
<mgrwt>
<rscale>  0 0.13256431E+03</rscale>
<asrwt>0</asrwt>
<pdfrwt beam="2">  1        3 0.16400771E-01 0.13978714E+03</pdfrwt>
<pdfrwt beam="1">  1       -3 0.29273261E-01 0.13978714E+03</pdfrwt>
<totfact> 0.82906547E+02</totfact>
</mgrwt>
</event>
<event>
 7    1  0.1254976E-005  0.1399539E+03  0.7546771E-02  0.1229591E+00
          2   -1    0    0  501    0  0.00000000000E+00  0.00000000000E+00  0.91922991069E+03  0.91922991069E+03  0.00000000000E+00 0. -1.
         -2   -1    0    0    0  501 -0.00000000000E+00 -0.00000000000E+00 -0.15870433871E+02  0.15870433871E+02  0.00000000000E+00 0.  1.
         23    2    1    2    0    0  0.51033815036E+02 -0.36810637399E+02  0.43513180674E+03  0.44640385641E+03  0.77312615254E+02 0.  0.
          5    1    1    2  502    0 -0.40531848682E+02  0.75610460344E+02  0.40202986961E+03  0.41110811052E+03  0.47000000000E+01 0. -1.
         -5    1    1    2    0  502 -0.10501966354E+02 -0.38799822945E+02  0.66197800471E+02  0.77588377642E+02  0.47000000000E+01 0. -1.
        -11    1    3    3    0    0  0.52936706431E+01  0.22933780484E+02  0.80108279814E+02  0.83494417364E+02  0.00000000000E+00 0.  1.
         11    1    3    3    0    0  0.45740144393E+02 -0.59744417883E+02  0.35502352692E+03  0.36290943904E+03  0.00000000000E+00 0. -1.
<mgrwt>
<rscale>  0 0.12857135E+03</rscale>
<asrwt>0</asrwt>
<pdfrwt beam="1">  1        2 0.14141994E+00 0.13995394E+03</pdfrwt>
<pdfrwt beam="2">  1       -2 0.24416059E-02 0.13995394E+03</pdfrwt>
<totfact> 0.16258744E+04</totfact>
</mgrwt>
</event>
<event>
 7    1  0.1254976E-005  0.1268813E+03  0.7546771E-02  0.1244355E+00
          3   -1    0    0  501    0  0.00000000000E+00  0.00000000000E+00  0.12578432481E+03  0.12578432481E+03  0.00000000000E+00 0. -1.
         -3   -1    0    0    0  501 -0.00000000000E+00 -0.00000000000E+00 -0.12061321249E+03  0.12061321249E+03  0.00000000000E+00 0.  1.
         23    2    1    2    0    0  0.20805531314E+02  0.64034055690E+01  0.51194135312E+02  0.11142722650E+03  0.96546950125E+02 0.  0.
          5    1    1    2  502    0 -0.24461073576E+02  0.14041119907E+02  0.38415151885E+02  0.47888527468E+02  0.47000000000E+01 0.  1.
         -5    1    1    2    0  502  0.36555422616E+01 -0.20444525476E+02 -0.84438174877E+02  0.87081783329E+02  0.47000000000E+01 0.  1.
        -11    1    3    3    0    0  0.29222983662E+02 -0.40810467719E+02  0.19024616022E+02  0.53678795296E+02  0.00000000000E+00 0.  1.
         11    1    3    3    0    0 -0.84174523481E+01  0.47213873288E+02  0.32169519290E+02  0.57748431202E+02  0.00000000000E+00 0. -1.
<mgrwt>
<rscale>  0 0.11924079E+03</rscale>
<asrwt>0</asrwt>
<pdfrwt beam="1">  1        3 0.19351435E-01 0.12688131E+03</pdfrwt>
<pdfrwt beam="2">  1       -3 0.18555879E-01 0.12688131E+03</pdfrwt>
<totfact> 0.13858801E+03</totfact>
</mgrwt>
</event>
<event>
 7    1  0.1254976E-005  0.1580016E+03  0.7546771E-02  0.1199442E+00
         -4   -1    0    0    0  501 -0.00000000000E+00  0.00000000000E+00  0.13083585053E+03  0.13083585053E+03  0.00000000000E+00 0.  1.
          4   -1    0    0  501    0  0.00000000000E+00 -0.00000000000E+00 -0.21130275362E+03  0.21130275362E+03  0.00000000000E+00 0. -1.
         23    2    1    2    0    0 -0.23208528792E+02 -0.93803373653E+02 -0.12154338150E+03  0.17888482268E+03  0.88821604813E+02 0.  0.
          5    1    1    2  502    0 -0.36348317306E+02  0.72008042259E+02 -0.10362591122E+02  0.81460613892E+02  0.47000000000E+01 0.  1.
         -5    1    1    2    0  502  0.59556846098E+02  0.21795331394E+02  0.51439069531E+02  0.81793167575E+02  0.47000000000E+01 0.  1.
        -11    1    3    3    0    0 -0.31586110142E+02  0.46418116296E+01 -0.36809391009E+02  0.48725353108E+02  0.00000000000E+00 0.  1.
         11    1    3    3    0    0  0.83775813499E+01 -0.98445185283E+02 -0.84733990490E+02  0.13015946957E+03  0.00000000000E+00 0. -1.
<mgrwt>
<rscale>  0 0.15084203E+03</rscale>
<asrwt>0</asrwt>
<pdfrwt beam="2">  1        4 0.32508116E-01 0.15800165E+03</pdfrwt>
<pdfrwt beam="1">  1       -4 0.20128592E-01 0.15800165E+03</pdfrwt>
<totfact> 0.34769449E+02</totfact>
</mgrwt>
</event>
<event>
 7    1  0.1254976E-005  0.1256412E+03  0.7546771E-02  0.1249201E+00
         -2   -1    0    0    0  501 -0.00000000000E+00  0.00000000000E+00  0.31153508515E+03  0.31153508515E+03  0.00000000000E+00 0.  1.
          2   -1    0    0  501    0  0.00000000000E+00 -0.00000000000E+00 -0.39593539077E+02  0.39593539077E+02  0.00000000000E+00 0. -1.
         23    2    1    2    0    0  0.23715984282E+01 -0.12603542361E+02  0.83215720775E+02  0.12440599033E+03  0.91583407265E+02 0.  0.
          5    1    1    2  502    0 -0.39731184386E+02  0.35928508470E+02  0.29256883946E+02  0.61216664331E+02  0.47000000000E+01 0. -1.
         -5    1    1    2    0  502  0.37359585957E+02 -0.23324966108E+02  0.15946894135E+03  0.16550596957E+03  0.47000000000E+01 0. -1.
        -11    1    3    3    0    0 -0.78886777914E+01  0.38654769745E+02  0.28053511592E+02  0.48408903871E+02  0.00000000000E+00 0.  1.
         11    1    3    3    0    0  0.10260276220E+02 -0.51258312106E+02  0.55162209183E+02  0.75997086457E+02  0.00000000000E+00 0. -1.
<mgrwt>
<rscale>  0 0.11637442E+03</rscale>
<asrwt>0</asrwt>
<pdfrwt beam="2">  1        2 0.60913139E-02 0.12564122E+03</pdfrwt>
<pdfrwt beam="1">  1       -2 0.47928473E-01 0.12564122E+03</pdfrwt>
<totfact> 0.47797278E+03</totfact>
</mgrwt>
</event>
<event>
 7    1  0.1254976E-005  0.1663744E+03  0.7546771E-02  0.1188643E+00
          2   -1    0    0  501    0  0.00000000000E+00  0.00000000000E+00  0.25789989560E+03  0.25789989560E+03  0.00000000000E+00 0. -1.
         -2   -1    0    0    0  501 -0.00000000000E+00 -0.00000000000E+00 -0.92534968091E+02  0.92534968091E+02  0.00000000000E+00 0.  1.
         23    2    1    2    0    0 -0.93676018142E+02  0.57294120546E+02  0.71529618685E+02  0.15942309334E+03  0.90782287461E+02 0.  0.
          5    1    1    2  502    0  0.12110336547E+03 -0.25073168098E+02  0.71622747202E+02  0.14299159697E+03  0.47000000000E+01 0. -1.
         -5    1    1    2    0  502 -0.27427347329E+02 -0.32220952449E+02  0.22212561627E+02  0.48020173388E+02  0.47000000000E+01 0. -1.
        -11    1    3    3    0    0 -0.50301024238E+02  0.74070867674E+02  0.23502635076E+02  0.92569219144E+02  0.00000000000E+00 0.  1.
         11    1    3    3    0    0 -0.43374993904E+02 -0.16776747128E+02  0.48026983609E+02  0.66853874196E+02  0.00000000000E+00 0. -1.
<mgrwt>
<rscale>  0 0.16004783E+03</rscale>
<asrwt>0</asrwt>
<pdfrwt beam="1">  1        2 0.39676907E-01 0.16637437E+03</pdfrwt>
<pdfrwt beam="2">  1       -2 0.14236149E-01 0.16637437E+03</pdfrwt>
<totfact> 0.46693845E+03</totfact>
</mgrwt>
</event>
<event>
 7    1  0.1254976E-005  0.1366763E+03  0.7546771E-02  0.1233567E+00
         -2   -1    0    0    0  501 -0.00000000000E+00  0.00000000000E+00  0.54862414612E+02  0.54862414612E+02  0.00000000000E+00 0.  1.
          2   -1    0    0  501    0  0.00000000000E+00 -0.00000000000E+00 -0.25233389306E+03  0.25233389306E+03  0.00000000000E+00 0. -1.
         23    2    1    2    0    0 -0.55262283455E+02 -0.12462780495E+01 -0.80395685555E+02  0.12723200410E+03  0.81664211430E+02 0.  0.
          5    1    1    2  502    0  0.55576114066E+02 -0.52754453490E+02 -0.42439149212E+02  0.87720625873E+02  0.47000000000E+01 0.  1.
         -5    1    1    2    0  502 -0.31383061093E+00  0.54000731540E+02 -0.74636643684E+02  0.92243677707E+02  0.47000000000E+01 0.  1.
        -11    1    3    3    0    0 -0.46107306819E+02  0.29480654589E+02 -0.77725569372E+02  0.95059228228E+02  0.00000000000E+00 0. -1.
         11    1    3    3    0    0 -0.91549766365E+01 -0.30726932638E+02 -0.26701161830E+01  0.32172775867E+02  0.00000000000E+00 0.  1.
<mgrwt>
<rscale>  0 0.12596602E+03</rscale>
<asrwt>0</asrwt>
<pdfrwt beam="2">  1        2 0.38820599E-01 0.13667629E+03</pdfrwt>
<pdfrwt beam="1">  1       -2 0.84403714E-02 0.13667629E+03</pdfrwt>
<totfact> 0.10828086E+04</totfact>
</mgrwt>
</event>
<event>
 7    1  0.1254976E-005  0.2021011E+03  0.7546771E-02  0.1151785E+00
          1   -1    0    0  501    0  0.00000000000E+00  0.00000000000E+00  0.10153338884E+03  0.10153338884E+03  0.00000000000E+00 0. -1.
         -1   -1    0    0    0  501 -0.00000000000E+00 -0.00000000000E+00 -0.37188174736E+03  0.37188174736E+03  0.00000000000E+00 0.  1.
         23    2    1    2    0    0  0.59529956585E+02 -0.14723044426E+03 -0.10602021881E+03  0.21293751595E+03  0.94241601504E+02 0.  0.
          5    1    1    2  502    0 -0.96350879736E+02  0.80081632296E+02 -0.10240472193E+03  0.16188074910E+03  0.47000000000E+01 0.  1.
         -5    1    1    2    0  502  0.36820923150E+02  0.67148811961E+02 -0.61923417787E+02  0.98596871146E+02  0.47000000000E+01 0.  1.
        -11    1    3    3    0    0 -0.71420807450E+01 -0.40532045804E+02 -0.71454267724E+02  0.82459495696E+02  0.00000000000E+00 0.  1.
         11    1    3    3    0    0  0.66672037330E+02 -0.10669839845E+03 -0.34565951084E+02  0.13047802025E+03  0.00000000000E+00 0. -1.
<mgrwt>
<rscale>  0 0.19759418E+03</rscale>
<asrwt>0</asrwt>
<pdfrwt beam="1">  1        1 0.15620522E-01 0.20210110E+03</pdfrwt>
<pdfrwt beam="2">  1       -1 0.57212576E-01 0.20210110E+03</pdfrwt>
<totfact> 0.11185524E+03</totfact>
</mgrwt>
</event>
<event>
 7    1  0.1254976E-005  0.1766187E+03  0.7546771E-02  0.1177058E+00
         -1   -1    0    0    0  501 -0.00000000000E+00  0.00000000000E+00  0.32880091656E+02  0.32880091656E+02  0.00000000000E+00 0.  1.
          1   -1    0    0  501    0  0.00000000000E+00 -0.00000000000E+00 -0.91358509451E+03  0.91358509451E+03  0.00000000000E+00 0. -1.
         23    2    1    2    0    0 -0.11918676843E+03 -0.36920093113E+02 -0.55379787139E+03  0.57489762569E+03  0.90810894811E+02 0.  0.
          5    1    1    2  502    0  0.10881674970E+03  0.13271932016E+02 -0.32742031225E+03  0.34531634782E+03  0.47000000000E+01 0. -1.
         -5    1    1    2    0  502  0.10370018726E+02  0.23648161097E+02  0.51318078966E+00  0.26251212661E+02  0.47000000000E+01 0. -1.
        -11    1    3    3    0    0 -0.63763286381E+02 -0.65227997341E+02 -0.35856271842E+03  0.36998333931E+03  0.00000000000E+00 0. -1.
         11    1    3    3    0    0 -0.55423482050E+02  0.28307904229E+02 -0.19523515297E+03  0.20491428638E+03  0.00000000000E+00 0.  1.
<mgrwt>
<rscale>  0 0.17075930E+03</rscale>
<asrwt>0</asrwt>
<pdfrwt beam="2">  1        1 0.14055155E+00 0.17661874E+03</pdfrwt>
<pdfrwt beam="1">  1       -1 0.50584756E-02 0.17661874E+03</pdfrwt>
<totfact> 0.31876405E+03</totfact>
</mgrwt>
</event>
<event>
 7    1  0.1254976E-005  0.1361511E+03  0.7546771E-02  0.1231366E+00
         -3   -1    0    0    0  501 -0.00000000000E+00  0.00000000000E+00  0.22121568387E+03  0.22121568387E+03  0.00000000000E+00 0.  1.
          3   -1    0    0  501    0  0.00000000000E+00 -0.00000000000E+00 -0.67238379874E+02  0.67238379874E+02  0.00000000000E+00 0. -1.
         23    2    1    2    0    0 -0.27736157185E+02  0.46308705142E+02  0.43339377578E+02  0.11301782257E+03  0.89336084431E+02 0.  0.
          5    1    1    2  502    0 -0.29518415894E+02 -0.66600604368E+02  0.75875978496E+02  0.10529117481E+03  0.47000000000E+01 0. -1.
         -5    1    1    2    0  502  0.57254573080E+02  0.20291899226E+02  0.34761947918E+02  0.70145066368E+02  0.47000000000E+01 0. -1.
        -11    1    3    3    0    0 -0.26551909038E+02  0.72029983679E+02  0.22804432022E+02  0.80083484828E+02  0.00000000000E+00 0. -1.
         11    1    3    3    0    0 -0.11842481472E+01 -0.25721278537E+02  0.20534945556E+02  0.32934337738E+02  0.00000000000E+00 0.  1.
<mgrwt>
<rscale>  0 0.12739956E+03</rscale>
<asrwt>0</asrwt>
<pdfrwt beam="2">  1        3 0.10344366E-01 0.13615111E+03</pdfrwt>
<pdfrwt beam="1">  1       -3 0.34033182E-01 0.13615111E+03</pdfrwt>
<totfact> 0.13588056E+03</totfact>
</mgrwt>
</event>
<event>
 7    1  0.1812155E-005  0.1453392E+03  0.7546771E-02  0.1218124E+00
          2   -1    0    0  501    0  0.00000000000E+00  0.00000000000E+00  0.32590458014E+03  0.32590458014E+03  0.00000000000E+00 0. -1.
         -2   -1    0    0    0  501 -0.00000000000E+00 -0.00000000000E+00 -0.54916017959E+02  0.54916017959E+02  0.00000000000E+00 0.  1.
         23    2    1    2    0    0  0.73280427677E+02 -0.11346838109E+02  0.16874448470E+03  0.20312050871E+03  0.85349095629E+02 0.  0.
          5    1    1    2  502    0  0.13645973180E+02  0.41128770935E+02  0.65391791690E+02  0.78587306883E+02  0.47000000000E+01 0. -1.
         -5    1    1    2    0  502 -0.86926400857E+02 -0.29781932826E+02  0.36852285789E+02  0.99112782509E+02  0.47000000000E+01 0. -1.
        -11    1    3    3    0    0  0.40970150652E+02 -0.42217666734E+02  0.13455788403E+03  0.14685608187E+03  0.00000000000E+00 0. -1.
         11    1    3    3    0    0  0.32310277025E+02  0.30870828625E+02  0.34186600675E+02  0.56264426835E+02  0.00000000000E+00 0.  1.
<mgrwt>
<rscale>  0 0.13649511E+03</rscale>
<asrwt>0</asrwt>
<pdfrwt beam="1">  1        2 0.50139165E-01 0.14533916E+03</pdfrwt>
<pdfrwt beam="2">  1       -2 0.84486184E-02 0.14533916E+03</pdfrwt>
<totfact> 0.82761701E+03</totfact>
</mgrwt>
</event>
<event>
 7    1  0.1254976E-005  0.1261221E+03  0.7546771E-02  0.1245983E+00
         -1   -1    0    0    0  501 -0.00000000000E+00  0.00000000000E+00  0.33412955018E+03  0.33412955018E+03  0.00000000000E+00 0.  1.
          1   -1    0    0  501    0  0.00000000000E+00 -0.00000000000E+00 -0.37429786656E+02  0.37429786656E+02  0.00000000000E+00 0. -1.
         23    2    1    2    0    0  0.15735293734E+02  0.58499499577E+01  0.12670217292E+03  0.15988511984E+03  0.96062425227E+02 0.  0.
          5    1    1    2  502    0 -0.10299675207E+02  0.41594434139E+02  0.15576879802E+03  0.16162360191E+03  0.47000000000E+01 0. -1.
         -5    1    1    2    0  502 -0.54356185266E+01 -0.47444384096E+02  0.14228792583E+02  0.50050615075E+02  0.47000000000E+01 0. -1.
        -11    1    3    3    0    0 -0.22937533878E+02 -0.31052276948E+01 -0.38200966914E+01  0.23459881461E+02  0.00000000000E+00 0. -1.
         11    1    3    3    0    0  0.38672827612E+02  0.89551776525E+01  0.13052226961E+03  0.13642523838E+03  0.00000000000E+00 0.  1.
<mgrwt>
<rscale>  0 0.11826738E+03</rscale>
<asrwt>0</asrwt>
<pdfrwt beam="2">  1        1 0.57584289E-02 0.12612214E+03</pdfrwt>
<pdfrwt beam="1">  1       -1 0.51404544E-01 0.12612214E+03</pdfrwt>
<totfact> 0.50634820E+03</totfact>
</mgrwt>
</event>
<event>
 7    1  0.1254976E-005  0.1469426E+03  0.7546771E-02  0.1214296E+00
         -1   -1    0    0    0  501 -0.00000000000E+00  0.00000000000E+00  0.10553923745E+03  0.10553923745E+03  0.00000000000E+00 0. -1.
          1   -1    0    0  501    0  0.00000000000E+00 -0.00000000000E+00 -0.16834993582E+03  0.16834993582E+03  0.00000000000E+00 0.  1.
         23    2    1    2    0    0 -0.21391212794E+02  0.74209613893E+02 -0.40028051792E+02  0.12519093850E+03  0.90032635046E+02 0.  0.
          5    1    1    2  502    0  0.20901652624E+02 -0.35802149015E+02  0.50693328794E+02  0.65654981081E+02  0.47000000000E+01 0.  1.
         -5    1    1    2    0  502  0.48956017071E+00 -0.38407464877E+02 -0.73475975372E+02  0.83043253696E+02  0.47000000000E+01 0.  1.
        -11    1    3    3    0    0 -0.51204843099E+02  0.56776987776E+02 -0.47290118357E+02  0.89899486049E+02  0.00000000000E+00 0.  1.
         11    1    3    3    0    0  0.29813630305E+02  0.17432626117E+02  0.72620665643E+01  0.35291452451E+02  0.00000000000E+00 0. -1.
<mgrwt>
<rscale>  0 0.13928344E+03</rscale>
<asrwt>0</asrwt>
<pdfrwt beam="2">  1        1 0.25899990E-01 0.14694256E+03</pdfrwt>
<pdfrwt beam="1">  1       -1 0.16236806E-01 0.14694256E+03</pdfrwt>
<totfact> 0.49690312E+03</totfact>
</mgrwt>
</event>
<event>
 7    1  0.1254976E-005  0.1418152E+03  0.7546771E-02  0.1220590E+00
          1   -1    0    0  501    0  0.00000000000E+00  0.00000000000E+00  0.30891434997E+03  0.30891434997E+03  0.00000000000E+00 0. -1.
         -1   -1    0    0    0  501 -0.00000000000E+00 -0.00000000000E+00 -0.71756533453E+02  0.71756533453E+02  0.00000000000E+00 0.  1.
         23    2    1    2    0    0 -0.46027626320E+02  0.50496030468E+02  0.20489088334E+03  0.23523119973E+03  0.93193625163E+02 0.  0.
          5    1    1    2  502    0 -0.35444864871E+02 -0.42259447849E+02  0.30919917041E+02  0.63406077375E+02  0.47000000000E+01 0. -1.
         -5    1    1    2    0  502  0.81472491191E+02 -0.82365826187E+01  0.13470161392E+01  0.82033606324E+02  0.47000000000E+01 0.  1.
        -11    1    3    3    0    0  0.25163510618E+01  0.52440852433E+02  0.48524304700E+02  0.71491140522E+02  0.00000000000E+00 0.  1.
         11    1    3    3    0    0 -0.48543977382E+02 -0.19448219651E+01  0.15636657864E+03  0.16374005920E+03  0.00000000000E+00 0. -1.
<mgrwt>
<rscale>  0 0.13473835E+03</rscale>
<asrwt>0</asrwt>
<pdfrwt beam="1">  1        1 0.47525284E-01 0.14181518E+03</pdfrwt>
<pdfrwt beam="2">  1       -1 0.11039467E-01 0.14181518E+03</pdfrwt>
<totfact> 0.42528953E+03</totfact>
</mgrwt>
</event>
<event>
 7    1  0.1254976E-005  0.1345241E+03  0.7546771E-02  0.1238006E+00
          2   -1    0    0  501    0  0.00000000000E+00  0.00000000000E+00  0.12128432889E+03  0.12128432889E+03  0.00000000000E+00 0. -1.
         -2   -1    0    0    0  501 -0.00000000000E+00 -0.00000000000E+00 -0.12153594829E+03  0.12153594829E+03  0.00000000000E+00 0.  1.
         23    2    1    2    0    0  0.56244734016E+01 -0.26543950433E+02  0.39756748034E+02  0.10247280955E+03  0.90464698513E+02 0.  0.
          5    1    1    2  502    0  0.22445232541E+02  0.46377425730E+02 -0.74974599906E+02  0.91093000347E+02  0.47000000000E+01 0. -1.
         -5    1    1    2    0  502 -0.28069705943E+02 -0.19833475297E+02  0.34966232476E+02  0.49254467286E+02  0.47000000000E+01 0.  1.
        -11    1    3    3    0    0 -0.38905656733E+01 -0.46609661919E+02 -0.10139110614E+02  0.47858109548E+02  0.00000000000E+00 0.  1.
         11    1    3    3    0    0  0.95150390749E+01  0.20065711486E+02  0.49895858648E+02  0.54614700002E+02  0.00000000000E+00 0. -1.
<mgrwt>
<rscale>  0 0.12313917E+03</rscale>
<asrwt>0</asrwt>
<pdfrwt beam="1">  1        2 0.18659128E-01 0.13452413E+03</pdfrwt>
<pdfrwt beam="2">  1       -2 0.18697838E-01 0.13452413E+03</pdfrwt>
<totfact> 0.67292092E+03</totfact>
</mgrwt>
</event>
<event>
 7    1  0.1254976E-005  0.1783112E+03  0.7546771E-02  0.1172838E+00
         -2   -1    0    0    0  501 -0.00000000000E+00  0.00000000000E+00  0.30111254253E+02  0.30111254253E+02  0.00000000000E+00 0.  1.
          2   -1    0    0  501    0  0.00000000000E+00 -0.00000000000E+00 -0.12468688920E+04  0.12468688920E+04  0.00000000000E+00 0. -1.
         23    2    1    2    0    0 -0.14224467463E+02  0.13697878841E+03 -0.88581806708E+03  0.90106008339E+03  0.90940100921E+02 0.  0.
          5    1    1    2  502    0  0.35420727917E+01 -0.12313960166E+03 -0.33534597483E+03  0.35728828781E+03  0.47000000000E+01 0. -1.
         -5    1    1    2    0  502  0.10682394671E+02 -0.13839186751E+02  0.44064041208E+01  0.18631775093E+02  0.47000000000E+01 0.  1.
        -11    1    3    3    0    0  0.97392255293E+01 -0.58186800845E+01 -0.18226092859E+02  0.21468581992E+02  0.00000000000E+00 0.  1.
         11    1    3    3    0    0 -0.23963692992E+02  0.14279746849E+03 -0.86759197422E+03  0.87959150140E+03  0.00000000000E+00 0. -1.
<mgrwt>
<rscale>  0 0.17489451E+03</rscale>
<asrwt>0</asrwt>
<pdfrwt beam="2">  1        2 0.19182598E+00 0.17831123E+03</pdfrwt>
<pdfrwt beam="1">  1       -2 0.46325008E-02 0.17831123E+03</pdfrwt>
<totfact> 0.40982310E+03</totfact>
</mgrwt>
</event>
<event>
 7    1  0.1254976E-005  0.1944463E+03  0.7546771E-02  0.1157540E+00
         -2   -1    0    0    0  501 -0.00000000000E+00  0.00000000000E+00  0.44652877703E+02  0.44652877703E+02  0.00000000000E+00 0. -1.
          2   -1    0    0  501    0  0.00000000000E+00 -0.00000000000E+00 -0.80028591071E+03  0.80028591071E+03  0.00000000000E+00 0.  1.
         23    2    1    2    0    0 -0.14322240801E+03 -0.40865209778E+02 -0.41314127687E+03  0.45109874246E+03  0.10306181282E+03 0.  0.
          5    1    1    2  502    0  0.14098912801E+03 -0.10232440597E+02 -0.22724125450E+03  0.26766268848E+03  0.47000000000E+01 0.  1.
         -5    1    1    2    0  502  0.22332800039E+01  0.51097650374E+02 -0.11525050163E+03  0.12617735747E+03  0.47000000000E+01 0.  1.
        -11    1    3    3    0    0 -0.89702943091E+02 -0.47905887749E+02 -0.36455367236E+03  0.37847189079E+03  0.00000000000E+00 0.  1.
         11    1    3    3    0    0 -0.53519464920E+02  0.70406779716E+01 -0.48587604510E+02  0.72626851671E+02  0.00000000000E+00 0. -1.
<mgrwt>
<rscale>  0 0.19102547E+03</rscale>
<asrwt>0</asrwt>
<pdfrwt beam="2">  1        2 0.12312091E+00 0.19444634E+03</pdfrwt>
<pdfrwt beam="1">  1       -2 0.68696735E-02 0.19444634E+03</pdfrwt>
<totfact> 0.42011816E+03</totfact>
</mgrwt>
</event>
<event>
 7    1  0.1254976E-005  0.1493194E+03  0.7546771E-02  0.1219833E+00
         -2   -1    0    0    0  501 -0.00000000000E+00  0.00000000000E+00  0.56111850536E+02  0.56111850536E+02  0.00000000000E+00 0.  1.
          2   -1    0    0  501    0  0.00000000000E+00 -0.00000000000E+00 -0.35583291980E+03  0.35583291980E+03  0.00000000000E+00 0. -1.
         23    2    1    2    0    0 -0.32544654079E+02 -0.13302736360E+02 -0.22174964068E+03  0.24349354864E+03  0.94234217703E+02 0.  0.
          5    1    1    2  502    0 -0.52687716936E+02 -0.14537831367E+02 -0.98236818795E+01  0.55730949951E+02  0.47000000000E+01 0. -1.
         -5    1    1    2    0  502  0.85232371015E+02  0.27840567728E+02 -0.68147746706E+02  0.11272027174E+03  0.47000000000E+01 0.  1.
        -11    1    3    3    0    0  0.24829917745E+02  0.96874400885E+00 -0.16328607275E+02  0.29733595405E+02  0.00000000000E+00 0.  1.
         11    1    3    3    0    0 -0.57374571824E+02 -0.14271480369E+02 -0.20542103340E+03  0.21375995324E+03  0.00000000000E+00 0. -1.
<mgrwt>
<rscale>  0 0.13527399E+03</rscale>
<asrwt>0</asrwt>
<pdfrwt beam="2">  1        2 0.54743526E-01 0.14931936E+03</pdfrwt>
<pdfrwt beam="1">  1       -2 0.86325923E-02 0.14931936E+03</pdfrwt>
<totfact> 0.73019020E+03</totfact>
</mgrwt>
</event>
<event>
 7    1  0.1254976E-005  0.1777672E+03  0.7546771E-02  0.1176273E+00
          2   -1    0    0  501    0  0.00000000000E+00  0.00000000000E+00  0.47308377154E+03  0.47308377154E+03  0.00000000000E+00 0.  1.
         -2   -1    0    0    0  501 -0.00000000000E+00 -0.00000000000E+00 -0.58401074227E+02  0.58401074227E+02  0.00000000000E+00 0. -1.
         23    2    1    2    0    0 -0.29813982004E+02 -0.12283844147E+03  0.20861557305E+03  0.25933629824E+03  0.88072141131E+02 0.  0.
          5    1    1    2  502    0  0.19288230835E+02  0.13335802765E+03  0.21528773998E+03  0.25402224385E+03  0.47000000000E+01 0.  1.
         -5    1    1    2    0  502  0.10525751169E+02 -0.10519586180E+02 -0.92206157062E+01  0.18126303679E+02  0.47000000000E+01 0.  1.
        -11    1    3    3    0    0 -0.44050812008E+02 -0.41566802833E+02  0.42913289650E+02  0.74228185784E+02  0.00000000000E+00 0. -1.
         11    1    3    3    0    0  0.14236830004E+02 -0.81271638633E+02  0.16570228340E+03  0.18510811246E+03  0.00000000000E+00 0.  1.
<mgrwt>
<rscale>  0 0.17151892E+03</rscale>
<asrwt>0</asrwt>
<pdfrwt beam="1">  1        2 0.72782116E-01 0.17776719E+03</pdfrwt>
<pdfrwt beam="2">  1       -2 0.89847810E-02 0.17776719E+03</pdfrwt>
<totfact> 0.50923177E+03</totfact>
</mgrwt>
</event>
<event>
 7    1  0.1254976E-005  0.2296755E+03  0.7546771E-02  0.1129987E+00
         -1   -1    0    0    0  501 -0.00000000000E+00  0.00000000000E+00  0.61982386660E+02  0.61982386660E+02  0.00000000000E+00 0.  1.
          1   -1    0    0  501    0  0.00000000000E+00 -0.00000000000E+00 -0.79603059093E+03  0.79603059093E+03  0.00000000000E+00 0. -1.
         23    2    1    2    0    0 -0.12898047801E+03 -0.14315024442E+03 -0.31361754221E+03  0.37893808060E+03  0.90056371007E+02 0.  0.
          5    1    1    2  502    0  0.17682455438E+02  0.58751365505E+02 -0.39015857922E+02  0.72860959014E+02  0.47000000000E+01 0.  1.
         -5    1    1    2    0  502  0.11129802257E+03  0.84398878918E+02 -0.38141480414E+03  0.40621393797E+03  0.47000000000E+01 0.  1.
        -11    1    3    3    0    0 -0.56627730261E+02 -0.12344901927E+03 -0.17712072584E+03  0.22319971263E+03  0.00000000000E+00 0. -1.
         11    1    3    3    0    0 -0.72352747750E+02 -0.19701225148E+02 -0.13649681637E+03  0.15573836797E+03  0.00000000000E+00 0.  1.
<mgrwt>
<rscale>  0 0.22530664E+03</rscale>
<asrwt>0</asrwt>
<pdfrwt beam="2">  1        1 0.12246625E+00 0.22967546E+03</pdfrwt>
<pdfrwt beam="1">  1       -1 0.95357517E-02 0.22967546E+03</pdfrwt>
<totfact> 0.15225702E+03</totfact>
</mgrwt>
</event>
<event>
 7    1  0.1254976E-005  0.1636727E+03  0.7546771E-02  0.1191834E+00
          1   -1    0    0  501    0  0.00000000000E+00  0.00000000000E+00  0.58250117918E+02  0.58250117918E+02  0.00000000000E+00 0. -1.
         -1   -1    0    0    0  501 -0.00000000000E+00 -0.00000000000E+00 -0.39493062046E+03  0.39493062046E+03  0.00000000000E+00 0.  1.
         23    2    1    2    0    0  0.10433984540E+03  0.16640707241E+02 -0.16328520060E+03  0.21473855536E+03  0.91032268724E+02 0.  0.
          5    1    1    2  502    0  0.21562429932E+02 -0.17466501956E+02 -0.70031298052E+02  0.75475093786E+02  0.47000000000E+01 0.  1.
         -5    1    1    2    0  502 -0.12590227533E+03  0.82579471468E+00 -0.10336400389E+03  0.16296708923E+03  0.47000000000E+01 0.  1.
        -11    1    3    3    0    0  0.94679202580E+02  0.41954188526E+02 -0.92162546372E+02  0.13862986796E+03  0.00000000000E+00 0.  1.
         11    1    3    3    0    0  0.96606428222E+01 -0.25313481285E+02 -0.71122654226E+02  0.76108687406E+02  0.00000000000E+00 0. -1.
<mgrwt>
<rscale>  0 0.15725292E+03</rscale>
<asrwt>0</asrwt>
<pdfrwt beam="1">  1        1 0.89615565E-02 0.16367267E+03</pdfrwt>
<pdfrwt beam="2">  1       -1 0.60758558E-01 0.16367267E+03</pdfrwt>
<totfact> 0.20682217E+03</totfact>
</mgrwt>
</event>
<event>
 7    1  0.1254976E-005  0.1523715E+03  0.7546771E-02  0.1205525E+00
          2   -1    0    0  501    0  0.00000000000E+00  0.00000000000E+00  0.36336379872E+03  0.36336379872E+03  0.00000000000E+00 0. -1.
         -2   -1    0    0    0  501 -0.00000000000E+00 -0.00000000000E+00 -0.55332831758E+02  0.55332831758E+02  0.00000000000E+00 0.  1.
         23    2    1    2    0    0  0.49527820829E+02 -0.71704063610E+02  0.11124781412E+03  0.16981779374E+03  0.94167558896E+02 0.  0.
          5    1    1    2  502    0 -0.63666084400E+02  0.37063850951E+00  0.38308664067E+02  0.74452343269E+02  0.47000000000E+01 0.  1.
         -5    1    1    2    0  502  0.14138263570E+02  0.71333425100E+02  0.15847448877E+03  0.17442649347E+03  0.47000000000E+01 0.  1.
        -11    1    3    3    0    0  0.66962305001E+02 -0.79920404671E+02  0.10827676763E+03  0.15031659849E+03  0.00000000000E+00 0. -1.
         11    1    3    3    0    0 -0.17434484172E+02  0.82163410612E+01  0.29710464946E+01  0.19501195247E+02  0.00000000000E+00 0.  1.
<mgrwt>
<rscale>  0 0.14596143E+03</rscale>
<asrwt>0</asrwt>
<pdfrwt beam="1">  1        2 0.55902121E-01 0.15237147E+03</pdfrwt>
<pdfrwt beam="2">  1       -2 0.85127436E-02 0.15237147E+03</pdfrwt>
<totfact> 0.73068082E+03</totfact>
</mgrwt>
</event>
<event>
 7    1  0.1254976E-005  0.1308367E+03  0.7546771E-02  0.1237662E+00
          2   -1    0    0  501    0  0.00000000000E+00  0.00000000000E+00  0.73358990921E+02  0.73358990921E+02  0.00000000000E+00 0. -1.
         -2   -1    0    0    0  501 -0.00000000000E+00 -0.00000000000E+00 -0.31712206849E+03  0.31712206849E+03  0.00000000000E+00 0.  1.
         23    2    1    2    0    0 -0.35832786932E+01  0.38467413330E+02  0.11121130079E+02  0.10397765455E+03  0.95891038877E+02 0.  0.
          5    1    1    2  502    0  0.60538882598E+01 -0.73376789999E+02 -0.83083673537E+02  0.11111160912E+03  0.47000000000E+01 0.  1.
         -5    1    1    2    0  502 -0.24706095666E+01  0.34909376669E+02 -0.17180053411E+03  0.17539179573E+03  0.47000000000E+01 0.  1.
        -11    1    3    3    0    0 -0.16364650916E+02  0.44981336556E+02 -0.32633348020E+02  0.57931492653E+02  0.00000000000E+00 0.  1.
         11    1    3    3    0    0  0.12781372223E+02 -0.65139232262E+01  0.43754478100E+02  0.46046161897E+02  0.00000000000E+00 0. -1.
<mgrwt>
<rscale>  0 0.12335523E+03</rscale>
<asrwt>0</asrwt>
<pdfrwt beam="1">  1        2 0.11285998E-01 0.13083670E+03</pdfrwt>
<pdfrwt beam="2">  1       -2 0.48788011E-01 0.13083670E+03</pdfrwt>
<totfact> 0.21438884E+03</totfact>
</mgrwt>
</event>
<event>
 7    1  0.1254976E-005  0.2056061E+03  0.7546771E-02  0.1172073E+00
          1   -1    0    0  501    0  0.00000000000E+00  0.00000000000E+00  0.80566296619E+02  0.80566296619E+02  0.00000000000E+00 0. -1.
         -1   -1    0    0    0  501 -0.00000000000E+00 -0.00000000000E+00 -0.53462172565E+03  0.53462172565E+03  0.00000000000E+00 0.  1.
         23    2    1    2    0    0 -0.51044405374E+02 -0.34308380893E+02  0.76181400602E+01  0.10980068946E+03  0.90639721032E+02 0.  0.
          5    1    1    2  502    0 -0.64582559740E+02  0.36430115292E+01 -0.68242053254E+02  0.94144816044E+02  0.47000000000E+01 0. -1.
         -5    1    1    2    0  502  0.11562696511E+03  0.30665369364E+02 -0.39343151583E+03  0.41124251676E+03  0.47000000000E+01 0.  1.
        -11    1    3    3    0    0 -0.65875499226E+02 -0.51577173081E+02  0.16659875048E+02  0.85307312805E+02  0.00000000000E+00 0. -1.
         11    1    3    3    0    0  0.14831093852E+02  0.17268792188E+02 -0.90417349875E+01  0.24493376657E+02  0.00000000000E+00 0.  1.
<mgrwt>
<rscale>  0 0.17565735E+03</rscale>
<asrwt>0</asrwt>
<pdfrwt beam="1">  1        1 0.12394815E-01 0.20560611E+03</pdfrwt>
<pdfrwt beam="2">  1       -1 0.82249495E-01 0.20560611E+03</pdfrwt>
<totfact> 0.73794445E+02</totfact>
</mgrwt>
</event>
<event>
 7    1  0.1254976E-005  0.1357183E+03  0.7546771E-02  0.1231001E+00
          1   -1    0    0  501    0  0.00000000000E+00  0.00000000000E+00  0.35325607099E+02  0.35325607099E+02  0.00000000000E+00 0. -1.
         -1   -1    0    0    0  501 -0.00000000000E+00 -0.00000000000E+00 -0.41943786969E+03  0.41943786969E+03  0.00000000000E+00 0.  1.
         23    2    1    2    0    0  0.44315632296E+02  0.28679261744E+02 -0.14343258929E+03  0.17845539918E+03  0.92125167606E+02 0.  0.
          5    1    1    2  502    0 -0.17630289001E+02 -0.75010370511E+02 -0.10441297043E+03  0.12985199717E+03  0.47000000000E+01 0. -1.
         -5    1    1    2    0  502 -0.26685343295E+02  0.46331108767E+02 -0.13626670287E+03  0.14645608044E+03  0.47000000000E+01 0. -1.
        -11    1    3    3    0    0 -0.16416250940E+02  0.12606839400E+02 -0.99905322742E+02  0.10202695333E+03  0.00000000000E+00 0.  1.
         11    1    3    3    0    0  0.60731883235E+02  0.16072422344E+02 -0.43527266547E+02  0.76428445845E+02  0.00000000000E+00 0. -1.
<mgrwt>
<rscale>  0 0.12763968E+03</rscale>
<asrwt>0</asrwt>
<pdfrwt beam="1">  1        1 0.54347086E-02 0.13571827E+03</pdfrwt>
<pdfrwt beam="2">  1       -1 0.64528906E-01 0.13571827E+03</pdfrwt>
<totfact> 0.35893146E+03</totfact>
</mgrwt>
</event>
<event>
 7    1  0.1254976E-005  0.1252075E+03  0.7546771E-02  0.1250007E+00
          1   -1    0    0  501    0  0.00000000000E+00  0.00000000000E+00  0.47594824412E+03  0.47594824412E+03  0.00000000000E+00 0. -1.
         -1   -1    0    0    0  501 -0.00000000000E+00 -0.00000000000E+00 -0.24991641106E+02  0.24991641106E+02  0.00000000000E+00 0.  1.
         23    2    1    2    0    0 -0.57324413136E+01  0.43347026056E+01  0.21457770087E+03  0.23344802102E+03  0.91666451214E+02 0.  0.
          5    1    1    2  502    0  0.61313044419E+02 -0.17301429678E+02  0.15796866627E+03  0.17039606336E+03  0.47000000000E+01 0. -1.
         -5    1    1    2    0  502 -0.55580603105E+02  0.12966727072E+02  0.78410235879E+02  0.97095800852E+02  0.47000000000E+01 0. -1.
        -11    1    3    3    0    0 -0.18516249074E+02  0.37355372544E+02  0.49989232188E+02  0.65093768306E+02  0.00000000000E+00 0.  1.
         11    1    3    3    0    0  0.12783807760E+02 -0.33020669938E+02  0.16458846868E+03  0.16835425271E+03  0.00000000000E+00 0. -1.
<mgrwt>
<rscale>  0 0.11590655E+03</rscale>
<asrwt>0</asrwt>
<pdfrwt beam="1">  1        1 0.73222800E-01 0.12520748E+03</pdfrwt>
<pdfrwt beam="2">  1       -1 0.38448682E-02 0.12520748E+03</pdfrwt>
<totfact> 0.11863412E+04</totfact>
</mgrwt>
</event>
<event>
 7    1  0.1254976E-005  0.1603572E+03  0.7546771E-02  0.1195656E+00
         -2   -1    0    0    0  501 -0.00000000000E+00  0.00000000000E+00  0.90267950184E+02  0.90267950184E+02  0.00000000000E+00 0.  1.
          2   -1    0    0  501    0  0.00000000000E+00 -0.00000000000E+00 -0.47082708601E+03  0.47082708601E+03  0.00000000000E+00 0. -1.
         23    2    1    2    0    0 -0.84070965823E+02  0.54920676226E+02 -0.37677723318E+03  0.40069323769E+03  0.92248465123E+02 0.  0.
          5    1    1    2  502    0  0.18508566567E+02  0.54718839777E+01  0.51643079453E+02  0.55331782965E+02  0.47000000000E+01 0. -1.
         -5    1    1    2    0  502  0.65562399256E+02 -0.60392560204E+02 -0.55424982100E+02  0.10507001554E+03  0.47000000000E+01 0. -1.
        -11    1    3    3    0    0 -0.84196233759E-01 -0.19060345761E+02 -0.10593519475E+03  0.10763628272E+03  0.00000000000E+00 0. -1.
         11    1    3    3    0    0 -0.83986769589E+02  0.73981021987E+02 -0.27084203842E+03  0.29305695497E+03  0.00000000000E+00 0.  1.
<mgrwt>
<rscale>  0 0.15398837E+03</rscale>
<asrwt>0</asrwt>
<pdfrwt beam="2">  1        2 0.72434935E-01 0.16035721E+03</pdfrwt>
<pdfrwt beam="1">  1       -2 0.13887377E-01 0.16035721E+03</pdfrwt>
<totfact> 0.25450809E+03</totfact>
</mgrwt>
</event>
<event>
 7    1  0.1254976E-005  0.1921392E+03  0.7546771E-02  0.1165027E+00
          1   -1    0    0  501    0  0.00000000000E+00  0.00000000000E+00  0.34078525123E+03  0.34078525123E+03  0.00000000000E+00 0. -1.
         -1   -1    0    0    0  501 -0.00000000000E+00 -0.00000000000E+00 -0.96543614028E+02  0.96543614028E+02  0.00000000000E+00 0.  1.
         23    2    1    2    0    0 -0.11535911585E+03  0.89356031469E+02  0.16843207682E+03  0.23077487257E+03  0.59962082473E+02 0.  0.
          5    1    1    2  502    0  0.78928200029E+02 -0.12885644946E+02  0.90055135624E+02  0.12053098381E+03  0.47000000000E+01 0. -1.
         -5    1    1    2    0  502  0.36430915825E+02 -0.76470386523E+02 -0.14245575247E+02  0.86023008881E+02  0.47000000000E+01 0. -1.
        -11    1    3    3    0    0 -0.35098292382E+02  0.63754688157E+02  0.89225043684E+02  0.11514190727E+03  0.00000000000E+00 0.  1.
         11    1    3    3    0    0 -0.80260823472E+02  0.25601343313E+02  0.79207033140E+02  0.11563296529E+03  0.00000000000E+00 0. -1.
<mgrwt>
<rscale>  0 0.18289843E+03</rscale>
<asrwt>0</asrwt>
<pdfrwt beam="1">  1        1 0.52428500E-01 0.19213917E+03</pdfrwt>
<pdfrwt beam="2">  1       -1 0.14852864E-01 0.19213917E+03</pdfrwt>
<totfact> 0.23999163E+03</totfact>
</mgrwt>
</event>
<event>
 7    1  0.1254976E-005  0.1305290E+03  0.7546771E-02  0.1242154E+00
          2   -1    0    0  501    0  0.00000000000E+00  0.00000000000E+00  0.13980122288E+02  0.13980122288E+02  0.00000000000E+00 0.  1.
         -2   -1    0    0    0  501 -0.00000000000E+00 -0.00000000000E+00 -0.10583954692E+04  0.10583954692E+04  0.00000000000E+00 0. -1.
         23    2    1    2    0    0 -0.25971008358E+02 -0.27177829621E+02 -0.25284211509E+03  0.27011253683E+03  0.87284131961E+02 0.  0.
          5    1    1    2  502    0  0.76050930273E+02  0.15303308569E+02 -0.52562907601E+03  0.53134353369E+03  0.47000000000E+01 0. -1.
         -5    1    1    2    0  502 -0.50079921915E+02  0.11874521053E+02 -0.26594415577E+03  0.27091952092E+03  0.47000000000E+01 0. -1.
        -11    1    3    3    0    0  0.29267403832E+02 -0.26761251785E+02 -0.98567918256E+02  0.10624678834E+03  0.00000000000E+00 0.  1.
         11    1    3    3    0    0 -0.55238412190E+02 -0.41657783634E+00 -0.15427419683E+03  0.16386574849E+03  0.00000000000E+00 0. -1.
<mgrwt>
<rscale>  0 0.12057332E+03</rscale>
<asrwt>0</asrwt>
<pdfrwt beam="1">  1        2 0.21507875E-02 0.13052903E+03</pdfrwt>
<pdfrwt beam="2">  1       -2 0.16283012E+00 0.13052903E+03</pdfrwt>
<totfact> 0.12175120E+03</totfact>
</mgrwt>
</event>
<event>
 7    1  0.1254976E-005  0.1259277E+03  0.7546771E-02  0.1254741E+00
         -2   -1    0    0    0  501 -0.00000000000E+00  0.00000000000E+00  0.21346149262E+03  0.21346149262E+03  0.00000000000E+00 0. -1.
          2   -1    0    0  501    0  0.00000000000E+00 -0.00000000000E+00 -0.69638506059E+02  0.69638506059E+02  0.00000000000E+00 0.  1.
         23    2    1    2    0    0 -0.15185667213E+02 -0.11665066423E+01 -0.11597366668E+02  0.83066812694E+02  0.80830880430E+02 0.  0.
          5    1    1    2  502    0 -0.14734316706E+02 -0.39870310364E+02  0.14054190197E+03  0.14690424755E+03  0.47000000000E+01 0.  1.
         -5    1    1    2    0  502  0.29919983919E+02  0.41036817006E+02  0.14878451257E+02  0.53128938438E+02  0.47000000000E+01 0.  1.
        -11    1    3    3    0    0  0.90682573227E+01 -0.87386670620E+01 -0.41766368964E+02  0.43623699629E+02  0.00000000000E+00 0.  1.
         11    1    3    3    0    0 -0.24253924535E+02  0.75721604197E+01  0.30169002295E+02  0.39443113065E+02  0.00000000000E+00 0. -1.
<mgrwt>
<rscale>  0 0.11320856E+03</rscale>
<asrwt>0</asrwt>
<pdfrwt beam="2">  1        2 0.10713616E-01 0.12592771E+03</pdfrwt>
<pdfrwt beam="1">  1       -2 0.32840229E-01 0.12592771E+03</pdfrwt>
<totfact> 0.48169452E+03</totfact>
</mgrwt>
</event>
<event>
 7    1  0.1254976E-005  0.1371570E+03  0.7546771E-02  0.1227710E+00
          1   -1    0    0  501    0  0.00000000000E+00  0.00000000000E+00  0.83099571575E+02  0.83099571575E+02  0.00000000000E+00 0. -1.
         -1   -1    0    0    0  501 -0.00000000000E+00 -0.00000000000E+00 -0.19022119127E+03  0.19022119127E+03  0.00000000000E+00 0.  1.
         23    2    1    2    0    0 -0.36932011045E+02  0.42705776102E+02 -0.23208206744E+02  0.11253051807E+03  0.94534331779E+02 0.  0.
          5    1    1    2  502    0  0.33143025227E+02 -0.86311608127E+02 -0.49963579473E+02  0.10519792342E+03  0.47000000000E+01 0.  1.
         -5    1    1    2    0  502  0.37889858179E+01  0.43605832025E+02 -0.33949833482E+02  0.55592321354E+02  0.47000000000E+01 0.  1.
        -11    1    3    3    0    0 -0.36451725978E+02 -0.12630648996E+02 -0.39127803646E+02  0.54947671825E+02  0.00000000000E+00 0.  1.
         11    1    3    3    0    0 -0.48028506657E+00  0.55336425098E+02  0.15919596902E+02  0.57582846247E+02  0.00000000000E+00 0. -1.
<mgrwt>
<rscale>  0 0.12982892E+03</rscale>
<asrwt>0</asrwt>
<pdfrwt beam="1">  1        1 0.12784550E-01 0.13715700E+03</pdfrwt>
<pdfrwt beam="2">  1       -1 0.29264798E-01 0.13715700E+03</pdfrwt>
<totfact> 0.46981867E+03</totfact>
</mgrwt>
</event>
<event>
 7    1  0.1254976E-005  0.1280856E+03  0.7546771E-02  0.1244750E+00
          4   -1    0    0  501    0  0.00000000000E+00  0.00000000000E+00  0.23192486493E+02  0.23192486493E+02  0.00000000000E+00 0. -1.
         -4   -1    0    0    0  501 -0.00000000000E+00 -0.00000000000E+00 -0.57065181489E+03  0.57065181489E+03  0.00000000000E+00 0.  1.
         23    2    1    2    0    0 -0.20176482381E+02 -0.19362434343E+02 -0.16632316862E+03  0.19176134916E+03  0.91252530417E+02 0.  0.
          5    1    1    2  502    0 -0.80893905044E+01  0.38494331513E+02 -0.31123742869E+02  0.50378856354E+02  0.47000000000E+01 0.  1.
         -5    1    1    2    0  502  0.28265872885E+02 -0.19131897170E+02 -0.35001241691E+03  0.35170409587E+03  0.47000000000E+01 0.  1.
        -11    1    3    3    0    0  0.26196209225E+02 -0.17213610942E+02 -0.17572732193E+02  0.35935368318E+02  0.00000000000E+00 0. -1.
         11    1    3    3    0    0 -0.46372691605E+02 -0.21488234007E+01 -0.14875043643E+03  0.15582598084E+03  0.00000000000E+00 0.  1.
<mgrwt>
<rscale>  0 0.11900337E+03</rscale>
<asrwt>0</asrwt>
<pdfrwt beam="1">  1        4 0.35680746E-02 0.12808563E+03</pdfrwt>
<pdfrwt beam="2">  1       -4 0.87792593E-01 0.12808563E+03</pdfrwt>
<totfact> 0.77458786E+02</totfact>
</mgrwt>
</event>
<event>
 7    1  0.1254976E-005  0.1700620E+03  0.7546771E-02  0.1184016E+00
          1   -1    0    0  501    0  0.00000000000E+00  0.00000000000E+00  0.19493402350E+03  0.19493402350E+03  0.00000000000E+00 0.  1.
         -1   -1    0    0    0  501 -0.00000000000E+00 -0.00000000000E+00 -0.13056866543E+03  0.13056866543E+03  0.00000000000E+00 0. -1.
         23    2    1    2    0    0 -0.11407008491E+03  0.16820867368E+02  0.43729456199E+02  0.15419322416E+03  0.92565431930E+02 0.  0.
          5    1    1    2  502    0  0.74622997286E+02  0.51276641117E+02  0.17961235620E+02  0.92426087406E+02  0.47000000000E+01 0.  1.
         -5    1    1    2    0  502  0.39447087622E+02 -0.68097508484E+02  0.26746662501E+01  0.78883377356E+02  0.47000000000E+01 0.  1.
        -11    1    3    3    0    0 -0.70298698946E+02 -0.36075357969E+02  0.19502714280E+02  0.81386082289E+02  0.00000000000E+00 0.  1.
         11    1    3    3    0    0 -0.43771385962E+02  0.52896225336E+02  0.24226741919E+02  0.72807141874E+02  0.00000000000E+00 0. -1.
<mgrwt>
<rscale>  0 0.16421769E+03</rscale>
<asrwt>0</asrwt>
<pdfrwt beam="1">  1        1 0.29989850E-01 0.17006202E+03</pdfrwt>
<pdfrwt beam="2">  1       -1 0.20087487E-01 0.17006202E+03</pdfrwt>
<totfact> 0.29652968E+03</totfact>
</mgrwt>
</event>
<event>
 7    1  0.1254976E-005  0.2163433E+03  0.7546771E-02  0.1136639E+00
          4   -1    0    0  501    0  0.00000000000E+00  0.00000000000E+00  0.59593408392E+03  0.59593408392E+03  0.00000000000E+00 0. -1.
         -4   -1    0    0    0  501 -0.00000000000E+00 -0.00000000000E+00 -0.19634906343E+02  0.19634906343E+02  0.00000000000E+00 0.  1.
         23    2    1    2    0    0 -0.12119726447E+02  0.69629664345E+01  0.25440838766E+03  0.26997705275E+03  0.89267074716E+02 0.  0.
          5    1    1    2  502    0  0.51027952861E+02 -0.38011669137E+02  0.25006867746E+03  0.25807977916E+03  0.47000000000E+01 0. -1.
         -5    1    1    2    0  502 -0.38908226414E+02  0.31048702703E+02  0.71822112449E+02  0.87512158349E+02  0.47000000000E+01 0. -1.
        -11    1    3    3    0    0 -0.40752228460E+02  0.25280747989E+02  0.88858564897E+02  0.10097378323E+03  0.00000000000E+00 0.  1.
         11    1    3    3    0    0  0.28632502012E+02 -0.18317781555E+02  0.16554982277E+03  0.16900326953E+03  0.00000000000E+00 0. -1.
<mgrwt>
<rscale>  0 0.21634334E+03</rscale>
<asrwt>0</asrwt>
<pdfrwt beam="1">  1        4 0.91682153E-01 0.21634334E+03</pdfrwt>
<pdfrwt beam="2">  1       -4 0.30207553E-02 0.21634334E+03</pdfrwt>
<totfact> 0.10087208E+03</totfact>
</mgrwt>
</event>
<event>
 7    1  0.1254976E-005  0.1678693E+03  0.7546771E-02  0.1186816E+00
          2   -1    0    0  501    0  0.00000000000E+00  0.00000000000E+00  0.42888597609E+03  0.42888597609E+03  0.00000000000E+00 0. -1.
         -2   -1    0    0    0  501 -0.00000000000E+00 -0.00000000000E+00 -0.59375236433E+02  0.59375236433E+02  0.00000000000E+00 0.  1.
         23    2    1    2    0    0  0.90936687557E+02 -0.65455842256E+02  0.22164691461E+03  0.26455646116E+03  0.91152717760E+02 0.  0.
          5    1    1    2  502    0 -0.57890942044E+02  0.42831055953E+02  0.16484648063E+03  0.17995086190E+03  0.47000000000E+01 0. -1.
         -5    1    1    2    0  502 -0.33045745512E+02  0.22624786303E+02 -0.16982655586E+02  0.43753889455E+02  0.47000000000E+01 0. -1.
        -11    1    3    3    0    0  0.88628204951E+02 -0.14085775059E+02  0.16657016532E+03  0.18920620430E+03  0.00000000000E+00 0. -1.
         11    1    3    3    0    0  0.23084826056E+01 -0.51370067197E+02  0.55076749291E+02  0.75350256856E+02  0.00000000000E+00 0.  1.
<mgrwt>
<rscale>  0 0.16167764E+03</rscale>
<asrwt>0</asrwt>
<pdfrwt beam="1">  1        2 0.65982456E-01 0.16786931E+03</pdfrwt>
<pdfrwt beam="2">  1       -2 0.91346520E-02 0.16786931E+03</pdfrwt>
<totfact> 0.55071243E+03</totfact>
</mgrwt>
</event>
<event>
 7    1  0.1254976E-005  0.1524363E+03  0.7546771E-02  0.1202909E+00
          1   -1    0    0  501    0  0.00000000000E+00  0.00000000000E+00  0.32321140547E+03  0.32321140547E+03  0.00000000000E+00 0. -1.
         -1   -1    0    0    0  501 -0.00000000000E+00 -0.00000000000E+00 -0.11353759053E+03  0.11353759053E+03  0.00000000000E+00 0.  1.
         23    2    1    2    0    0 -0.86480095507E+02 -0.11575658197E+02  0.24523712956E+03  0.28021922999E+03  0.10377265708E+03 0.  0.
          5    1    1    2  502    0  0.10361843246E+03 -0.29057179897E+02 -0.30106262207E+02  0.11184621707E+03  0.47000000000E+01 0.  1.
         -5    1    1    2    0  502 -0.17138336950E+02  0.40632838094E+02 -0.54570524146E+01  0.44683548942E+02  0.47000000000E+01 0.  1.
        -11    1    3    3    0    0 -0.79525996139E+02  0.35043166455E+02  0.13805095071E+03  0.16312716687E+03  0.00000000000E+00 0. -1.
         11    1    3    3    0    0 -0.69540993687E+01 -0.46618824652E+02  0.10718617885E+03  0.11709206312E+03  0.00000000000E+00 0.  1.
<mgrwt>
<rscale>  0 0.14803488E+03</rscale>
<asrwt>0</asrwt>
<pdfrwt beam="1">  1        1 0.49724831E-01 0.15243628E+03</pdfrwt>
<pdfrwt beam="2">  1       -1 0.17467322E-01 0.15243628E+03</pdfrwt>
<totfact> 0.19690512E+03</totfact>
</mgrwt>
</event>
<event>
 7    1  0.1254976E-005  0.1254872E+03  0.7546771E-02  0.1249900E+00
         -2   -1    0    0    0  501 -0.00000000000E+00  0.00000000000E+00  0.10589753607E+03  0.10589753607E+03  0.00000000000E+00 0.  1.
          2   -1    0    0  501    0  0.00000000000E+00 -0.00000000000E+00 -0.16360823336E+03  0.16360823336E+03  0.00000000000E+00 0. -1.
         23    2    1    2    0    0  0.96490927994E+01 -0.54012884018E+01 -0.10142803231E+03  0.13662149174E+03  0.90859822584E+02 0.  0.
          5    1    1    2  502    0 -0.56471490420E+02  0.22751953304E+02  0.54197619508E+02  0.81646509844E+02  0.47000000000E+01 0.  1.
         -5    1    1    2    0  502  0.46822397620E+02 -0.17350664902E+02 -0.10480284490E+02  0.51237767852E+02  0.47000000000E+01 0.  1.
        -11    1    3    3    0    0 -0.39436343861E+02  0.77081023094E+01 -0.37491415553E+02  0.54956767541E+02  0.00000000000E+00 0.  1.
         11    1    3    3    0    0  0.49085436661E+02 -0.13109390711E+02 -0.63936616754E+02  0.81664724202E+02  0.00000000000E+00 0. -1.
<mgrwt>
<rscale>  0 0.11596865E+03</rscale>
<asrwt>0</asrwt>
<pdfrwt beam="2">  1        2 0.25170498E-01 0.12548715E+03</pdfrwt>
<pdfrwt beam="1">  1       -2 0.16291929E-01 0.12548715E+03</pdfrwt>
<totfact> 0.60213776E+03</totfact>
</mgrwt>
</event>
<event>
 7    1  0.1254976E-005  0.1359208E+03  0.7546771E-02  0.1230984E+00
         -2   -1    0    0    0  501 -0.00000000000E+00  0.00000000000E+00  0.15136192924E+02  0.15136192924E+02  0.00000000000E+00 0.  1.
          2   -1    0    0  501    0  0.00000000000E+00 -0.00000000000E+00 -0.96509587509E+03  0.96509587509E+03  0.00000000000E+00 0. -1.
         23    2    1    2    0    0  0.17592435552E+02  0.50390535555E+02 -0.42708755426E+03  0.43998238780E+03  0.91279914045E+02 0.  0.
          5    1    1    2  502    0 -0.26927308619E+02  0.36087994525E+02 -0.24134916806E+03  0.24555841305E+03  0.47000000000E+01 0. -1.
         -5    1    1    2    0  502  0.93348730664E+01 -0.86478530080E+02 -0.28152295984E+03  0.29469126716E+03  0.47000000000E+01 0. -1.
        -11    1    3    3    0    0 -0.37481839065E+02  0.22661757772E+02 -0.19328204045E+03  0.19818272045E+03  0.00000000000E+00 0. -1.
         11    1    3    3    0    0  0.55074274617E+02  0.27728777783E+02 -0.23380551382E+03  0.24179966736E+03  0.00000000000E+00 0.  1.
<mgrwt>
<rscale>  0 0.12765067E+03</rscale>
<asrwt>0</asrwt>
<pdfrwt beam="2">  1        2 0.14847626E+00 0.13592077E+03</pdfrwt>
<pdfrwt beam="1">  1       -2 0.23286455E-02 0.13592077E+03</pdfrwt>
<totfact> 0.16292960E+04</totfact>
</mgrwt>
</event>
<event>
 7    1  0.1254976E-005  0.2105478E+03  0.7546771E-02  0.1144389E+00
          2   -1    0    0  501    0  0.00000000000E+00  0.00000000000E+00  0.49612702739E+03  0.49612702739E+03  0.00000000000E+00 0. -1.
         -2   -1    0    0    0  501 -0.00000000000E+00 -0.00000000000E+00 -0.94831848157E+02  0.94831848157E+02  0.00000000000E+00 0.  1.
         23    2    1    2    0    0  0.16932115556E+03  0.59745685115E+01  0.29915127236E+03  0.35694228151E+03  0.95973743219E+02 0.  0.
          5    1    1    2  502    0 -0.40259785636E+02  0.41871521417E+02  0.72708861372E+02  0.93181238280E+02  0.47000000000E+01 0. -1.
         -5    1    1    2    0  502 -0.12906136992E+03 -0.47846089929E+02  0.29435045507E+02  0.14083535576E+03  0.47000000000E+01 0. -1.
        -11    1    3    3    0    0  0.10583931755E+03  0.49292099965E+02  0.16139616389E+03  0.19919938248E+03  0.00000000000E+00 0.  1.
         11    1    3    3    0    0  0.63481838009E+02 -0.43317531454E+02  0.13775510846E+03  0.15774289904E+03  0.00000000000E+00 0. -1.
<mgrwt>
<rscale>  0 0.20647446E+03</rscale>
<asrwt>0</asrwt>
<pdfrwt beam="1">  1        2 0.76327234E-01 0.21054783E+03</pdfrwt>
<pdfrwt beam="2">  1       -2 0.14589515E-01 0.21054783E+03</pdfrwt>
<totfact> 0.22332067E+03</totfact>
</mgrwt>
</event>
<event>
 7    1  0.1254976E-005  0.1266115E+03  0.7546771E-02  0.1248317E+00
          2   -1    0    0  501    0  0.00000000000E+00  0.00000000000E+00  0.22590792827E+02  0.22590792827E+02  0.00000000000E+00 0.  1.
         -2   -1    0    0    0  501 -0.00000000000E+00 -0.00000000000E+00 -0.60302909722E+03  0.60302909722E+03  0.00000000000E+00 0. -1.
         23    2    1    2    0    0  0.19249209366E+02  0.51658522537E+01 -0.14135525160E+03  0.16864680787E+03  0.89795437297E+02 0.  0.
          5    1    1    2  502    0 -0.28036451719E+02 -0.33157570268E+02 -0.48522433917E+02  0.65283870016E+02  0.47000000000E+01 0. -1.
         -5    1    1    2    0  502  0.87872423529E+01  0.27991718014E+02 -0.39056061888E+03  0.39168921216E+03  0.47000000000E+01 0. -1.
        -11    1    3    3    0    0 -0.15450149211E+02 -0.44345902253E+01  0.58479747605E+01  0.17104721860E+02  0.00000000000E+00 0.  1.
         11    1    3    3    0    0  0.34699358578E+02  0.96004424790E+01 -0.14720322636E+03  0.15154208601E+03  0.00000000000E+00 0. -1.
<mgrwt>
<rscale>  0 0.11689043E+03</rscale>
<asrwt>0</asrwt>
<pdfrwt beam="1">  1        2 0.34755060E-02 0.12661149E+03</pdfrwt>
<pdfrwt beam="2">  1       -2 0.92773722E-01 0.12661149E+03</pdfrwt>
<totfact> 0.24882499E+03</totfact>
</mgrwt>
</event>
<event>
 7    1  0.1254976E-005  0.1648141E+03  0.7546771E-02  0.1190219E+00
          2   -1    0    0  501    0  0.00000000000E+00  0.00000000000E+00  0.20845971853E+03  0.20845971853E+03  0.00000000000E+00 0. -1.
         -2   -1    0    0    0  501 -0.00000000000E+00 -0.00000000000E+00 -0.11809654205E+03  0.11809654205E+03  0.00000000000E+00 0.  1.
         23    2    1    2    0    0  0.32672940843E+02 -0.10234641911E+03  0.77183357261E+02  0.16121601108E+03  0.92146736372E+02 0.  0.
          5    1    1    2  502    0  0.12750403929E+00  0.12451292176E+03  0.53769519431E+01  0.12471762327E+03  0.47000000000E+01 0. -1.
         -5    1    1    2    0  502 -0.32800444882E+02 -0.22166502648E+02  0.78028672809E+01  0.40622626231E+02  0.47000000000E+01 0. -1.
        -11    1    3    3    0    0  0.29895998545E+02 -0.36284499302E+01 -0.75980055154E+01  0.31059073806E+02  0.00000000000E+00 0.  1.
         11    1    3    3    0    0  0.27769422984E+01 -0.98717969179E+02  0.84781362776E+02  0.13015693728E+03  0.00000000000E+00 0. -1.
<mgrwt>
<rscale>  0 0.15865908E+03</rscale>
<asrwt>0</asrwt>
<pdfrwt beam="1">  1        2 0.32070726E-01 0.16481411E+03</pdfrwt>
<pdfrwt beam="2">  1       -2 0.18168699E-01 0.16481411E+03</pdfrwt>
<totfact> 0.39201876E+03</totfact>
</mgrwt>
</event>
<event>
 7    1  0.1254976E-005  0.2306589E+03  0.7546771E-02  0.1126177E+00
          2   -1    0    0  501    0  0.00000000000E+00  0.00000000000E+00  0.34513290704E+02  0.34513290704E+02  0.00000000000E+00 0. -1.
         -2   -1    0    0    0  501 -0.00000000000E+00 -0.00000000000E+00 -0.38538442183E+03  0.38538442183E+03  0.00000000000E+00 0.  1.
         23    2    1    2    0    0  0.32879128929E+02  0.75713240340E+01 -0.11735092030E+03  0.15290282357E+03  0.92030825772E+02 0.  0.
          5    1    1    2  502    0 -0.73660447252E+02 -0.71092168097E+01 -0.20216999340E+03  0.21533972853E+03  0.47000000000E+01 0. -1.
         -5    1    1    2    0  502  0.40781318322E+02 -0.46210722429E+00 -0.31350217429E+02  0.51655160439E+02  0.47000000000E+01 0. -1.
        -11    1    3    3    0    0  0.40673373023E+02 -0.33768634112E+02 -0.46012116517E+02  0.70083941023E+02  0.00000000000E+00 0.  1.
         11    1    3    3    0    0 -0.77942440935E+01  0.41339958146E+02 -0.71338803783E+02  0.82818882543E+02  0.00000000000E+00 0. -1.
<mgrwt>
<rscale>  0 0.23065892E+03</rscale>
<asrwt>0</asrwt>
<pdfrwt beam="1">  1        2 0.53097369E-02 0.23065892E+03</pdfrwt>
<pdfrwt beam="2">  1       -2 0.59289912E-01 0.23065892E+03</pdfrwt>
<totfact> 0.38820850E+03</totfact>
</mgrwt>
</event>
<event>
 7    1  0.1254976E-005  0.1397803E+03  0.7546771E-02  0.1226440E+00
          1   -1    0    0  501    0  0.00000000000E+00  0.00000000000E+00  0.15985153222E+03  0.15985153222E+03  0.00000000000E+00 0. -1.
         -1   -1    0    0    0  501 -0.00000000000E+00 -0.00000000000E+00 -0.14533943353E+03  0.14533943353E+03  0.00000000000E+00 0.  1.
         23    2    1    2    0    0 -0.39177803889E+02  0.39075306477E+02  0.95815915864E+02  0.14348490966E+03  0.91353432736E+02 0.  0.
          5    1    1    2  502    0  0.35947966868E+02 -0.85090158338E+02 -0.62729215893E+02  0.11175703958E+03  0.47000000000E+01 0. -1.
         -5    1    1    2    0  502  0.32298370211E+01  0.46014851861E+02 -0.18574601278E+02  0.49949016523E+02  0.47000000000E+01 0.  1.
        -11    1    3    3    0    0 -0.38372762396E+02  0.54498386768E+02  0.25292011018E+02  0.71289752949E+02  0.00000000000E+00 0.  1.
         11    1    3    3    0    0 -0.80504149232E+00 -0.15423080290E+02  0.70523904846E+02  0.72195156709E+02  0.00000000000E+00 0. -1.
<mgrwt>
<rscale>  0 0.13068690E+03</rscale>
<asrwt>0</asrwt>
<pdfrwt beam="1">  1        1 0.24592543E-01 0.13978032E+03</pdfrwt>
<pdfrwt beam="2">  1       -1 0.22359913E-01 0.13978032E+03</pdfrwt>
<totfact> 0.31686314E+03</totfact>
</mgrwt>
</event>
<event>
 7    1  0.1254976E-005  0.1295701E+03  0.7546771E-02  0.1242851E+00
          2   -1    0    0  501    0  0.00000000000E+00  0.00000000000E+00  0.76345006943E+03  0.76345006943E+03  0.00000000000E+00 0. -1.
         -2   -1    0    0    0  501 -0.00000000000E+00 -0.00000000000E+00 -0.16839659050E+02  0.16839659050E+02  0.00000000000E+00 0.  1.
         23    2    1    2    0    0  0.58634799262E+01 -0.31733922186E+02  0.36085148486E+03  0.37335195144E+03  0.90202346420E+02 0.  0.
          5    1    1    2  502    0  0.90143427677E+01 -0.24406922793E+02  0.31115037600E+03  0.31227168098E+03  0.47000000000E+01 0. -1.
         -5    1    1    2    0  502 -0.14877822694E+02  0.56140844979E+02  0.74608549510E+02  0.94666096060E+02  0.47000000000E+01 0.  1.
        -11    1    3    3    0    0 -0.31887139137E+02  0.11022405659E+02  0.19672689479E+03  0.19959898347E+03  0.00000000000E+00 0.  1.
         11    1    3    3    0    0  0.37750619063E+02 -0.42756327845E+02  0.16412459007E+03  0.17375296797E+03  0.00000000000E+00 0. -1.
<mgrwt>
<rscale>  0 0.12014934E+03</rscale>
<asrwt>0</asrwt>
<pdfrwt beam="1">  1        2 0.11745383E+00 0.12957008E+03</pdfrwt>
<pdfrwt beam="2">  1       -2 0.25907174E-02 0.12957008E+03</pdfrwt>
<totfact> 0.18760244E+04</totfact>
</mgrwt>
</event>
<event>
 7    1  0.1254976E-005  0.1284225E+03  0.7546771E-02  0.1241287E+00
         -4   -1    0    0    0  501 -0.00000000000E+00  0.00000000000E+00  0.24687309257E+03  0.24687309257E+03  0.00000000000E+00 0.  1.
          4   -1    0    0  501    0  0.00000000000E+00 -0.00000000000E+00 -0.54072139073E+02  0.54072139073E+02  0.00000000000E+00 0. -1.
         23    2    1    2    0    0  0.45420747213E+02  0.11960388871E+01  0.70713231619E+02  0.12375111899E+03  0.90826777653E+02 0.  0.
          5    1    1    2  502    0 -0.41713098745E+02 -0.74793897288E+01 -0.10831039588E+02  0.43992332243E+02  0.47000000000E+01 0. -1.
         -5    1    1    2    0  502 -0.37076484679E+01  0.62833508417E+01  0.13291876147E+03  0.13320178041E+03  0.47000000000E+01 0.  1.
        -11    1    3    3    0    0  0.72295651744E+02  0.10475596095E+02  0.53017965190E+02  0.90262417470E+02  0.00000000000E+00 0.  1.
         11    1    3    3    0    0 -0.26874904531E+02 -0.92795572079E+01  0.17695266429E+02  0.33488701520E+02  0.00000000000E+00 0. -1.
<mgrwt>
<rscale>  0 0.12110418E+03</rscale>
<asrwt>0</asrwt>
<pdfrwt beam="2">  1        4 0.83187907E-02 0.12842251E+03</pdfrwt>
<pdfrwt beam="1">  1       -4 0.37980475E-01 0.12842251E+03</pdfrwt>
<totfact> 0.11363827E+03</totfact>
</mgrwt>
</event>
<event>
 7    1  0.1254976E-005  0.1294910E+03  0.7546771E-02  0.1234253E+00
          1   -1    0    0  501    0  0.00000000000E+00  0.00000000000E+00  0.85864930322E+02  0.85864930322E+02  0.00000000000E+00 0. -1.
         -1   -1    0    0    0  501 -0.00000000000E+00 -0.00000000000E+00 -0.19305553744E+03  0.19305553744E+03  0.00000000000E+00 0.  1.
         23    2    1    2    0    0  0.15004504254E+02 -0.64403395184E+02 -0.58454299226E+01  0.11448575690E+03  0.93273184906E+02 0.  0.
          5    1    1    2  502    0  0.14471344404E+02  0.83640790086E+02 -0.40923185377E+02  0.94350403690E+02  0.47000000000E+01 0. -1.
         -5    1    1    2    0  502 -0.29475848658E+02 -0.19237394902E+02 -0.60421991817E+02  0.70084307172E+02  0.47000000000E+01 0.  1.
        -11    1    3    3    0    0 -0.16384469521E+02  0.11168342663E+02 -0.23524434902E+02  0.30766568818E+02  0.00000000000E+00 0.  1.
         11    1    3    3    0    0  0.31388973776E+02 -0.75571737847E+02  0.17679004980E+02  0.83719188081E+02  0.00000000000E+00 0. -1.
<mgrwt>
<rscale>  0 0.12552376E+03</rscale>
<asrwt>0</asrwt>
<pdfrwt beam="1">  1        1 0.13209989E-01 0.12949104E+03</pdfrwt>
<pdfrwt beam="2">  1       -1 0.29700852E-01 0.12949104E+03</pdfrwt>
<totfact> 0.43758149E+03</totfact>
</mgrwt>
</event>
<event>
 7    1  0.1254976E-005  0.1794509E+03  0.7546771E-02  0.1173904E+00
          4   -1    0    0  501    0  0.00000000000E+00  0.00000000000E+00  0.15653259660E+02  0.15653259660E+02  0.00000000000E+00 0. -1.
         -4   -1    0    0    0  501 -0.00000000000E+00 -0.00000000000E+00 -0.18685563624E+04  0.18685563624E+04  0.00000000000E+00 0.  1.
         23    2    1    2    0    0 -0.12400353239E+03 -0.34676249529E+02 -0.71607248511E+03  0.73330281759E+03  0.91618229776E+02 0.  0.
          5    1    1    2  502    0  0.26948438768E+02 -0.21571224911E+02 -0.70052153177E+02  0.78236374282E+02  0.47000000000E+01 0. -1.
         -5    1    1    2    0  502  0.97055093619E+02  0.56247474440E+02 -0.10667784645E+04  0.10726704302E+04  0.47000000000E+01 0. -1.
        -11    1    3    3    0    0 -0.68018566079E+02 -0.64800158865E+02 -0.39774531396E+03  0.40868927158E+03  0.00000000000E+00 0. -1.
         11    1    3    3    0    0 -0.55984966307E+02  0.30123909336E+02 -0.31832717114E+03  0.32461354601E+03  0.00000000000E+00 0.  1.
<mgrwt>
<rscale>  0 0.17383752E+03</rscale>
<asrwt>0</asrwt>
<pdfrwt beam="1">  1        4 0.24081933E-02 0.17945088E+03</pdfrwt>
<pdfrwt beam="2">  1       -4 0.28747027E+00 0.17945088E+03</pdfrwt>
<totfact> 0.58900588E+01</totfact>
</mgrwt>
</event>
<event>
 7    1  0.1254976E-005  0.1376288E+03  0.7546771E-02  0.1228600E+00
          1   -1    0    0  501    0  0.00000000000E+00  0.00000000000E+00  0.16650850093E+03  0.16650850093E+03  0.00000000000E+00 0. -1.
         -1   -1    0    0    0  501 -0.00000000000E+00 -0.00000000000E+00 -0.12921137205E+03  0.12921137205E+03  0.00000000000E+00 0.  1.
         23    2    1    2    0    0 -0.56947308545E+02  0.86360117082E+01  0.98193238661E+02  0.14522066541E+03  0.90164033273E+02 0.  0.
          5    1    1    2  502    0  0.69467206618E+02 -0.17332640687E+02  0.14697463093E+02  0.73240826387E+02  0.47000000000E+01 0. -1.
         -5    1    1    2    0  502 -0.12519898073E+02  0.86966289792E+01 -0.75593572867E+02  0.77258381177E+02  0.47000000000E+01 0. -1.
        -11    1    3    3    0    0 -0.57289794802E+01 -0.18789197307E+02 -0.10278268130E+02  0.22169752752E+02  0.00000000000E+00 0.  1.
         11    1    3    3    0    0 -0.51218329065E+02  0.27425209015E+02  0.10847150679E+03  0.12305091266E+03  0.00000000000E+00 0. -1.
<mgrwt>
<rscale>  0 0.12923167E+03</rscale>
<asrwt>0</asrwt>
<pdfrwt beam="1">  1        1 0.25616692E-01 0.13762876E+03</pdfrwt>
<pdfrwt beam="2">  1       -1 0.19878673E-01 0.13762876E+03</pdfrwt>
<totfact> 0.36371985E+03</totfact>
</mgrwt>
</event>
<event>
 7    1  0.1254976E-005  0.1487752E+03  0.7546771E-02  0.1210875E+00
         -2   -1    0    0    0  501 -0.00000000000E+00  0.00000000000E+00  0.11651230224E+03  0.11651230224E+03  0.00000000000E+00 0.  1.
          2   -1    0    0  501    0  0.00000000000E+00 -0.00000000000E+00 -0.15864001782E+03  0.15864001782E+03  0.00000000000E+00 0. -1.
         23    2    1    2    0    0 -0.49124038142E+02  0.64000768580E+02 -0.24579788999E+02  0.12534582234E+03  0.92726154068E+02 0.  0.
          5    1    1    2  502    0  0.69135420152E+02 -0.57676312445E+02 -0.55724642283E+02  0.10598862719E+03  0.47000000000E+01 0. -1.
         -5    1    1    2    0  502 -0.20011382011E+02 -0.63244561349E+01  0.38176715705E+02  0.43817870526E+02  0.47000000000E+01 0. -1.
        -11    1    3    3    0    0  0.79120054890E+01  0.37962598030E+02  0.24371820552E+02  0.45801138819E+02  0.00000000000E+00 0.  1.
         11    1    3    3    0    0 -0.57036043631E+02  0.26038170550E+02 -0.48951609551E+02  0.79544683520E+02  0.00000000000E+00 0. -1.
<mgrwt>
<rscale>  0 0.14183932E+03</rscale>
<asrwt>0</asrwt>
<pdfrwt beam="2">  1        2 0.24406157E-01 0.14877519E+03</pdfrwt>
<pdfrwt beam="1">  1       -2 0.17924970E-01 0.14877519E+03</pdfrwt>
<totfact> 0.53767152E+03</totfact>
</mgrwt>
</event>
<event>
 7    1  0.1599223E-005  0.2297234E+03  0.7546771E-02  0.1130044E+00
          2   -1    0    0  501    0  0.00000000000E+00  0.00000000000E+00  0.15960921273E+04  0.15960921273E+04  0.00000000000E+00 0.  1.
         -2   -1    0    0    0  501 -0.00000000000E+00 -0.00000000000E+00 -0.30764090258E+02  0.30764090258E+02  0.00000000000E+00 0. -1.
         23    2    1    2    0    0  0.16753607928E+03 -0.95284874622E+02  0.81154139342E+03  0.83884152312E+03  0.88927624973E+02 0.  0.
          5    1    1    2  502    0 -0.85796350970E+02  0.78386628626E+02  0.23145049959E+03  0.25903069538E+03  0.47000000000E+01 0.  1.
         -5    1    1    2    0  502 -0.81739728308E+02  0.16898245996E+02  0.52233614408E+03  0.52898399911E+03  0.47000000000E+01 0.  1.
        -11    1    3    3    0    0  0.11954779661E+03 -0.31159357906E+02  0.36959358698E+03  0.38969475336E+03  0.00000000000E+00 0.  1.
         11    1    3    3    0    0  0.47988282664E+02 -0.64125516716E+02  0.44194780644E+03  0.44914676976E+03  0.00000000000E+00 0. -1.
<mgrwt>
<rscale>  0 0.22522814E+03</rscale>
<asrwt>0</asrwt>
<pdfrwt beam="1">  1        2 0.24555257E+00 0.22972343E+03</pdfrwt>
<pdfrwt beam="2">  1       -2 0.47329382E-02 0.22972343E+03</pdfrwt>
<totfact> 0.25819501E+03</totfact>
</mgrwt>
</event>
<event>
 7    1  0.1254976E-005  0.1346773E+03  0.7546771E-02  0.1232766E+00
          1   -1    0    0  501    0  0.00000000000E+00  0.00000000000E+00  0.11678099361E+03  0.11678099361E+03  0.00000000000E+00 0. -1.
         -1   -1    0    0    0  501 -0.00000000000E+00 -0.00000000000E+00 -0.12371916420E+03  0.12371916420E+03  0.00000000000E+00 0.  1.
         23    2    1    2    0    0 -0.49805599041E+02  0.57448727026E+01 -0.13595210657E+02  0.10565838348E+03  0.92006863809E+02 0.  0.
          5    1    1    2  502    0  0.78487365188E+02  0.28141327795E+02  0.24087359740E+02  0.86916579106E+02  0.47000000000E+01 0.  1.
         -5    1    1    2    0  502 -0.28681766147E+02 -0.33886200498E+02 -0.17430319669E+02  0.47925195224E+02  0.47000000000E+01 0.  1.
        -11    1    3    3    0    0 -0.69798273189E+02  0.27080771613E+02 -0.43562216304E+01  0.74994291771E+02  0.00000000000E+00 0. -1.
         11    1    3    3    0    0  0.19992674148E+02 -0.21335898910E+02 -0.92389890266E+01  0.30664091706E+02  0.00000000000E+00 0.  1.
<mgrwt>
<rscale>  0 0.12648546E+03</rscale>
<asrwt>0</asrwt>
<pdfrwt beam="1">  1        1 0.17966307E-01 0.13467735E+03</pdfrwt>
<pdfrwt beam="2">  1       -1 0.19033717E-01 0.13467735E+03</pdfrwt>
<totfact> 0.61023101E+03</totfact>
</mgrwt>
</event>
<event>
 7    1  0.1254976E-005  0.1475425E+03  0.7546771E-02  0.1207857E+00
          1   -1    0    0  501    0  0.00000000000E+00  0.00000000000E+00  0.65469210889E+02  0.65469210889E+02  0.00000000000E+00 0. -1.
         -1   -1    0    0    0  501 -0.00000000000E+00 -0.00000000000E+00 -0.30439871505E+03  0.30439871505E+03  0.00000000000E+00 0.  1.
         23    2    1    2    0    0  0.75486725214E+02 -0.21009457845E+02 -0.12349236422E+03  0.18253261205E+03  0.10921605852E+03 0.  0.
          5    1    1    2  502    0  0.19322472209E+02 -0.12415741204E+02 -0.75510400893E+02  0.79065916835E+02  0.47000000000E+01 0.  1.
         -5    1    1    2    0  502 -0.94809197424E+02  0.33425199050E+02 -0.39926739049E+02  0.10826939706E+03  0.47000000000E+01 0.  1.
        -11    1    3    3    0    0 -0.52147170038E+01 -0.32189188780E+02  0.22685182076E+01  0.32687663156E+02  0.00000000000E+00 0.  1.
         11    1    3    3    0    0  0.80701442218E+02  0.11179730934E+02 -0.12576088243E+03  0.14984494889E+03  0.00000000000E+00 0. -1.
<mgrwt>
<rscale>  0 0.14414546E+03</rscale>
<asrwt>0</asrwt>
<pdfrwt beam="1">  1        1 0.10072186E-01 0.14754249E+03</pdfrwt>
<pdfrwt beam="2">  1       -1 0.46830571E-01 0.14754249E+03</pdfrwt>
<totfact> 0.28566276E+03</totfact>
</mgrwt>
</event>
<event>
 7    1  0.1254976E-005  0.1614032E+03  0.7546771E-02  0.1195577E+00
          4   -1    0    0  501    0  0.00000000000E+00  0.00000000000E+00  0.52690177510E+02  0.52690177510E+02  0.00000000000E+00 0.  1.
         -4   -1    0    0    0  501 -0.00000000000E+00 -0.00000000000E+00 -0.41472948149E+03  0.41472948149E+03  0.00000000000E+00 0. -1.
         23    2    1    2    0    0  0.59330010449E+02  0.82572566809E+02 -0.17449609537E+03  0.21998591299E+03  0.87216028830E+02 0.  0.
          5    1    1    2  502    0 -0.52551281354E+02 -0.33771122226E+02 -0.18776545242E+03  0.19793958925E+03  0.47000000000E+01 0. -1.
         -5    1    1    2    0  502 -0.67787290948E+01 -0.48801444583E+02  0.22224380965E+00  0.49494156765E+02  0.47000000000E+01 0. -1.
        -11    1    3    3    0    0  0.31671133593E+02  0.88377454735E+02 -0.16559507583E+03  0.19035588866E+03  0.00000000000E+00 0. -1.
         11    1    3    3    0    0  0.27658876856E+02 -0.58048879264E+01 -0.89010195369E+01  0.29630024326E+02  0.00000000000E+00 0.  1.
<mgrwt>
<rscale>  0 0.15405537E+03</rscale>
<asrwt>0</asrwt>
<pdfrwt beam="1">  1        4 0.81061813E-02 0.16140323E+03</pdfrwt>
<pdfrwt beam="2">  1       -4 0.63804534E-01 0.16140323E+03</pdfrwt>
<totfact> 0.43158608E+02</totfact>
</mgrwt>
</event>
<event>
 7    1  0.1254976E-005  0.1886004E+03  0.7546771E-02  0.1164910E+00
          2   -1    0    0  501    0  0.00000000000E+00  0.00000000000E+00  0.10001549777E+04  0.10001549777E+04  0.00000000000E+00 0. -1.
         -2   -1    0    0    0  501 -0.00000000000E+00 -0.00000000000E+00 -0.50635891644E+02  0.50635891644E+02  0.00000000000E+00 0.  1.
         23    2    1    2    0    0 -0.12286604565E+03  0.69627979334E+02  0.77828062491E+03  0.79605037551E+03  0.89617791557E+02 0.  0.
          5    1    1    2  502    0  0.12490962051E+03 -0.55200784168E+02  0.18775808929E+03  0.23221698897E+03  0.47000000000E+01 0.  1.
         -5    1    1    2    0  502 -0.20435748629E+01 -0.14427195167E+02 -0.16519628131E+02  0.22523504882E+02  0.47000000000E+01 0.  1.
        -11    1    3    3    0    0 -0.56896706254E+02  0.81076719571E+02  0.51100066340E+03  0.52051162104E+03  0.00000000000E+00 0.  1.
         11    1    3    3    0    0 -0.65969339397E+02 -0.11448740236E+02  0.26727996151E+03  0.27553875448E+03  0.00000000000E+00 0. -1.
<mgrwt>
<rscale>  0 0.18302235E+03</rscale>
<asrwt>0</asrwt>
<pdfrwt beam="1">  1        2 0.15386998E+00 0.18860039E+03</pdfrwt>
<pdfrwt beam="2">  1       -2 0.77901379E-02 0.18860039E+03</pdfrwt>
<totfact> 0.25720630E+03</totfact>
</mgrwt>
</event>
<event>
 7    1  0.1254976E-005  0.1511258E+03  0.7546771E-02  0.1207607E+00
          1   -1    0    0  501    0  0.00000000000E+00  0.00000000000E+00  0.14340859338E+03  0.14340859338E+03  0.00000000000E+00 0. -1.
         -1   -1    0    0    0  501 -0.00000000000E+00 -0.00000000000E+00 -0.13848735661E+03  0.13848735661E+03  0.00000000000E+00 0.  1.
         23    2    1    2    0    0  0.26714634897E+02 -0.80623697446E+02 -0.24014195047E+02  0.12802497421E+03  0.92735430927E+02 0.  0.
          5    1    1    2  502    0 -0.17352707724E+02  0.11121387772E+03  0.34667158450E+01  0.11271091865E+03  0.47000000000E+01 0.  1.
         -5    1    1    2    0  502 -0.93619271732E+01 -0.30590180275E+02  0.25468715974E+02  0.41160057131E+02  0.47000000000E+01 0.  1.
        -11    1    3    3    0    0  0.25853352678E+02 -0.19192982554E+02 -0.51486340830E+02  0.60725692389E+02  0.00000000000E+00 0.  1.
         11    1    3    3    0    0  0.86128221921E+00 -0.61430714893E+02  0.27472145783E+02  0.67299281818E+02  0.00000000000E+00 0. -1.
<mgrwt>
<rscale>  0 0.14433886E+03</rscale>
<asrwt>0</asrwt>
<pdfrwt beam="1">  1        1 0.22062860E-01 0.15112583E+03</pdfrwt>
<pdfrwt beam="2">  1       -1 0.21305747E-01 0.15112583E+03</pdfrwt>
<totfact> 0.39458896E+03</totfact>
</mgrwt>
</event>
<event>
 7    1  0.1254976E-005  0.1396078E+03  0.7546771E-02  0.1223437E+00
         -4   -1    0    0    0  501 -0.00000000000E+00  0.00000000000E+00  0.89862549541E+02  0.89862549541E+02  0.00000000000E+00 0.  1.
          4   -1    0    0  501    0  0.00000000000E+00 -0.00000000000E+00 -0.28617697878E+03  0.28617697878E+03  0.00000000000E+00 0. -1.
         23    2    1    2    0    0  0.37278466286E+01 -0.62064447338E+02 -0.20663288307E+03  0.23605094127E+03  0.95692246506E+02 0.  0.
          5    1    1    2  502    0 -0.30600843207E+02  0.41918121095E+02 -0.49083246600E+02  0.71587677556E+02  0.47000000000E+01 0.  1.
         -5    1    1    2    0  502  0.26872996579E+02  0.20146326243E+02  0.59401700433E+02  0.68400909500E+02  0.47000000000E+01 0.  1.
        -11    1    3    3    0    0 -0.12480847933E+02 -0.56556513112E+02 -0.21064996161E+03  0.21846697019E+03  0.00000000000E+00 0. -1.
         11    1    3    3    0    0  0.16208694562E+02 -0.55079342256E+01  0.40170785311E+01  0.17583971075E+02  0.00000000000E+00 0.  1.
<mgrwt>
<rscale>  0 0.13274577E+03</rscale>
<asrwt>0</asrwt>
<pdfrwt beam="2">  1        4 0.44027227E-01 0.13960779E+03</pdfrwt>
<pdfrwt beam="1">  1       -4 0.13825008E-01 0.13960779E+03</pdfrwt>
<totfact> 0.36499568E+02</totfact>
</mgrwt>
</event>
<event>
 7    1  0.1254976E-005  0.1334935E+03  0.7546771E-02  0.1234928E+00
          3   -1    0    0  501    0  0.00000000000E+00  0.00000000000E+00  0.23598821837E+03  0.23598821837E+03  0.00000000000E+00 0. -1.
         -3   -1    0    0    0  501 -0.00000000000E+00 -0.00000000000E+00 -0.71079681450E+02  0.71079681450E+02  0.00000000000E+00 0.  1.
         23    2    1    2    0    0 -0.46441302816E+02 -0.60830707555E+01  0.13587095601E+03  0.17045273997E+03  0.91648357985E+02 0.  0.
          5    1    1    2  502    0  0.66431878687E+01  0.74385904367E+01 -0.48277670506E+02  0.49520582006E+02  0.47000000000E+01 0.  1.
         -5    1    1    2    0  502  0.39798114947E+02 -0.13555196812E+01  0.77315251418E+02  0.87094577838E+02  0.47000000000E+01 0.  1.
        -11    1    3    3    0    0 -0.64231035072E+02  0.22990587202E+02  0.81540655370E+02  0.10631590401E+03  0.00000000000E+00 0. -1.
         11    1    3    3    0    0  0.17789732256E+02 -0.29073657958E+02  0.54330300636E+02  0.64136835968E+02  0.00000000000E+00 0.  1.
<mgrwt>
<rscale>  0 0.12509030E+03</rscale>
<asrwt>0</asrwt>
<pdfrwt beam="1">  1        3 0.36305879E-01 0.13349352E+03</pdfrwt>
<pdfrwt beam="2">  1       -3 0.10935336E-01 0.13349352E+03</pdfrwt>
<totfact> 0.10934278E+03</totfact>
</mgrwt>
</event>
<event>
 7    1  0.1254976E-005  0.1300588E+03  0.7546771E-02  0.1241130E+00
          2   -1    0    0  501    0  0.00000000000E+00  0.00000000000E+00  0.22264935519E+03  0.22264935519E+03  0.00000000000E+00 0. -1.
         -2   -1    0    0    0  501 -0.00000000000E+00 -0.00000000000E+00 -0.63309529315E+02  0.63309529315E+02  0.00000000000E+00 0.  1.
         23    2    1    2    0    0  0.44743779145E+01  0.35639615652E+02  0.10864427038E+03  0.14636905941E+03  0.91269500956E+02 0.  0.
          5    1    1    2  502    0  0.11485345832E+02 -0.52734684675E+02 -0.25406413610E+02  0.59836744474E+02  0.47000000000E+01 0.  1.
         -5    1    1    2    0  502 -0.15959723746E+02  0.17095069024E+02  0.76101969101E+02  0.79753080618E+02  0.47000000000E+01 0.  1.
        -11    1    3    3    0    0 -0.11205531186E+02  0.22914944417E+02  0.12035310206E+03  0.12302653284E+03  0.00000000000E+00 0. -1.
         11    1    3    3    0    0  0.15679909100E+02  0.12724671235E+02 -0.11708831680E+02  0.23342526571E+02  0.00000000000E+00 0.  1.
<mgrwt>
<rscale>  0 0.12120022E+03</rscale>
<asrwt>0</asrwt>
<pdfrwt beam="1">  1        2 0.34253747E-01 0.13005876E+03</pdfrwt>
<pdfrwt beam="2">  1       -2 0.97399277E-02 0.13005876E+03</pdfrwt>
<totfact> 0.98634332E+03</totfact>
</mgrwt>
</event>
<event>
 7    1  0.1254976E-005  0.1811728E+03  0.7546771E-02  0.1173114E+00
         -1   -1    0    0    0  501 -0.00000000000E+00  0.00000000000E+00  0.18112832704E+03  0.18112832704E+03  0.00000000000E+00 0. -1.
          1   -1    0    0  501    0  0.00000000000E+00 -0.00000000000E+00 -0.16987547124E+03  0.16987547124E+03  0.00000000000E+00 0.  1.
         23    2    1    2    0    0 -0.64560401517E+02 -0.11415324143E+03 -0.42506472469E+02  0.16202328662E+03  0.85121896326E+02 0.  0.
          5    1    1    2  502    0 -0.34713946666E+02  0.21213780443E+02  0.30202487118E+02  0.50885781923E+02  0.47000000000E+01 0. -1.
         -5    1    1    2    0  502  0.99274348182E+02  0.92939460983E+02  0.23556841157E+02  0.13809472973E+03  0.47000000000E+01 0. -1.
        -11    1    3    3    0    0 -0.11297646121E+01 -0.50894467167E+02 -0.50974256063E+02  0.72040946256E+02  0.00000000000E+00 0.  1.
         11    1    3    3    0    0 -0.63430636905E+02 -0.63258774259E+02  0.84677835940E+01  0.89982340366E+02  0.00000000000E+00 0. -1.
<mgrwt>
<rscale>  0 0.17461955E+03</rscale>
<asrwt>0</asrwt>
<pdfrwt beam="2">  1        1 0.26134688E-01 0.18117276E+03</pdfrwt>
<pdfrwt beam="1">  1       -1 0.27865897E-01 0.18117276E+03</pdfrwt>
<totfact> 0.20631643E+03</totfact>
</mgrwt>
</event>
<event>
 7    1  0.1254976E-005  0.1928202E+03  0.7546771E-02  0.1160335E+00
          4   -1    0    0  501    0  0.00000000000E+00  0.00000000000E+00  0.13405296995E+03  0.13405296995E+03  0.00000000000E+00 0. -1.
         -4   -1    0    0    0  501 -0.00000000000E+00 -0.00000000000E+00 -0.27541355861E+03  0.27541355861E+03  0.00000000000E+00 0.  1.
         23    2    1    2    0    0  0.32386698042E+02  0.14319996944E+03 -0.64502245099E+01  0.17413605062E+03  0.93416429346E+02 0.  0.
          5    1    1    2  502    0 -0.49643393601E+02 -0.16032374282E+03 -0.12069600453E+03  0.20677955544E+03  0.47000000000E+01 0. -1.
         -5    1    1    2    0  502  0.17256695559E+02  0.17123773382E+02 -0.14214359625E+02  0.28550922507E+02  0.47000000000E+01 0. -1.
        -11    1    3    3    0    0  0.59164237283E+02  0.62291736178E+02 -0.19016476624E+02  0.87990304879E+02  0.00000000000E+00 0.  1.
         11    1    3    3    0    0 -0.26777539241E+02  0.80908233257E+02  0.12566252114E+02  0.86145745738E+02  0.00000000000E+00 0. -1.
<mgrwt>
<rscale>  0 0.18793689E+03</rscale>
<asrwt>0</asrwt>
<pdfrwt beam="1">  1        4 0.20623534E-01 0.19282019E+03</pdfrwt>
<pdfrwt beam="2">  1       -4 0.42371316E-01 0.19282019E+03</pdfrwt>
<totfact> 0.20467007E+02</totfact>
</mgrwt>
</event>
<event>
 7    1  0.1254976E-005  0.2746581E+03  0.7546771E-02  0.1100673E+00
          1   -1    0    0  501    0  0.00000000000E+00  0.00000000000E+00  0.82178109485E+03  0.82178109485E+03  0.00000000000E+00 0. -1.
         -1   -1    0    0    0  501 -0.00000000000E+00 -0.00000000000E+00 -0.92184335634E+02  0.92184335634E+02  0.00000000000E+00 0.  1.
         23    2    1    2    0    0 -0.15907023734E+03 -0.18576134172E+03  0.46252370879E+03  0.53086614382E+03  0.89889181619E+02 0.  0.
          5    1    1    2  502    0  0.88390592991E+02  0.10661086259E+03  0.61284181483E+02  0.15151440146E+03  0.47000000000E+01 0.  1.
         -5    1    1    2    0  502  0.70679644354E+02  0.79150479138E+02  0.20578886894E+03  0.23158488520E+03  0.47000000000E+01 0.  1.
        -11    1    3    3    0    0 -0.35036948258E+02 -0.94120391664E+02  0.12959197214E+03  0.16395217325E+03  0.00000000000E+00 0. -1.
         11    1    3    3    0    0 -0.12403328909E+03 -0.91640950060E+02  0.33293173665E+03  0.36691397057E+03  0.00000000000E+00 0.  1.
<mgrwt>
<rscale>  0 0.27106318E+03</rscale>
<asrwt>0</asrwt>
<pdfrwt beam="1">  1        1 0.12642786E+00 0.27465806E+03</pdfrwt>
<pdfrwt beam="2">  1       -1 0.14182206E-01 0.27465806E+03</pdfrwt>
<totfact> 0.77884233E+02</totfact>
</mgrwt>
</event>
<event>
 7    1  0.1254976E-005  0.2219513E+03  0.7546771E-02  0.1135706E+00
          1   -1    0    0  501    0  0.00000000000E+00  0.00000000000E+00  0.33721657350E+03  0.33721657350E+03  0.00000000000E+00 0. -1.
         -1   -1    0    0    0  501 -0.00000000000E+00 -0.00000000000E+00 -0.14809787028E+03  0.14809787028E+03  0.00000000000E+00 0.  1.
         23    2    1    2    0    0  0.96345959614E+02 -0.15606121333E+03  0.16293903836E+03  0.26182453873E+03  0.91462082963E+02 0.  0.
          5    1    1    2  502    0 -0.33403458083E+02 -0.37268974009E+01 -0.27300940340E+02  0.43555850578E+02  0.47000000000E+01 0. -1.
         -5    1    1    2    0  502 -0.62942501531E+02  0.15978811073E+03  0.53480605202E+02  0.17993405448E+03  0.47000000000E+01 0. -1.
        -11    1    3    3    0    0  0.84776749210E+02 -0.51096918327E+02  0.71076766669E+02  0.12186016178E+03  0.00000000000E+00 0. -1.
         11    1    3    3    0    0  0.11569210404E+02 -0.10496429500E+03  0.91862271690E+02  0.13996437695E+03  0.00000000000E+00 0.  1.
<mgrwt>
<rscale>  0 0.21757210E+03</rscale>
<asrwt>0</asrwt>
<pdfrwt beam="1">  1        1 0.51879473E-01 0.22195126E+03</pdfrwt>
<pdfrwt beam="2">  1       -1 0.22784288E-01 0.22195126E+03</pdfrwt>
<totfact> 0.12246728E+03</totfact>
</mgrwt>
</event>
<event>
 7    1  0.1254976E-005  0.1603261E+03  0.7546771E-02  0.1195974E+00
          2   -1    0    0  501    0  0.00000000000E+00  0.00000000000E+00  0.55477421957E+03  0.55477421957E+03  0.00000000000E+00 0. -1.
         -2   -1    0    0    0  501 -0.00000000000E+00 -0.00000000000E+00 -0.41585607631E+02  0.41585607631E+02  0.00000000000E+00 0.  1.
         23    2    1    2    0    0  0.64591623625E+02 -0.76865634947E+02  0.30375336072E+03  0.33260314047E+03  0.90985390146E+02 0.  0.
          5    1    1    2  502    0 -0.37892695284E+02  0.85085643427E+00 -0.11777215639E+01  0.38210696678E+02  0.47000000000E+01 0. -1.
         -5    1    1    2    0  502 -0.26698928341E+02  0.76014778513E+02  0.21061297278E+03  0.22554599005E+03  0.47000000000E+01 0. -1.
        -11    1    3    3    0    0  0.62239545868E+01 -0.60514559557E+02  0.78362712976E+02  0.99204154722E+02  0.00000000000E+00 0.  1.
         11    1    3    3    0    0  0.58367669038E+02 -0.16351075390E+02  0.22539064775E+03  0.23339898575E+03  0.00000000000E+00 0. -1.
<mgrwt>
<rscale>  0 0.15372114E+03</rscale>
<asrwt>0</asrwt>
<pdfrwt beam="1">  1        2 0.85349874E-01 0.16032612E+03</pdfrwt>
<pdfrwt beam="2">  1       -2 0.63977862E-02 0.16032612E+03</pdfrwt>
<totfact> 0.71763896E+03</totfact>
</mgrwt>
</event>
<event>
 7    1  0.1254976E-005  0.1413633E+03  0.7546771E-02  0.1222324E+00
         -2   -1    0    0    0  501 -0.00000000000E+00  0.00000000000E+00  0.24932485775E+03  0.24932485775E+03  0.00000000000E+00 0.  1.
          2   -1    0    0  501    0  0.00000000000E+00 -0.00000000000E+00 -0.10208320897E+03  0.10208320897E+03  0.00000000000E+00 0. -1.
         23    2    1    2    0    0 -0.65613706869E+02 -0.73246108315E+01 -0.37676018879E+02  0.11864609042E+03  0.91096673491E+02 0.  0.
          5    1    1    2  502    0 -0.97742578104E+01  0.29975558118E+02  0.13661960068E+03  0.14028925650E+03  0.47000000000E+01 0. -1.
         -5    1    1    2    0  502  0.75387964679E+02 -0.22650947286E+02  0.48298066983E+02  0.92472719792E+02  0.47000000000E+01 0. -1.
        -11    1    3    3    0    0 -0.85060336113E+02 -0.19630565895E+02 -0.38963405415E+02  0.95596897745E+02  0.00000000000E+00 0. -1.
         11    1    3    3    0    0  0.19446629244E+02  0.12305955064E+02  0.12873865357E+01  0.23049192677E+02  0.00000000000E+00 0.  1.
<mgrwt>
<rscale>  0 0.13351981E+03</rscale>
<asrwt>0</asrwt>
<pdfrwt beam="2">  1        2 0.15705109E-01 0.14136334E+03</pdfrwt>
<pdfrwt beam="1">  1       -2 0.38357670E-01 0.14136334E+03</pdfrwt>
<totfact> 0.23079065E+03</totfact>
</mgrwt>
</event>
<event>
 7    1  0.1254976E-005  0.1736688E+03  0.7546771E-02  0.1180109E+00
          1   -1    0    0  501    0  0.00000000000E+00  0.00000000000E+00  0.14376756517E+03  0.14376756517E+03  0.00000000000E+00 0. -1.
         -1   -1    0    0    0  501 -0.00000000000E+00 -0.00000000000E+00 -0.18429144061E+03  0.18429144061E+03  0.00000000000E+00 0.  1.
         23    2    1    2    0    0 -0.48052091580E+02  0.11057546808E+03 -0.11392836875E+02  0.15196396661E+03  0.91800396337E+02 0.  0.
          5    1    1    2  502    0 -0.12042339173E+02 -0.19186085998E+02 -0.58363426515E+02  0.62781393607E+02  0.47000000000E+01 0. -1.
         -5    1    1    2    0  502  0.60094430753E+02 -0.91389382085E+02  0.29232387953E+02  0.11331364556E+03  0.47000000000E+01 0. -1.
        -11    1    3    3    0    0 -0.21762804033E+02  0.47270399713E+02  0.40539316031E+02  0.65966252529E+02  0.00000000000E+00 0. -1.
         11    1    3    3    0    0 -0.26289287547E+02  0.63305068370E+02 -0.51932152906E+02  0.85997714077E+02  0.00000000000E+00 0.  1.
<mgrwt>
<rscale>  0 0.16784967E+03</rscale>
<asrwt>0</asrwt>
<pdfrwt beam="1">  1        1 0.22118087E-01 0.17366878E+03</pdfrwt>
<pdfrwt beam="2">  1       -1 0.28352529E-01 0.17366878E+03</pdfrwt>
<totfact> 0.24723716E+03</totfact>
</mgrwt>
</event>
<event>
 7    1  0.1254976E-005  0.1706649E+03  0.7546771E-02  0.1183262E+00
         -1   -1    0    0    0  501 -0.00000000000E+00  0.00000000000E+00  0.69716777345E+03  0.69716777345E+03  0.00000000000E+00 0.  1.
          1   -1    0    0  501    0  0.00000000000E+00 -0.00000000000E+00 -0.50168180015E+02  0.50168180015E+02  0.00000000000E+00 0. -1.
         23    2    1    2    0    0  0.99353109307E+02 -0.60248172198E+02  0.11329815710E+03  0.18701128926E+03  0.92929367398E+02 0.  0.
          5    1    1    2  502    0 -0.34568419486E+02 -0.38756138233E+02  0.15405534568E+03  0.16264117993E+03  0.47000000000E+01 0. -1.
         -5    1    1    2    0  502 -0.64784689820E+02  0.99004310432E+02  0.37964609065E+03  0.39768348427E+03  0.47000000000E+01 0. -1.
        -11    1    3    3    0    0  0.71951756919E+02 -0.73589623616E+02  0.11755097956E+03  0.15623930626E+03  0.00000000000E+00 0.  1.
         11    1    3    3    0    0  0.27401352388E+02  0.13341451418E+02 -0.42528224508E+01  0.30771982995E+02  0.00000000000E+00 0. -1.
<mgrwt>
<rscale>  0 0.16491015E+03</rscale>
<asrwt>0</asrwt>
<pdfrwt beam="2">  1        1 0.77181820E-02 0.17066489E+03</pdfrwt>
<pdfrwt beam="1">  1       -1 0.10725657E+00 0.17066489E+03</pdfrwt>
<totfact> 0.77998611E+02</totfact>
</mgrwt>
</event>
<event>
 7    1  0.1254976E-005  0.1310203E+03  0.7546771E-02  0.1238526E+00
          3   -1    0    0  501    0  0.00000000000E+00  0.00000000000E+00  0.68453961777E+02  0.68453961777E+02  0.00000000000E+00 0. -1.
         -3   -1    0    0    0  501 -0.00000000000E+00 -0.00000000000E+00 -0.24699255127E+03  0.24699255127E+03  0.00000000000E+00 0.  1.
         23    2    1    2    0    0  0.16347143978E+01  0.39234160550E+02 -0.95283441439E+01  0.10159896729E+03  0.93217858623E+02 0.  0.
          5    1    1    2  502    0 -0.21517353647E+02 -0.14300246250E+02 -0.17836079400E+03  0.18028354442E+03  0.47000000000E+01 0. -1.
         -5    1    1    2    0  502  0.19882639249E+02 -0.24933914299E+02  0.93505486567E+01  0.33564001341E+02  0.47000000000E+01 0. -1.
        -11    1    3    3    0    0 -0.44234144832E+02  0.29627829135E+02  0.22158854028E+01  0.53285814026E+02  0.00000000000E+00 0.  1.
         11    1    3    3    0    0  0.45868859230E+02  0.96063314146E+01 -0.11744229547E+02  0.48313153260E+02  0.00000000000E+00 0. -1.
<mgrwt>
<rscale>  0 0.12281364E+03</rscale>
<asrwt>0</asrwt>
<pdfrwt beam="1">  1        3 0.10531379E-01 0.13102026E+03</pdfrwt>
<pdfrwt beam="2">  1       -3 0.37998854E-01 0.13102026E+03</pdfrwt>
<totfact> 0.10637072E+03</totfact>
</mgrwt>
</event>
<event>
 7    1  0.1254976E-005  0.2188062E+03  0.7546771E-02  0.1138161E+00
         -1   -1    0    0    0  501 -0.00000000000E+00  0.00000000000E+00  0.11927668350E+03  0.11927668350E+03  0.00000000000E+00 0.  1.
          1   -1    0    0  501    0  0.00000000000E+00 -0.00000000000E+00 -0.38399643259E+03  0.38399643259E+03  0.00000000000E+00 0. -1.
         23    2    1    2    0    0 -0.24122831186E+02 -0.17795303975E+03 -0.17451061119E+03  0.26660068026E+03  0.91502863112E+02 0.  0.
          5    1    1    2  502    0 -0.20963172780E+02  0.20428804391E+02  0.22948912038E+02  0.37490441789E+02  0.47000000000E+01 0.  1.
         -5    1    1    2    0  502  0.45086003966E+02  0.15752423536E+03 -0.11315804994E+03  0.19918199403E+03  0.47000000000E+01 0.  1.
        -11    1    3    3    0    0 -0.10708851999E+02 -0.15574138257E+03 -0.18182034222E+03  0.23964284801E+03  0.00000000000E+00 0. -1.
         11    1    3    3    0    0 -0.13413979187E+02 -0.22211657181E+02  0.73097310272E+01  0.26957832258E+02  0.00000000000E+00 0.  1.
<mgrwt>
<rscale>  0 0.21435807E+03</rscale>
<asrwt>0</asrwt>
<pdfrwt beam="2">  1        1 0.59076374E-01 0.21880620E+03</pdfrwt>
<pdfrwt beam="1">  1       -1 0.18350259E-01 0.21880620E+03</pdfrwt>
<totfact> 0.14769477E+03</totfact>
</mgrwt>
</event>
<event>
 7    1  0.1254976E-005  0.1380644E+03  0.7546771E-02  0.1227482E+00
          2   -1    0    0  501    0  0.00000000000E+00  0.00000000000E+00  0.51430924098E+03  0.51430924098E+03  0.00000000000E+00 0. -1.
         -2   -1    0    0    0  501 -0.00000000000E+00 -0.00000000000E+00 -0.31019924222E+02  0.31019924222E+02  0.00000000000E+00 0.  1.
         23    2    1    2    0    0 -0.26625474100E+02  0.52257530703E+02  0.15492684864E+03  0.18912178313E+03  0.91241191564E+02 0.  0.
          5    1    1    2  502    0  0.61726165592E+02 -0.61163316297E+02  0.29192898531E+03  0.30462385535E+03  0.47000000000E+01 0. -1.
         -5    1    1    2    0  502 -0.35100691493E+02  0.89057855941E+01  0.36433482799E+02  0.51583526723E+02  0.47000000000E+01 0. -1.
        -11    1    3    3    0    0  0.24195113758E+02  0.37605121051E+02  0.31087878200E+02  0.54461039560E+02  0.00000000000E+00 0.  1.
         11    1    3    3    0    0 -0.50820587857E+02  0.14652409653E+02  0.12383897044E+03  0.13466074357E+03  0.00000000000E+00 0. -1.
<mgrwt>
<rscale>  0 0.12998226E+03</rscale>
<asrwt>0</asrwt>
<pdfrwt beam="1">  1        2 0.79124492E-01 0.13806444E+03</pdfrwt>
<pdfrwt beam="2">  1       -2 0.47722964E-02 0.13806444E+03</pdfrwt>
<totfact> 0.12050474E+04</totfact>
</mgrwt>
</event>
<event>
 7    1  0.1254976E-005  0.1286704E+03  0.7546771E-02  0.1241660E+00
          2   -1    0    0  501    0  0.00000000000E+00  0.00000000000E+00  0.88824693517E+03  0.88824693517E+03  0.00000000000E+00 0. -1.
         -2   -1    0    0    0  501 -0.00000000000E+00 -0.00000000000E+00 -0.14789816704E+02  0.14789816704E+02  0.00000000000E+00 0.  1.
         23    2    1    2    0    0 -0.24627169987E+02 -0.18063832300E+02  0.40744238177E+03  0.41958478424E+03  0.95442638081E+02 0.  0.
          5    1    1    2  502    0  0.63202005993E+02  0.32010702086E+02  0.39480623825E+03  0.40113991870E+03  0.47000000000E+01 0.  1.
         -5    1    1    2    0  502 -0.38574836005E+02 -0.13946869786E+02  0.71208498440E+02  0.82312048934E+02  0.47000000000E+01 0.  1.
        -11    1    3    3    0    0 -0.48843114455E+02 -0.39699572975E+02  0.32378065167E+03  0.32984180499E+03  0.00000000000E+00 0.  1.
         11    1    3    3    0    0  0.24215944468E+02  0.21635740675E+02  0.83661730106E+02  0.89742979254E+02  0.00000000000E+00 0. -1.
<mgrwt>
<rscale>  0 0.12087515E+03</rscale>
<asrwt>0</asrwt>
<pdfrwt beam="1">  1        2 0.13665333E+00 0.12867039E+03</pdfrwt>
<pdfrwt beam="2">  1       -2 0.22753571E-02 0.12867039E+03</pdfrwt>
<totfact> 0.18732318E+04</totfact>
</mgrwt>
</event>
<event>
 7    1  0.1254976E-005  0.1335551E+03  0.7546771E-02  0.1233720E+00
         -1   -1    0    0    0  501 -0.00000000000E+00  0.00000000000E+00  0.32744311021E+02  0.32744311021E+02  0.00000000000E+00 0.  1.
          1   -1    0    0  501    0  0.00000000000E+00 -0.00000000000E+00 -0.44424591114E+03  0.44424591114E+03  0.00000000000E+00 0. -1.
         23    2    1    2    0    0  0.29967173692E+02 -0.36223119698E+02 -0.21459583255E+03  0.23906410754E+03  0.94287487309E+02 0.  0.
          5    1    1    2  502    0 -0.52817635021E+02  0.25187505810E+02 -0.20307652889E+03  0.21139129501E+03  0.47000000000E+01 0.  1.
         -5    1    1    2    0  502  0.22850461329E+02  0.11035613889E+02  0.61707613257E+01  0.26534819619E+02  0.47000000000E+01 0.  1.
        -11    1    3    3    0    0 -0.30654741971E+01 -0.61201092935E+02 -0.10077185602E+03  0.11794039967E+03  0.00000000000E+00 0.  1.
         11    1    3    3    0    0  0.33032647889E+02  0.24977973236E+02 -0.11382397653E+03  0.12112370787E+03  0.00000000000E+00 0. -1.
<mgrwt>
<rscale>  0 0.12586703E+03</rscale>
<asrwt>0</asrwt>
<pdfrwt beam="2">  1        1 0.68345522E-01 0.13355506E+03</pdfrwt>
<pdfrwt beam="1">  1       -1 0.50375865E-02 0.13355506E+03</pdfrwt>
<totfact> 0.87509951E+03</totfact>
</mgrwt>
</event>
<event>
 7    1  0.1254976E-005  0.1522366E+03  0.7546771E-02  0.1206663E+00
          1   -1    0    0  501    0  0.00000000000E+00  0.00000000000E+00  0.59556399773E+02  0.59556399773E+02  0.00000000000E+00 0. -1.
         -1   -1    0    0    0  501 -0.00000000000E+00 -0.00000000000E+00 -0.41655768660E+03  0.41655768660E+03  0.00000000000E+00 0.  1.
         23    2    1    2    0    0  0.86794901637E+02 -0.37394766720E+01 -0.53281428997E+02  0.13637635387E+03  0.90621523834E+02 0.  0.
          5    1    1    2  502    0 -0.29751649586E+02 -0.11286975110E+02 -0.19548870732E+01  0.32225270266E+02  0.47000000000E+01 0. -1.
         -5    1    1    2    0  502 -0.57043252050E+02  0.15026451782E+02 -0.30176497076E+03  0.30751246224E+03  0.47000000000E+01 0. -1.
        -11    1    3    3    0    0 -0.15455951991E+02  0.12887120594E+02 -0.17824439632E+02  0.26882614779E+02  0.00000000000E+00 0.  1.
         11    1    3    3    0    0  0.10225085363E+03 -0.16626597266E+02 -0.35456989365E+02  0.10949373909E+03  0.00000000000E+00 0. -1.
<mgrwt>
<rscale>  0 0.14507160E+03</rscale>
<asrwt>0</asrwt>
<pdfrwt beam="1">  1        1 0.91625232E-02 0.15223658E+03</pdfrwt>
<pdfrwt beam="2">  1       -1 0.64085797E-01 0.15223658E+03</pdfrwt>
<totfact> 0.18067568E+03</totfact>
</mgrwt>
</event>
<event>
 7    1  0.1254976E-005  0.1532668E+03  0.7546771E-02  0.1199989E+00
         -2   -1    0    0    0  501 -0.00000000000E+00  0.00000000000E+00  0.31700144810E+03  0.31700144810E+03  0.00000000000E+00 0.  1.
          2   -1    0    0  501    0  0.00000000000E+00 -0.00000000000E+00 -0.69255737488E+02  0.69255737488E+02  0.00000000000E+00 0. -1.
         23    2    1    2    0    0  0.70787442470E+02  0.53430103872E+02  0.13486874921E+03  0.19591031572E+03  0.11102087318E+03 0.  0.
          5    1    1    2  502    0 -0.18308046959E+02  0.26425833273E+02  0.84537212275E+02  0.90565664061E+02  0.47000000000E+01 0.  1.
         -5    1    1    2    0  502 -0.52479395511E+02 -0.79855937145E+02  0.28339749127E+02  0.99781205801E+02  0.47000000000E+01 0.  1.
        -11    1    3    3    0    0  0.72871892262E+02  0.40869914287E+00  0.12069338928E+03  0.14098714102E+03  0.00000000000E+00 0.  1.
         11    1    3    3    0    0 -0.20844497922E+01  0.53021404729E+02  0.14175359927E+02  0.54923174703E+02  0.00000000000E+00 0. -1.
<mgrwt>
<rscale>  0 0.15039438E+03</rscale>
<asrwt>0</asrwt>
<pdfrwt beam="2">  1        2 0.10654729E-01 0.15326683E+03</pdfrwt>
<pdfrwt beam="1">  1       -2 0.48769453E-01 0.15326683E+03</pdfrwt>
<totfact> 0.23199754E+03</totfact>
</mgrwt>
</event>
<event>
 7    1  0.1254976E-005  0.1349901E+03  0.7546771E-02  0.1232804E+00
          1   -1    0    0  501    0  0.00000000000E+00  0.00000000000E+00  0.65198048083E+03  0.65198048083E+03  0.00000000000E+00 0. -1.
         -1   -1    0    0    0  501 -0.00000000000E+00 -0.00000000000E+00 -0.25428149204E+02  0.25428149204E+02  0.00000000000E+00 0.  1.
         23    2    1    2    0    0  0.92348565558E+00  0.50962144713E+02  0.40358069227E+03  0.41675811372E+03  0.90619849712E+02 0.  0.
          5    1    1    2  502    0 -0.50578533097E+02 -0.46976303807E+02  0.64954581306E+02  0.94900731094E+02  0.47000000000E+01 0.  1.
         -5    1    1    2    0  502  0.49655047442E+02 -0.39858409063E+01  0.15801705805E+03  0.16574978521E+03  0.47000000000E+01 0.  1.
        -11    1    3    3    0    0  0.34422081358E+01 -0.21630244539E+02  0.36558415358E+02  0.42617297065E+02  0.00000000000E+00 0.  1.
         11    1    3    3    0    0 -0.25187224802E+01  0.72592389252E+02  0.36702227691E+03  0.37414081666E+03  0.00000000000E+00 0. -1.
<mgrwt>
<rscale>  0 0.12646039E+03</rscale>
<asrwt>0</asrwt>
<pdfrwt beam="1">  1        1 0.10030468E+00 0.13499015E+03</pdfrwt>
<pdfrwt beam="2">  1       -1 0.39120234E-02 0.13499015E+03</pdfrwt>
<totfact> 0.76356704E+03</totfact>
</mgrwt>
</event>
<event>
 7    1  0.1254976E-005  0.2114947E+03  0.7546771E-02  0.1143417E+00
         -2   -1    0    0    0  501 -0.00000000000E+00  0.00000000000E+00  0.35092472583E+02  0.35092472583E+02  0.00000000000E+00 0.  1.
          2   -1    0    0  501    0  0.00000000000E+00 -0.00000000000E+00 -0.11936698469E+04  0.11936698469E+04  0.00000000000E+00 0. -1.
         23    2    1    2    0    0  0.16151274127E+03 -0.54945659948E+02 -0.60533119944E+03  0.63646903009E+03  0.97783301772E+02 0.  0.
          5    1    1    2  502    0 -0.70470267496E+01  0.40380105766E+02 -0.45828804537E+02  0.61665086175E+02  0.47000000000E+01 0.  1.
         -5    1    1    2    0  502 -0.15446571452E+03  0.14565554182E+02 -0.50741737037E+03  0.53062820325E+03  0.47000000000E+01 0.  1.
        -11    1    3    3    0    0  0.10334226461E+03 -0.47351170048E+02 -0.52400016935E+03  0.53618833859E+03  0.00000000000E+00 0.  1.
         11    1    3    3    0    0  0.58170476663E+02 -0.75944899003E+01 -0.81331030089E+02  0.10028069150E+03  0.00000000000E+00 0. -1.
<mgrwt>
<rscale>  0 0.20767879E+03</rscale>
<asrwt>0</asrwt>
<pdfrwt beam="2">  1        2 0.18364151E+00 0.21149471E+03</pdfrwt>
<pdfrwt beam="1">  1       -2 0.53988422E-02 0.21149471E+03</pdfrwt>
<totfact> 0.34915100E+03</totfact>
</mgrwt>
</event>
<event>
 7    1  0.1254976E-005  0.1428093E+03  0.7546771E-02  0.1220120E+00
          1   -1    0    0  501    0  0.00000000000E+00  0.00000000000E+00  0.33667311971E+02  0.33667311971E+02  0.00000000000E+00 0. -1.
         -1   -1    0    0    0  501 -0.00000000000E+00 -0.00000000000E+00 -0.49814004070E+03  0.49814004070E+03  0.00000000000E+00 0.  1.
         23    2    1    2    0    0 -0.20989012490E+02 -0.65792865671E+02 -0.17475544240E+03  0.20880487608E+03  0.91053675429E+02 0.  0.
          5    1    1    2  502    0 -0.42012771652E+02  0.49436015049E+02 -0.21074469212E+03  0.22055477284E+03  0.47000000000E+01 0. -1.
         -5    1    1    2    0  502  0.63001784142E+02  0.16356850622E+02 -0.78972594213E+02  0.10244770375E+03  0.47000000000E+01 0. -1.
        -11    1    3    3    0    0 -0.30393567614E+02  0.63404854393E+01 -0.99103189567E+02  0.10385284248E+03  0.00000000000E+00 0.  1.
         11    1    3    3    0    0  0.94045551240E+01 -0.72133351110E+02 -0.75652252828E+02  0.10495203360E+03  0.00000000000E+00 0. -1.
<mgrwt>
<rscale>  0 0.13507043E+03</rscale>
<asrwt>0</asrwt>
<pdfrwt beam="1">  1        1 0.51795868E-02 0.14280929E+03</pdfrwt>
<pdfrwt beam="2">  1       -1 0.76636925E-01 0.14280929E+03</pdfrwt>
<totfact> 0.27358303E+03</totfact>
</mgrwt>
</event>
<event>
 7    1  0.1254976E-005  0.1434022E+03  0.7546771E-02  0.1217853E+00
          2   -1    0    0  501    0  0.00000000000E+00  0.00000000000E+00  0.19722886079E+03  0.19722886079E+03  0.00000000000E+00 0. -1.
         -2   -1    0    0    0  501 -0.00000000000E+00 -0.00000000000E+00 -0.91603515000E+02  0.91603515000E+02  0.00000000000E+00 0.  1.
         23    2    1    2    0    0  0.41634044468E+02 -0.56619701809E+02  0.80721860590E+02  0.14328384056E+03  0.95263087802E+02 0.  0.
          5    1    1    2  502    0 -0.30382836002E+02  0.50911364230E+01 -0.46913785959E+02  0.56320775088E+02  0.47000000000E+01 0.  1.
         -5    1    1    2    0  502 -0.11251208466E+02  0.51528565387E+02  0.71817271160E+02  0.89227760140E+02  0.47000000000E+01 0.  1.
        -11    1    3    3    0    0  0.68494575442E+01 -0.15109100173E+02  0.87177962937E+02  0.88742307827E+02  0.00000000000E+00 0. -1.
         11    1    3    3    0    0  0.34784586923E+02 -0.41510601636E+02 -0.64561023470E+01  0.54541532736E+02  0.00000000000E+00 0.  1.
<mgrwt>
<rscale>  0 0.13669042E+03</rscale>
<asrwt>0</asrwt>
<pdfrwt beam="1">  1        2 0.30342901E-01 0.14340221E+03</pdfrwt>
<pdfrwt beam="2">  1       -2 0.14092849E-01 0.14340221E+03</pdfrwt>
<totfact> 0.62803495E+03</totfact>
</mgrwt>
</event>
<event>
 7    1  0.1254976E-005  0.1402388E+03  0.7546771E-02  0.1223940E+00
         -1   -1    0    0    0  501 -0.00000000000E+00  0.00000000000E+00  0.29654343899E+02  0.29654343899E+02  0.00000000000E+00 0.  1.
          1   -1    0    0  501    0  0.00000000000E+00 -0.00000000000E+00 -0.53391219910E+03  0.53391219910E+03  0.00000000000E+00 0. -1.
         23    2    1    2    0    0 -0.56294639868E+02  0.29546127594E+02 -0.22539416133E+03  0.25142572116E+03  0.91489371856E+02 0.  0.
          5    1    1    2  502    0  0.92061942240E+02 -0.11699233728E+02 -0.23450731077E+03  0.25224599518E+03  0.47000000000E+01 0. -1.
         -5    1    1    2    0  502 -0.35767302371E+02 -0.17846893866E+02 -0.44356383096E+02  0.59894826662E+02  0.47000000000E+01 0. -1.
        -11    1    3    3    0    0 -0.31681057256E+02 -0.46435504276E+01 -0.12450771745E+02  0.34355111213E+02  0.00000000000E+00 0.  1.
         11    1    3    3    0    0 -0.24613582612E+02  0.34189678022E+02 -0.21294338959E+03  0.21707060994E+03  0.00000000000E+00 0. -1.
<mgrwt>
<rscale>  0 0.13239850E+03</rscale>
<asrwt>0</asrwt>
<pdfrwt beam="2">  1        1 0.82140341E-01 0.14023884E+03</pdfrwt>
<pdfrwt beam="1">  1       -1 0.45622066E-02 0.14023884E+03</pdfrwt>
<totfact> 0.80043751E+03</totfact>
</mgrwt>
</event>
<event>
 7    1  0.1254976E-005  0.1443633E+03  0.7546771E-02  0.1217736E+00
         -1   -1    0    0    0  501 -0.00000000000E+00  0.00000000000E+00  0.24098297054E+03  0.24098297054E+03  0.00000000000E+00 0.  1.
          1   -1    0    0  501    0  0.00000000000E+00 -0.00000000000E+00 -0.91297844056E+02  0.91297844056E+02  0.00000000000E+00 0. -1.
         23    2    1    2    0    0 -0.69183953970E+02 -0.20728103718E+02 -0.10318489228E+02  0.11677695049E+03  0.91182844746E+02 0.  0.
          5    1    1    2  502    0  0.48845942937E+02  0.67641842886E+02  0.13406190859E+03  0.15797477769E+03  0.47000000000E+01 0. -1.
         -5    1    1    2    0  502  0.20338011033E+02 -0.46913739168E+02  0.25941707126E+02  0.57529086418E+02  0.47000000000E+01 0. -1.
        -11    1    3    3    0    0 -0.29660497299E+02  0.35992059470E+02 -0.97259138407E+01  0.47642070116E+02  0.00000000000E+00 0.  1.
         11    1    3    3    0    0 -0.39523456671E+02 -0.56720163188E+02 -0.59257538769E+00  0.69134880378E+02  0.00000000000E+00 0. -1.
<mgrwt>
<rscale>  0 0.13677488E+03</rscale>
<asrwt>0</asrwt>
<pdfrwt beam="2">  1        1 0.14045822E-01 0.14436329E+03</pdfrwt>
<pdfrwt beam="1">  1       -1 0.37074303E-01 0.14436329E+03</pdfrwt>
<totfact> 0.27853061E+03</totfact>
</mgrwt>
</event>
<event>
 7    1  0.1254976E-005  0.1335745E+03  0.7546771E-02  0.1236515E+00
         -1   -1    0    0    0  501 -0.00000000000E+00  0.00000000000E+00  0.37414733243E+03  0.37414733243E+03  0.00000000000E+00 0.  1.
          1   -1    0    0  501    0  0.00000000000E+00 -0.00000000000E+00 -0.37214799167E+02  0.37214799167E+02  0.00000000000E+00 0. -1.
         23    2    1    2    0    0 -0.14985529724E+02 -0.44630170118E+02  0.11223950212E+03  0.14996377878E+03  0.87607139674E+02 0.  0.
          5    1    1    2  502    0  0.32224517971E+02  0.83406409358E+02  0.16864966759E+03  0.19094462302E+03  0.47000000000E+01 0. -1.
         -5    1    1    2    0  502 -0.17238988248E+02 -0.38776239241E+02  0.56043363547E+02  0.70453729803E+02  0.47000000000E+01 0. -1.
        -11    1    3    3    0    0 -0.44022134897E+02 -0.25578967873E+02  0.26370564529E+02  0.57337933621E+02  0.00000000000E+00 0. -1.
         11    1    3    3    0    0  0.29036605173E+02 -0.19051202245E+02  0.85868937595E+02  0.92625845155E+02  0.00000000000E+00 0.  1.
<mgrwt>
<rscale>  0 0.12407949E+03</rscale>
<asrwt>0</asrwt>
<pdfrwt beam="2">  1        1 0.57253540E-02 0.13357448E+03</pdfrwt>
<pdfrwt beam="1">  1       -1 0.57561125E-01 0.13357448E+03</pdfrwt>
<totfact> 0.41533922E+03</totfact>
</mgrwt>
</event>
<event>
 7    1  0.1254976E-005  0.1349178E+03  0.7546771E-02  0.1233328E+00
          2   -1    0    0  501    0  0.00000000000E+00  0.00000000000E+00  0.12179165265E+03  0.12179165265E+03  0.00000000000E+00 0. -1.
         -2   -1    0    0    0  501 -0.00000000000E+00 -0.00000000000E+00 -0.12434496038E+03  0.12434496038E+03  0.00000000000E+00 0.  1.
         23    2    1    2    0    0  0.42268379732E+02  0.28113481582E+02  0.30086188037E+02  0.10732684318E+03  0.89648696497E+02 0.  0.
          5    1    1    2  502    0  0.32035711922E+02  0.15432623746E+02 -0.38172571787E+02  0.52380224807E+02  0.47000000000E+01 0. -1.
         -5    1    1    2    0  502 -0.74304091654E+02 -0.43546105328E+02  0.55330760198E+01  0.86429545041E+02  0.47000000000E+01 0. -1.
        -11    1    3    3    0    0  0.36380753838E+02  0.56850619460E+02  0.37304181382E+02  0.77117793870E+02  0.00000000000E+00 0. -1.
         11    1    3    3    0    0  0.58876258946E+01 -0.28737137877E+02 -0.72179933446E+01  0.30209049306E+02  0.00000000000E+00 0.  1.
<mgrwt>
<rscale>  0 0.12612065E+03</rscale>
<asrwt>0</asrwt>
<pdfrwt beam="1">  1        2 0.18737177E-01 0.13491781E+03</pdfrwt>
<pdfrwt beam="2">  1       -2 0.19129994E-01 0.13491781E+03</pdfrwt>
<totfact> 0.64464052E+03</totfact>
</mgrwt>
</event>
<event>
 7    1  0.1254976E-005  0.1503857E+03  0.7546771E-02  0.1209115E+00
         -2   -1    0    0    0  501 -0.00000000000E+00  0.00000000000E+00  0.34665519846E+02  0.34665519846E+02  0.00000000000E+00 0.  1.
          2   -1    0    0  501    0  0.00000000000E+00 -0.00000000000E+00 -0.56962460143E+03  0.56962460143E+03  0.00000000000E+00 0. -1.
         23    2    1    2    0    0  0.21869069813E+02  0.80702658167E+02 -0.30974665799E+03  0.33348298344E+03  0.90976551170E+02 0.  0.
          5    1    1    2  502    0  0.68782727380E+01 -0.85105165469E+02 -0.63700374100E+02  0.10663033098E+03  0.47000000000E+01 0.  1.
         -5    1    1    2    0  502 -0.28747342551E+02  0.44025073023E+01 -0.16151204949E+03  0.16417680684E+03  0.47000000000E+01 0.  1.
        -11    1    3    3    0    0 -0.31472173548E+02  0.46506210256E+02 -0.10388136946E+03  0.11808752780E+03  0.00000000000E+00 0.  1.
         11    1    3    3    0    0  0.53341243362E+02  0.34196447910E+02 -0.20586528853E+03  0.21539545565E+03  0.00000000000E+00 0. -1.
<mgrwt>
<rscale>  0 0.14317838E+03</rscale>
<asrwt>0</asrwt>
<pdfrwt beam="2">  1        2 0.87634557E-01 0.15038574E+03</pdfrwt>
<pdfrwt beam="1">  1       -2 0.53331567E-02 0.15038574E+03</pdfrwt>
<totfact> 0.91494148E+03</totfact>
</mgrwt>
</event>
<event>
 7    1  0.1254976E-005  0.1256276E+03  0.7546771E-02  0.1245350E+00
         -1   -1    0    0    0  501 -0.00000000000E+00  0.00000000000E+00  0.41973815461E+02  0.41973815461E+02  0.00000000000E+00 0.  1.
          1   -1    0    0  501    0  0.00000000000E+00 -0.00000000000E+00 -0.38032921140E+03  0.38032921140E+03  0.00000000000E+00 0. -1.
         23    2    1    2    0    0  0.43924660904E-01 -0.12573717458E+02 -0.24851284051E+03  0.26785566358E+03  0.99145974759E+02 0.  0.
          5    1    1    2  502    0 -0.10856430098E+02 -0.55174820020E+02 -0.34156475177E+02  0.65961182792E+02  0.47000000000E+01 0. -1.
         -5    1    1    2    0  502  0.10812505437E+02  0.67748537478E+02 -0.55686080248E+02  0.88486180490E+02  0.47000000000E+01 0. -1.
        -11    1    3    3    0    0  0.32137030425E+01 -0.48647879347E+02 -0.20746708548E+03  0.21311859518E+03  0.00000000000E+00 0. -1.
         11    1    3    3    0    0 -0.31697783816E+01  0.36074161889E+02 -0.41045755030E+02  0.54737068400E+02  0.00000000000E+00 0.  1.
<mgrwt>
<rscale>  0 0.11864484E+03</rscale>
<asrwt>0</asrwt>
<pdfrwt beam="2">  1        1 0.58512187E-01 0.12562764E+03</pdfrwt>
<pdfrwt beam="1">  1       -1 0.64575100E-02 0.12562764E+03</pdfrwt>
<totfact> 0.73335813E+03</totfact>
</mgrwt>
</event>
<event>
 7    1  0.1254976E-005  0.1258399E+03  0.7546771E-02  0.1250754E+00
          2   -1    0    0  501    0  0.00000000000E+00  0.00000000000E+00  0.10902044799E+03  0.10902044799E+03  0.00000000000E+00 0. -1.
         -2   -1    0    0    0  501 -0.00000000000E+00 -0.00000000000E+00 -0.11710527663E+03  0.11710527663E+03  0.00000000000E+00 0.  1.
         23    2    1    2    0    0 -0.86804184224E+01 -0.11675075811E+02  0.30835444179E+02  0.94404550128E+02  0.88032592873E+02 0.  0.
          5    1    1    2  502    0  0.19774919673E+02 -0.39950770661E+02  0.22857280628E+02  0.50315572164E+02  0.47000000000E+01 0.  1.
         -5    1    1    2    0  502 -0.11094501250E+02  0.51625846471E+02 -0.61777553446E+02  0.81405602335E+02  0.47000000000E+01 0.  1.
        -11    1    3    3    0    0 -0.29771006263E+02 -0.24415881054E+02 -0.15832800007E+02  0.41630825330E+02  0.00000000000E+00 0.  1.
         11    1    3    3    0    0  0.21090587841E+02  0.12740805244E+02  0.46668244185E+02  0.52773724798E+02  0.00000000000E+00 0. -1.
<mgrwt>
<rscale>  0 0.11547485E+03</rscale>
<asrwt>0</asrwt>
<pdfrwt beam="1">  1        2 0.16772377E-01 0.12583990E+03</pdfrwt>
<pdfrwt beam="2">  1       -2 0.18016196E-01 0.12583990E+03</pdfrwt>
<totfact> 0.80498816E+03</totfact>
</mgrwt>
</event>
<event>
 7    1  0.1254976E-005  0.1251529E+03  0.7546771E-02  0.1249124E+00
          2   -1    0    0  501    0  0.00000000000E+00  0.00000000000E+00  0.65315402193E+03  0.65315402193E+03  0.00000000000E+00 0.  1.
         -2   -1    0    0    0  501 -0.00000000000E+00 -0.00000000000E+00 -0.19523908512E+02  0.19523908512E+02  0.00000000000E+00 0. -1.
         23    2    1    2    0    0 -0.61598621707E+01  0.63446847462E+00  0.35629376823E+03  0.36841043998E+03  0.93502174084E+02 0.  0.
          5    1    1    2  502    0 -0.46000593825E+02 -0.12541510409E+02  0.44744952346E+02  0.65555662425E+02  0.47000000000E+01 0. -1.
         -5    1    1    2    0  502  0.52160455996E+02  0.11907041935E+02  0.23259139284E+03  0.23871182803E+03  0.47000000000E+01 0. -1.
        -11    1    3    3    0    0 -0.13541261688E+02  0.43466280366E+02  0.12417891441E+03  0.13226143082E+03  0.00000000000E+00 0. -1.
         11    1    3    3    0    0  0.73813995171E+01 -0.42831811892E+02  0.23211485381E+03  0.23614900916E+03  0.00000000000E+00 0.  1.
<mgrwt>
<rscale>  0 0.11641898E+03</rscale>
<asrwt>0</asrwt>
<pdfrwt beam="1">  1        2 0.10048522E+00 0.12515294E+03</pdfrwt>
<pdfrwt beam="2">  1       -2 0.30036787E-02 0.12515294E+03</pdfrwt>
<totfact> 0.18134355E+04</totfact>
</mgrwt>
</event>
<event>
 7    1  0.1254976E-005  0.1269441E+03  0.7546771E-02  0.1246932E+00
          4   -1    0    0  501    0  0.00000000000E+00  0.00000000000E+00  0.13315440475E+03  0.13315440475E+03  0.00000000000E+00 0. -1.
         -4   -1    0    0    0  501 -0.00000000000E+00 -0.00000000000E+00 -0.98584020411E+02  0.98584020411E+02  0.00000000000E+00 0.  1.
         23    2    1    2    0    0 -0.19108862326E+02  0.11062308070E+02  0.45586941883E+02  0.10431724357E+03  0.91194269321E+02 0.  0.
          5    1    1    2  502    0  0.29369055348E+02  0.48197164761E+02 -0.30116503105E+02  0.64145162423E+02  0.47000000000E+01 0.  1.
         -5    1    1    2    0  502 -0.10260193023E+02 -0.59259472831E+02  0.19099945562E+02  0.63276019167E+02  0.47000000000E+01 0.  1.
        -11    1    3    3    0    0 -0.26124371783E+02  0.39367000197E+02 -0.33342618978E+01  0.47364129972E+02  0.00000000000E+00 0.  1.
         11    1    3    3    0    0  0.70155094575E+01 -0.28304692127E+02  0.48921203781E+02  0.56953113600E+02  0.00000000000E+00 0. -1.
<mgrwt>
<rscale>  0 0.11770469E+03</rscale>
<asrwt>0</asrwt>
<pdfrwt beam="1">  1        4 0.20485293E-01 0.12694405E+03</pdfrwt>
<pdfrwt beam="2">  1       -4 0.15166772E-01 0.12694405E+03</pdfrwt>
<totfact> 0.12965843E+03</totfact>
</mgrwt>
</event>
<event>
 7    1  0.1254976E-005  0.1305783E+03  0.7546771E-02  0.1240288E+00
          1   -1    0    0  501    0  0.00000000000E+00  0.00000000000E+00  0.18813089909E+03  0.18813089909E+03  0.00000000000E+00 0. -1.
         -1   -1    0    0    0  501 -0.00000000000E+00 -0.00000000000E+00 -0.77800829600E+02  0.77800829600E+02  0.00000000000E+00 0.  1.
         23    2    1    2    0    0 -0.37745288275E+02 -0.29900425991E+00  0.90556621651E+02  0.13386480727E+03  0.91074083630E+02 0.  0.
          5    1    1    2  502    0  0.50095434535E+02  0.69102496615E+01 -0.43635864844E+02  0.66958814299E+02  0.47000000000E+01 0.  1.
         -5    1    1    2    0  502 -0.12350146259E+02 -0.66112454016E+01  0.63409312682E+02  0.65108107124E+02  0.47000000000E+01 0.  1.
        -11    1    3    3    0    0  0.14628508196E+02  0.79256465494E+01 -0.10550830589E+02  0.19700993664E+02  0.00000000000E+00 0.  1.
         11    1    3    3    0    0 -0.52373796471E+02 -0.82246508094E+01  0.10110745224E+03  0.11416381360E+03  0.00000000000E+00 0. -1.
<mgrwt>
<rscale>  0 0.12171874E+03</rscale>
<asrwt>0</asrwt>
<pdfrwt beam="1">  1        1 0.28943215E-01 0.13057826E+03</pdfrwt>
<pdfrwt beam="2">  1       -1 0.11969358E-01 0.13057826E+03</pdfrwt>
<totfact> 0.69064263E+03</totfact>
</mgrwt>
</event>
<event>
 7    1  0.1254976E-005  0.1201567E+03  0.7546771E-02  0.1251196E+00
          1   -1    0    0  501    0  0.00000000000E+00  0.00000000000E+00  0.22336191837E+03  0.22336191837E+03  0.00000000000E+00 0. -1.
         -1   -1    0    0    0  501 -0.00000000000E+00 -0.00000000000E+00 -0.65436672775E+02  0.65436672775E+02  0.00000000000E+00 0.  1.
         23    2    1    2    0    0 -0.15519585745E+02 -0.45508299457E+02  0.13079299208E+03  0.16561660906E+03  0.89499673507E+02 0.  0.
          5    1    1    2  502    0  0.35343996797E+02 -0.11048472212E+02 -0.23903281033E+02  0.44325203800E+02  0.47000000000E+01 0.  1.
         -5    1    1    2    0  502 -0.19824411052E+02  0.56556771669E+02  0.51035534551E+02  0.78856778288E+02  0.47000000000E+01 0. -1.
        -11    1    3    3    0    0  0.51042846588E+01 -0.68913121541E+02  0.77230290767E+02  0.10363199243E+03  0.00000000000E+00 0. -1.
         11    1    3    3    0    0 -0.20623870404E+02  0.23404822084E+02  0.53562701309E+02  0.61984616630E+02  0.00000000000E+00 0.  1.
<mgrwt>
<rscale>  0 0.11522106E+03</rscale>
<asrwt>0</asrwt>
<pdfrwt beam="1">  1        1 0.34363372E-01 0.12015674E+03</pdfrwt>
<pdfrwt beam="2">  1       -1 0.10067181E-01 0.12015674E+03</pdfrwt>
<totfact> 0.72345161E+03</totfact>
</mgrwt>
</event>
<event>
 7    1  0.1254976E-005  0.1572132E+03  0.7546771E-02  0.1199979E+00
          2   -1    0    0  501    0  0.00000000000E+00  0.00000000000E+00  0.74163520000E+03  0.74163520000E+03  0.00000000000E+00 0. -1.
         -2   -1    0    0    0  501 -0.00000000000E+00 -0.00000000000E+00 -0.30163769979E+02  0.30163769979E+02  0.00000000000E+00 0.  1.
         23    2    1    2    0    0 -0.24977366966E+02 -0.92013104923E+02  0.42611897933E+03  0.44600451648E+03  0.90842522177E+02 0.  0.
          5    1    1    2  502    0 -0.26521537739E+02  0.90497193841E+02  0.23644795855E+03  0.25460334083E+03  0.47000000000E+01 0.  1.
         -5    1    1    2    0  502  0.51498904705E+02  0.15159110826E+01  0.48904492139E+02  0.71191112673E+02  0.47000000000E+01 0.  1.
        -11    1    3    3    0    0  0.20689465404E+02 -0.60047643781E+02  0.13000590513E+03  0.14469038970E+03  0.00000000000E+00 0.  1.
         11    1    3    3    0    0 -0.45666832369E+02 -0.31965461142E+02  0.29611307421E+03  0.30131412679E+03  0.00000000000E+00 0. -1.
<mgrwt>
<rscale>  0 0.15040292E+03</rscale>
<asrwt>0</asrwt>
<pdfrwt beam="1">  1        2 0.11409771E+00 0.15721325E+03</pdfrwt>
<pdfrwt beam="2">  1       -2 0.46405805E-02 0.15721325E+03</pdfrwt>
<totfact> 0.83079033E+03</totfact>
</mgrwt>
</event>
<event>
 7    1  0.1254976E-005  0.1340043E+03  0.7546771E-02  0.1234113E+00
         -2   -1    0    0    0  501 -0.00000000000E+00  0.00000000000E+00  0.13337328111E+03  0.13337328111E+03  0.00000000000E+00 0.  1.
          2   -1    0    0  501    0  0.00000000000E+00 -0.00000000000E+00 -0.12169056444E+03  0.12169056444E+03  0.00000000000E+00 0. -1.
         23    2    1    2    0    0 -0.46006751486E+02 -0.14653857089E+02 -0.40704364695E+02  0.11118352831E+03  0.91507239890E+02 0.  0.
          5    1    1    2  502    0  0.88656778024E+02  0.38877759732E+00  0.35284243603E+02  0.95536607038E+02  0.47000000000E+01 0.  1.
         -5    1    1    2    0  502 -0.42650026539E+02  0.14265079492E+02  0.17102837760E+02  0.48343710202E+02  0.47000000000E+01 0.  1.
        -11    1    3    3    0    0 -0.21745540476E+02  0.34987578733E+02 -0.37711922846E+02  0.55849694009E+02  0.00000000000E+00 0. -1.
         11    1    3    3    0    0 -0.24261211009E+02 -0.49641435822E+02 -0.29924418490E+01  0.55333834300E+02  0.00000000000E+00 0.  1.
<mgrwt>
<rscale>  0 0.12561367E+03</rscale>
<asrwt>0</asrwt>
<pdfrwt beam="2">  1        2 0.18721625E-01 0.13400425E+03</pdfrwt>
<pdfrwt beam="1">  1       -2 0.20518966E-01 0.13400425E+03</pdfrwt>
<totfact> 0.57291257E+03</totfact>
</mgrwt>
</event>
<event>
 7    1  0.1254976E-005  0.2238530E+03  0.7546771E-02  0.1134136E+00
         -1   -1    0    0    0  501 -0.00000000000E+00  0.00000000000E+00  0.11175839678E+03  0.11175839678E+03  0.00000000000E+00 0.  1.
          1   -1    0    0  501    0  0.00000000000E+00 -0.00000000000E+00 -0.42364559033E+03  0.42364559033E+03  0.00000000000E+00 0. -1.
         23    2    1    2    0    0 -0.15499888522E+03 -0.10228690248E+03 -0.11497738915E+03  0.23727042100E+03  0.92683266158E+02 0.  0.
          5    1    1    2  502    0  0.17382755738E+03  0.10521114827E+03 -0.18684793557E+03  0.27607905834E+03  0.47000000000E+01 0. -1.
         -5    1    1    2    0  502 -0.18828672167E+02 -0.29242457862E+01 -0.10061868823E+02  0.22054507775E+02  0.47000000000E+01 0. -1.
        -11    1    3    3    0    0 -0.85077815623E+02 -0.84102876590E+02 -0.11365400822E+03  0.16501140005E+03  0.00000000000E+00 0. -1.
         11    1    3    3    0    0 -0.69921069595E+02 -0.18184025891E+02 -0.13233809306E+01  0.72259020945E+02  0.00000000000E+00 0.  1.
<mgrwt>
<rscale>  0 0.21966122E+03</rscale>
<asrwt>0</asrwt>
<pdfrwt beam="2">  1        1 0.65176244E-01 0.22385297E+03</pdfrwt>
<pdfrwt beam="1">  1       -1 0.17193600E-01 0.22385297E+03</pdfrwt>
<totfact> 0.14462474E+03</totfact>
</mgrwt>
</event>
<event>
 7    1  0.1254976E-005  0.1822550E+03  0.7546771E-02  0.1171116E+00
          2   -1    0    0  501    0  0.00000000000E+00  0.00000000000E+00  0.70380390943E+03  0.70380390943E+03  0.00000000000E+00 0. -1.
         -2   -1    0    0    0  501 -0.00000000000E+00 -0.00000000000E+00 -0.42389257710E+02  0.42389257710E+02  0.00000000000E+00 0.  1.
         23    2    1    2    0    0  0.43319033081E+02 -0.12535819716E+03  0.35460150037E+03  0.38933018066E+03  0.90799500497E+02 0.  0.
          5    1    1    2  502    0 -0.79968207496E+02  0.83442277714E+02  0.14385424995E+03  0.18459052833E+03  0.47000000000E+01 0.  1.
         -5    1    1    2    0  502  0.36649174416E+02  0.41915919450E+02  0.16295890140E+03  0.17227245815E+03  0.47000000000E+01 0.  1.
        -11    1    3    3    0    0  0.47001865755E+02 -0.13886141961E+03  0.31888298450E+03  0.35096727346E+03  0.00000000000E+00 0.  1.
         11    1    3    3    0    0 -0.36828326741E+01  0.13503222447E+02  0.35718515870E+02  0.38362907201E+02  0.00000000000E+00 0. -1.
<mgrwt>
<rscale>  0 0.17661893E+03</rscale>
<asrwt>0</asrwt>
<pdfrwt beam="1">  1        2 0.10827752E+00 0.18225499E+03</pdfrwt>
<pdfrwt beam="2">  1       -2 0.65214248E-02 0.18225499E+03</pdfrwt>
<totfact> 0.53188048E+03</totfact>
</mgrwt>
</event>
<event>
 7    1  0.1254976E-005  0.1563267E+03  0.7546771E-02  0.1204221E+00
         -2   -1    0    0    0  501 -0.00000000000E+00  0.00000000000E+00  0.23597099321E+02  0.23597099321E+02  0.00000000000E+00 0.  1.
          2   -1    0    0  501    0  0.00000000000E+00 -0.00000000000E+00 -0.91937325486E+03  0.91937325486E+03  0.00000000000E+00 0. -1.
         23    2    1    2    0    0  0.91542304491E+02  0.20608413937E+02 -0.55133571279E+03  0.56471479115E+03  0.78275327573E+02 0.  0.
          5    1    1    2  502    0 -0.66132558392E+02 -0.63785321273E+02 -0.13861052107E+03  0.16636420601E+03  0.47000000000E+01 0.  1.
         -5    1    1    2    0  502 -0.25409746099E+02  0.43176907336E+02 -0.20582992167E+03  0.21189135702E+03  0.47000000000E+01 0.  1.
        -11    1    3    3    0    0  0.71538992723E+02  0.48542993598E+02 -0.43019062043E+03  0.43879177250E+03  0.00000000000E+00 0.  1.
         11    1    3    3    0    0  0.20003311769E+02 -0.27934579661E+02 -0.12114509236E+03  0.12592301865E+03  0.00000000000E+00 0. -1.
<mgrwt>
<rscale>  0 0.14699032E+03</rscale>
<asrwt>0</asrwt>
<pdfrwt beam="2">  1        2 0.14144203E+00 0.15632675E+03</pdfrwt>
<pdfrwt beam="1">  1       -2 0.36303232E-02 0.15632675E+03</pdfrwt>
<totfact> 0.91240359E+03</totfact>
</mgrwt>
</event>
<event>
 7    1  0.1254976E-005  0.1609238E+03  0.7546771E-02  0.1195151E+00
          2   -1    0    0  501    0  0.00000000000E+00  0.00000000000E+00  0.26814912894E+03  0.26814912894E+03  0.00000000000E+00 0. -1.
         -2   -1    0    0    0  501 -0.00000000000E+00 -0.00000000000E+00 -0.98294193491E+02  0.98294193491E+02  0.00000000000E+00 0.  1.
         23    2    1    2    0    0 -0.86252143441E+02 -0.53208807831E+02  0.15245374395E+03  0.20458138546E+03  0.91327924281E+02 0.  0.
          5    1    1    2  502    0  0.11235863611E+03  0.20642571979E+02  0.29635490199E+02  0.11811405998E+03  0.47000000000E+01 0. -1.
         -5    1    1    2    0  502 -0.26106492669E+02  0.32566235851E+02 -0.12234298693E+02  0.43747876994E+02  0.47000000000E+01 0. -1.
        -11    1    3    3    0    0 -0.25778034032E+02  0.18525142759E+02  0.86927239017E+01  0.32912784775E+02  0.00000000000E+00 0.  1.
         11    1    3    3    0    0 -0.60474109409E+02 -0.71733950590E+02  0.14376102004E+03  0.17166860068E+03  0.00000000000E+00 0. -1.
<mgrwt>
<rscale>  0 0.15441436E+03</rscale>
<asrwt>0</asrwt>
<pdfrwt beam="1">  1        2 0.41253712E-01 0.16092385E+03</pdfrwt>
<pdfrwt beam="2">  1       -2 0.15122184E-01 0.16092385E+03</pdfrwt>
<totfact> 0.40506604E+03</totfact>
</mgrwt>
</event>
<event>
 7    1  0.1254976E-005  0.1930634E+03  0.7546771E-02  0.1159741E+00
          2   -1    0    0  501    0  0.00000000000E+00  0.00000000000E+00  0.51911570325E+03  0.51911570325E+03  0.00000000000E+00 0. -1.
         -2   -1    0    0    0  501 -0.00000000000E+00 -0.00000000000E+00 -0.81869767382E+02  0.81869767382E+02  0.00000000000E+00 0.  1.
         23    2    1    2    0    0 -0.58421411004E+02  0.13503570854E+03  0.34460404806E+03  0.38684530782E+03  0.96175040408E+02 0.  0.
          5    1    1    2  502    0  0.87831020670E+02 -0.59464787634E+02  0.77658283860E+02  0.13154181165E+03  0.47000000000E+01 0. -1.
         -5    1    1    2    0  502 -0.29409609666E+02 -0.75570920906E+02  0.14983603945E+02  0.82598351161E+02  0.47000000000E+01 0. -1.
        -11    1    3    3    0    0  0.94475827663E+00  0.75518305175E+02  0.24568633126E+03  0.25703245000E+03  0.00000000000E+00 0. -1.
         11    1    3    3    0    0 -0.59366169280E+02  0.59517403364E+02  0.98917716802E+02  0.12981285782E+03  0.00000000000E+00 0.  1.
<mgrwt>
<rscale>  0 0.18858848E+03</rscale>
<asrwt>0</asrwt>
<pdfrwt beam="1">  1        2 0.79863953E-01 0.19306344E+03</pdfrwt>
<pdfrwt beam="2">  1       -2 0.12595349E-01 0.19306344E+03</pdfrwt>
<totfact> 0.26920653E+03</totfact>
</mgrwt>
</event>
<event>
 7    1  0.1254976E-005  0.1778963E+03  0.7546771E-02  0.1175708E+00
          2   -1    0    0  501    0  0.00000000000E+00  0.00000000000E+00  0.65261998007E+03  0.65261998007E+03  0.00000000000E+00 0. -1.
         -2   -1    0    0    0  501 -0.00000000000E+00 -0.00000000000E+00 -0.50501703344E+02  0.50501703344E+02  0.00000000000E+00 0.  1.
         23    2    1    2    0    0  0.96480134053E+02 -0.81928612923E+02  0.42267288466E+03  0.45044054540E+03  0.90684086989E+02 0.  0.
          5    1    1    2  502    0  0.26019437412E+02  0.27258782380E+02  0.69396262096E+02  0.79107417686E+02  0.47000000000E+01 0.  1.
         -5    1    1    2    0  502 -0.12249957146E+03  0.54669830543E+02  0.11004912997E+03  0.17357372033E+03  0.47000000000E+01 0.  1.
        -11    1    3    3    0    0  0.44209437399E+02  0.11591466190E+02  0.89968777579E+02  0.10091192884E+03  0.00000000000E+00 0.  1.
         11    1    3    3    0    0  0.52270696654E+02 -0.93520079113E+02  0.33270410708E+03  0.34952861656E+03  0.00000000000E+00 0. -1.
<mgrwt>
<rscale>  0 0.17206855E+03</rscale>
<asrwt>0</asrwt>
<pdfrwt beam="1">  1        2 0.10040307E+00 0.17789634E+03</pdfrwt>
<pdfrwt beam="2">  1       -2 0.77694933E-02 0.17789634E+03</pdfrwt>
<totfact> 0.44366091E+03</totfact>
</mgrwt>
</event>
<event>
 7    1  0.1254976E-005  0.1724731E+03  0.7546771E-02  0.1182444E+00
         -1   -1    0    0    0  501 -0.00000000000E+00  0.00000000000E+00  0.22354851496E+03  0.22354851496E+03  0.00000000000E+00 0.  1.
          1   -1    0    0  501    0  0.00000000000E+00 -0.00000000000E+00 -0.12582191114E+03  0.12582191114E+03  0.00000000000E+00 0. -1.
         23    2    1    2    0    0 -0.67602561197E+02  0.97723493857E+02 -0.80656710284E+01  0.14703660486E+03  0.86224825820E+02 0.  0.
          5    1    1    2  502    0  0.18749746927E+02  0.21244247089E+02 -0.87750397202E+01  0.30032688296E+02  0.47000000000E+01 0. -1.
         -5    1    1    2    0  502  0.48852814270E+02 -0.11896774095E+03  0.11456731457E+03  0.17230113295E+03  0.47000000000E+01 0. -1.
        -11    1    3    3    0    0 -0.72822853127E+02  0.37446590755E+02 -0.22327283584E+02  0.84875925262E+02  0.00000000000E+00 0. -1.
         11    1    3    3    0    0  0.52202919305E+01  0.60276903103E+02  0.14261612556E+02  0.62160679599E+02  0.00000000000E+00 0.  1.
<mgrwt>
<rscale>  0 0.16566616E+03</rscale>
<asrwt>0</asrwt>
<pdfrwt beam="2">  1        1 0.19357217E-01 0.17247310E+03</pdfrwt>
<pdfrwt beam="1">  1       -1 0.34392079E-01 0.17247310E+03</pdfrwt>
<totfact> 0.21108311E+03</totfact>
</mgrwt>
</event>
<event>
 7    1  0.1254976E-005  0.2176826E+03  0.7546771E-02  0.1135623E+00
          2   -1    0    0  501    0  0.00000000000E+00  0.00000000000E+00  0.18685277587E+03  0.18685277587E+03  0.00000000000E+00 0.  1.
         -2   -1    0    0    0  501 -0.00000000000E+00 -0.00000000000E+00 -0.63399772368E+02  0.63399772368E+02  0.00000000000E+00 0. -1.
         23    2    1    2    0    0 -0.62942167598E+01  0.24282555743E+02  0.53894253843E+02  0.10502227754E+03  0.86578452884E+02 0.  0.
          5    1    1    2  502    0 -0.21521019224E+02  0.44232354066E+02  0.45918027220E+02  0.67455249154E+02  0.47000000000E+01 0.  1.
         -5    1    1    2    0  502  0.27815235984E+02 -0.68514909809E+02  0.23640722436E+02  0.77775021545E+02  0.47000000000E+01 0.  1.
        -11    1    3    3    0    0  0.20688542380E+02  0.18663797512E+01  0.64990801135E+02  0.68229783755E+02  0.00000000000E+00 0.  1.
         11    1    3    3    0    0 -0.26982759140E+02  0.22416175992E+02 -0.11096547291E+02  0.36792493782E+02  0.00000000000E+00 0. -1.
<mgrwt>
<rscale>  0 0.21768255E+03</rscale>
<asrwt>0</asrwt>
<pdfrwt beam="1">  1        2 0.28746581E-01 0.21768255E+03</pdfrwt>
<pdfrwt beam="2">  1       -2 0.97538112E-02 0.21768255E+03</pdfrwt>
<totfact> 0.12369783E+04</totfact>
</mgrwt>
</event>
<event>
 7    1  0.1254976E-005  0.2442484E+03  0.7546771E-02  0.1153461E+00
          1   -1    0    0  501    0  0.00000000000E+00  0.00000000000E+00  0.46099662471E+03  0.46099662471E+03  0.00000000000E+00 0. -1.
         -1   -1    0    0    0  501 -0.00000000000E+00 -0.00000000000E+00 -0.74398119408E+02  0.74398119408E+02  0.00000000000E+00 0.  1.
         23    2    1    2    0    0  0.27232562499E+02 -0.36141686541E+02  0.21359159285E+03  0.23608111193E+03  0.89805840051E+02 0.  0.
          5    1    1    2  502    0 -0.40769424760E+02  0.91428223187E+02  0.20901370550E+03  0.23179750878E+03  0.47000000000E+01 0. -1.
         -5    1    1    2    0  502  0.13536862261E+02 -0.55286536646E+02 -0.36006793048E+02  0.67516123406E+02  0.47000000000E+01 0.  1.
        -11    1    3    3    0    0 -0.40565324641E+01  0.25881586050E+02  0.30235304337E+02  0.40006069295E+02  0.00000000000E+00 0. -1.
         11    1    3    3    0    0  0.31289094963E+02 -0.62023272592E+02  0.18335628851E+03  0.19607504263E+03  0.00000000000E+00 0.  1.
<mgrwt>
<rscale>  0 0.19565156E+03</rscale>
<asrwt>0</asrwt>
<pdfrwt beam="1">  1        1 0.70922556E-01 0.24424835E+03</pdfrwt>
<pdfrwt beam="2">  1       -1 0.11445865E-01 0.24424835E+03</pdfrwt>
<totfact> 0.24695352E+03</totfact>
</mgrwt>
</event>
<event>
 7    1  0.1254976E-005  0.1546701E+03  0.7546771E-02  0.1204328E+00
          1   -1    0    0  501    0  0.00000000000E+00  0.00000000000E+00  0.64608069436E+02  0.64608069436E+02  0.00000000000E+00 0. -1.
         -1   -1    0    0    0  501 -0.00000000000E+00 -0.00000000000E+00 -0.30628768189E+03  0.30628768189E+03  0.00000000000E+00 0.  1.
         23    2    1    2    0    0  0.79195311706E+02  0.45006707905E+02 -0.94584102076E+02  0.15744805456E+03  0.86869076005E+02 0.  0.
          5    1    1    2  502    0 -0.99125328478E+02 -0.15488576476E+02 -0.54818480570E+02  0.11442413451E+03  0.47000000000E+01 0. -1.
         -5    1    1    2    0  502  0.19930016772E+02 -0.29518131429E+02 -0.92277029813E+02  0.99023562260E+02  0.47000000000E+01 0. -1.
        -11    1    3    3    0    0  0.88990951919E+02  0.55990917705E+02 -0.62915127826E+02  0.12252626534E+03  0.00000000000E+00 0. -1.
         11    1    3    3    0    0 -0.97956402130E+01 -0.10984209800E+02 -0.31668974250E+02  0.34921789217E+02  0.00000000000E+00 0.  1.
<mgrwt>
<rscale>  0 0.14690511E+03</rscale>
<asrwt>0</asrwt>
<pdfrwt beam="1">  1        1 0.99397032E-02 0.15467007E+03</pdfrwt>
<pdfrwt beam="2">  1       -1 0.47121181E-01 0.15467007E+03</pdfrwt>
<totfact> 0.28818121E+03</totfact>
</mgrwt>
</event>
<event>
 7    1  0.1254976E-005  0.2175103E+03  0.7546771E-02  0.1139513E+00
          2   -1    0    0  501    0  0.00000000000E+00  0.00000000000E+00  0.15828685741E+04  0.15828685741E+04  0.00000000000E+00 0. -1.
         -2   -1    0    0    0  501 -0.00000000000E+00 -0.00000000000E+00 -0.27771239496E+02  0.27771239496E+02  0.00000000000E+00 0.  1.
         23    2    1    2    0    0  0.80049931736E+01 -0.17782463621E+03  0.64291972241E+03  0.67288787099E+03  0.88014977727E+02 0.  0.
          5    1    1    2  502    0 -0.18519743227E+01  0.19537387202E+03  0.86540204703E+03  0.88719624249E+03  0.47000000000E+01 0.  1.
         -5    1    1    2    0  502 -0.61530188509E+01 -0.17549235809E+02  0.46775565208E+02  0.50555700163E+02  0.47000000000E+01 0.  1.
        -11    1    3    3    0    0  0.43932437146E+01 -0.14603279960E+03  0.60891390410E+03  0.62619567370E+03  0.00000000000E+00 0. -1.
         11    1    3    3    0    0  0.36117494590E+01 -0.31791836609E+02  0.34005818304E+02  0.46692197289E+02  0.00000000000E+00 0.  1.
<mgrwt>
<rscale>  0 0.21261374E+03</rscale>
<asrwt>0</asrwt>
<pdfrwt beam="1">  1        2 0.24351817E+00 0.21751025E+03</pdfrwt>
<pdfrwt beam="2">  1       -2 0.42724996E-02 0.21751025E+03</pdfrwt>
<totfact> 0.30626733E+03</totfact>
</mgrwt>
</event>
<event>
 7    1  0.1254976E-005  0.1398726E+03  0.7546771E-02  0.1224270E+00
         -3   -1    0    0    0  501 -0.00000000000E+00  0.00000000000E+00  0.49031770058E+02  0.49031770058E+02  0.00000000000E+00 0.  1.
          3   -1    0    0  501    0  0.00000000000E+00 -0.00000000000E+00 -0.39024583113E+03  0.39024583113E+03  0.00000000000E+00 0. -1.
         23    2    1    2    0    0 -0.20912510574E+02  0.59172457057E+02 -0.24593435303E+03  0.27003644491E+03  0.92180598875E+02 0.  0.
          5    1    1    2  502    0  0.13688962238E+02 -0.96390322119E+02 -0.85860314276E+02  0.12989443965E+03  0.47000000000E+01 0.  1.
         -5    1    1    2    0  502  0.72235483369E+01  0.37217865062E+02 -0.94193937746E+01  0.39346716628E+02  0.47000000000E+01 0.  1.
        -11    1    3    3    0    0 -0.30883478285E+02  0.65900746102E+02 -0.24743339385E+03  0.25791467961E+03  0.00000000000E+00 0. -1.
         11    1    3    3    0    0  0.99709677103E+01 -0.67282890453E+01  0.14990408232E+01  0.12121765298E+02  0.00000000000E+00 0.  1.
<mgrwt>
<rscale>  0 0.13217049E+03</rscale>
<asrwt>0</asrwt>
<pdfrwt beam="2">  1        3 0.60037818E-01 0.13987261E+03</pdfrwt>
<pdfrwt beam="1">  1       -3 0.75433495E-02 0.13987261E+03</pdfrwt>
<totfact> 0.75036667E+02</totfact>
</mgrwt>
</event>
<event>
 7    1  0.1254976E-005  0.1514143E+03  0.7546771E-02  0.1207406E+00
          3   -1    0    0  501    0  0.00000000000E+00  0.00000000000E+00  0.12036745645E+03  0.12036745645E+03  0.00000000000E+00 0. -1.
         -3   -1    0    0    0  501 -0.00000000000E+00 -0.00000000000E+00 -0.18997931583E+03  0.18997931583E+03  0.00000000000E+00 0.  1.
         23    2    1    2    0    0 -0.42845775491E+00  0.85444553844E+02  0.29993364137E+02  0.12910802994E+03  0.92023508653E+02 0.  0.
          5    1    1    2  502    0 -0.35522719206E+02 -0.48213147956E+02 -0.11264311779E+03  0.12765944227E+03  0.47000000000E+01 0. -1.
         -5    1    1    2    0  502  0.35951176961E+02 -0.37231405887E+02  0.13037894270E+02  0.53579300072E+02  0.47000000000E+01 0. -1.
        -11    1    3    3    0    0  0.11321335907E+02  0.37615868400E+02 -0.31479032202E+02  0.50339404750E+02  0.00000000000E+00 0.  1.
         11    1    3    3    0    0 -0.11749793661E+02  0.47828685444E+02  0.61472396339E+02  0.78768625189E+02  0.00000000000E+00 0. -1.
<mgrwt>
<rscale>  0 0.14449459E+03</rscale>
<asrwt>0</asrwt>
<pdfrwt beam="1">  1        3 0.18518070E-01 0.15141427E+03</pdfrwt>
<pdfrwt beam="2">  1       -3 0.29227587E-01 0.15141427E+03</pdfrwt>
<totfact> 0.68125753E+02</totfact>
</mgrwt>
</event>
<event>
 7    1  0.1254976E-005  0.1262420E+03  0.7546771E-02  0.1248370E+00
         -1   -1    0    0    0  501 -0.00000000000E+00  0.00000000000E+00  0.38849343285E+03  0.38849343285E+03  0.00000000000E+00 0.  1.
          1   -1    0    0  501    0  0.00000000000E+00 -0.00000000000E+00 -0.32068626863E+02  0.32068626863E+02  0.00000000000E+00 0. -1.
         23    2    1    2    0    0 -0.74790008089E+01  0.16001716946E+02  0.11133606444E+03  0.14487103193E+03  0.90993990174E+02 0.  0.
          5    1    1    2  502    0  0.45279231141E+02 -0.21579345420E+02  0.33201614736E+02  0.60335015891E+02  0.47000000000E+01 0. -1.
         -5    1    1    2    0  502 -0.37800230332E+02  0.55776284738E+01  0.21188712681E+03  0.21535601190E+03  0.47000000000E+01 0. -1.
        -11    1    3    3    0    0  0.27429977477E+02 -0.21690430426E+02  0.20560890757E+02  0.40566348926E+02  0.00000000000E+00 0.  1.
         11    1    3    3    0    0 -0.34908978286E+02  0.37692147372E+02  0.90775173684E+02  0.10430468300E+03  0.00000000000E+00 0. -1.
<mgrwt>
<rscale>  0 0.11685953E+03</rscale>
<asrwt>0</asrwt>
<pdfrwt beam="2">  1        1 0.49336352E-02 0.12624204E+03</pdfrwt>
<pdfrwt beam="1">  1       -1 0.59768217E-01 0.12624204E+03</pdfrwt>
<totfact> 0.47199293E+03</totfact>
</mgrwt>
</event>
<event>
 7    1  0.1254976E-005  0.1867926E+03  0.7546771E-02  0.1168518E+00
         -1   -1    0    0    0  501 -0.00000000000E+00  0.00000000000E+00  0.73811928162E+02  0.73811928162E+02  0.00000000000E+00 0.  1.
          1   -1    0    0  501    0  0.00000000000E+00 -0.00000000000E+00 -0.48464225687E+03  0.48464225687E+03  0.00000000000E+00 0. -1.
         23    2    1    2    0    0  0.12311338274E+03 -0.64087552907E+02 -0.30516239249E+03  0.34384484269E+03  0.76426897147E+02 0.  0.
          5    1    1    2  502    0 -0.68012894531E+02  0.62400661798E+02 -0.12548009247E+03  0.15584267715E+03  0.47000000000E+01 0. -1.
         -5    1    1    2    0  502 -0.55100488207E+02  0.16868911087E+01  0.19812156252E+02  0.58766665191E+02  0.47000000000E+01 0. -1.
        -11    1    3    3    0    0  0.69275729419E+02 -0.74151357235E+02 -0.16965866329E+03  0.19769069906E+03  0.00000000000E+00 0.  1.
         11    1    3    3    0    0  0.53837653320E+02  0.10063804328E+02 -0.13550372920E+03  0.14615414363E+03  0.00000000000E+00 0. -1.
<mgrwt>
<rscale>  0 0.17926277E+03</rscale>
<asrwt>0</asrwt>
<pdfrwt beam="2">  1        1 0.74560348E-01 0.18679255E+03</pdfrwt>
<pdfrwt beam="1">  1       -1 0.11355681E-01 0.18679255E+03</pdfrwt>
<totfact> 0.23251369E+03</totfact>
</mgrwt>
</event>
<event>
 7    1  0.1254976E-005  0.1563971E+03  0.7546771E-02  0.1201012E+00
          2   -1    0    0  501    0  0.00000000000E+00  0.00000000000E+00  0.23360470979E+03  0.23360470979E+03  0.00000000000E+00 0. -1.
         -2   -1    0    0    0  501 -0.00000000000E+00 -0.00000000000E+00 -0.89687557189E+02  0.89687557189E+02  0.00000000000E+00 0.  1.
         23    2    1    2    0    0 -0.82365729141E+02 -0.44937943734E+02  0.85889694700E+02  0.15647727929E+03  0.91129397853E+02 0.  0.
          5    1    1    2  502    0 -0.90548575863E+01 -0.15637597887E+01  0.63173227684E+02  0.64010799765E+02  0.47000000000E+01 0.  1.
         -5    1    1    2    0  502  0.91420586727E+02  0.46501703523E+02 -0.51457697859E+01  0.10280418792E+03  0.47000000000E+01 0.  1.
        -11    1    3    3    0    0 -0.33625350621E+02 -0.15974882185E+02 -0.15489668072E+02  0.40321097235E+02  0.00000000000E+00 0.  1.
         11    1    3    3    0    0 -0.48740378520E+02 -0.28963061549E+02  0.10137936277E+03  0.11615618205E+03  0.00000000000E+00 0. -1.
<mgrwt>
<rscale>  0 0.14956217E+03</rscale>
<asrwt>0</asrwt>
<pdfrwt beam="1">  1        2 0.35939186E-01 0.15639710E+03</pdfrwt>
<pdfrwt beam="2">  1       -2 0.13798086E-01 0.15639710E+03</pdfrwt>
<totfact> 0.54445545E+03</totfact>
</mgrwt>
</event>
<event>
 7    1  0.1254976E-005  0.1521404E+03  0.7546771E-02  0.1206260E+00
         -2   -1    0    0    0  501 -0.00000000000E+00  0.00000000000E+00  0.23764812145E+02  0.23764812145E+02  0.00000000000E+00 0. -1.
          2   -1    0    0  501    0  0.00000000000E+00 -0.00000000000E+00 -0.84166665441E+03  0.84166665441E+03  0.00000000000E+00 0.  1.
         23    2    1    2    0    0 -0.78752711178E+02 -0.36359862805E+02 -0.30206546388E+03  0.32762679313E+03  0.92583702487E+02 0.  0.
          5    1    1    2  502    0  0.99065136493E+02 -0.11307774289E+02 -0.32293108592E+03  0.33800642491E+03  0.47000000000E+01 0. -1.
         -5    1    1    2    0  502 -0.20312425315E+02  0.47667637094E+02 -0.19290529246E+03  0.19979824851E+03  0.47000000000E+01 0. -1.
        -11    1    3    3    0    0 -0.71324922672E+02  0.69592038449E+01 -0.24691958160E+03  0.25710883861E+03  0.00000000000E+00 0.  1.
         11    1    3    3    0    0 -0.74277885054E+01 -0.43319066650E+02 -0.55145882278E+02  0.70517954520E+02  0.00000000000E+00 0. -1.
<mgrwt>
<rscale>  0 0.14538592E+03</rscale>
<asrwt>0</asrwt>
<pdfrwt beam="2">  1        2 0.12948714E+00 0.15214039E+03</pdfrwt>
<pdfrwt beam="1">  1       -2 0.36561259E-02 0.15214039E+03</pdfrwt>
<totfact> 0.10112558E+04</totfact>
</mgrwt>
</event>
<event>
 7    1  0.1254976E-005  0.1611568E+03  0.7546771E-02  0.1195266E+00
         -1   -1    0    0    0  501 -0.00000000000E+00  0.00000000000E+00  0.29968598935E+03  0.29968598935E+03  0.00000000000E+00 0.  1.
          1   -1    0    0  501    0  0.00000000000E+00 -0.00000000000E+00 -0.78239954383E+02  0.78239954383E+02  0.00000000000E+00 0. -1.
         23    2    1    2    0    0 -0.45910561856E+02 -0.90769627695E+02  0.54950813143E+02  0.14621021019E+03  0.89503791519E+02 0.  0.
          5    1    1    2  502    0 -0.87574834534E+01 -0.10647347831E+02  0.94849980211E+02  0.95961806352E+02  0.47000000000E+01 0. -1.
         -5    1    1    2    0  502  0.54668045309E+02  0.10141697553E+03  0.71645241613E+02  0.13575392719E+03  0.47000000000E+01 0. -1.
        -11    1    3    3    0    0  0.21463889201E+02 -0.49857799701E+02  0.36020261529E+02  0.65145667325E+02  0.00000000000E+00 0.  1.
         11    1    3    3    0    0 -0.67374451057E+02 -0.40911827994E+02  0.18930551614E+02  0.81064542862E+02  0.00000000000E+00 0. -1.
<mgrwt>
<rscale>  0 0.15431715E+03</rscale>
<asrwt>0</asrwt>
<pdfrwt beam="2">  1        1 0.12036916E-01 0.16115683E+03</pdfrwt>
<pdfrwt beam="1">  1       -1 0.46105536E-01 0.16115683E+03</pdfrwt>
<totfact> 0.23304999E+03</totfact>
</mgrwt>
</event>
<event>
 7    1  0.1254976E-005  0.1350076E+03  0.7546771E-02  0.1236389E+00
          1   -1    0    0  501    0  0.00000000000E+00  0.00000000000E+00  0.23958300468E+02  0.23958300468E+02  0.00000000000E+00 0. -1.
         -1   -1    0    0    0  501 -0.00000000000E+00 -0.00000000000E+00 -0.58904361926E+03  0.58904361926E+03  0.00000000000E+00 0.  1.
         23    2    1    2    0    0 -0.21286027283E+02  0.46351886818E+02 -0.17036480634E+03  0.19583130476E+03  0.82000855587E+02 0.  0.
          5    1    1    2  502    0  0.42273641843E+02  0.96420948158E+01 -0.31176685920E+03  0.31480262909E+03  0.47000000000E+01 0. -1.
         -5    1    1    2    0  502 -0.20987614559E+02 -0.55993981633E+02 -0.82953653248E+02  0.10236798587E+03  0.47000000000E+01 0. -1.
        -11    1    3    3    0    0 -0.48382077070E+02  0.85090880560E+01 -0.10078462606E+03  0.11211944885E+03  0.00000000000E+00 0. -1.
         11    1    3    3    0    0  0.27096049786E+02  0.37842798762E+02 -0.69580180281E+02  0.83711855911E+02  0.00000000000E+00 0.  1.
<mgrwt>
<rscale>  0 0.12415920E+03</rscale>
<asrwt>0</asrwt>
<pdfrwt beam="1">  1        1 0.36858924E-02 0.13500755E+03</pdfrwt>
<pdfrwt beam="2">  1       -1 0.90622096E-01 0.13500755E+03</pdfrwt>
<totfact> 0.30740624E+03</totfact>
</mgrwt>
</event>
<event>
 7    1  0.1254976E-005  0.1868438E+03  0.7546771E-02  0.1166721E+00
         -2   -1    0    0    0  501 -0.00000000000E+00  0.00000000000E+00  0.27755978174E+03  0.27755978174E+03  0.00000000000E+00 0.  1.
          2   -1    0    0  501    0  0.00000000000E+00 -0.00000000000E+00 -0.11202854761E+03  0.11202854761E+03  0.00000000000E+00 0. -1.
         23    2    1    2    0    0  0.56009780595E+02 -0.12705549703E+03  0.64222531166E+02  0.17704644543E+03  0.89110692293E+02 0.  0.
          5    1    1    2  502    0 -0.90225383020E+02  0.52286987691E+02  0.60024219524E+02  0.12041405961E+03  0.47000000000E+01 0. -1.
         -5    1    1    2    0  502  0.34215602424E+02  0.74768509340E+02  0.41284483439E+02  0.92127824304E+02  0.47000000000E+01 0. -1.
        -11    1    3    3    0    0 -0.18013615112E+02 -0.18261939659E+02  0.33013670555E+02  0.41807788904E+02  0.00000000000E+00 0. -1.
         11    1    3    3    0    0  0.74023395707E+02 -0.10879355737E+03  0.31208860611E+02  0.13523865652E+03  0.00000000000E+00 0.  1.
<mgrwt>
<rscale>  0 0.18112226E+03</rscale>
<asrwt>0</asrwt>
<pdfrwt beam="2">  1        2 0.17235161E-01 0.18684378E+03</pdfrwt>
<pdfrwt beam="1">  1       -2 0.42701505E-01 0.18684378E+03</pdfrwt>
<totfact> 0.17089397E+03</totfact>
</mgrwt>
</event>
<event>
 7    1  0.1254976E-005  0.1426770E+03  0.7546771E-02  0.1219810E+00
         -1   -1    0    0    0  501 -0.00000000000E+00  0.00000000000E+00  0.90138264250E+02  0.90138264250E+02  0.00000000000E+00 0.  1.
          1   -1    0    0  501    0  0.00000000000E+00 -0.00000000000E+00 -0.34557713823E+03  0.34557713823E+03  0.00000000000E+00 0. -1.
         23    2    1    2    0    0  0.59019193968E+01  0.68540059000E+02 -0.26871167019E+03  0.29242233445E+03  0.92586649404E+02 0.  0.
          5    1    1    2  502    0  0.67691980651E+00 -0.10504297382E+03  0.12569344146E+02  0.10589883371E+03  0.47000000000E+01 0.  1.
         -5    1    1    2    0  502 -0.65788392033E+01  0.36502914818E+02  0.70345206682E+00  0.37394234319E+02  0.47000000000E+01 0.  1.
        -11    1    3    3    0    0  0.30017417437E+02  0.71795140163E+02 -0.24969170306E+03  0.26153686944E+03  0.00000000000E+00 0.  1.
         11    1    3    3    0    0 -0.24115498040E+02 -0.32550811633E+01 -0.19019967134E+02  0.30885465010E+02  0.00000000000E+00 0. -1.
<mgrwt>
<rscale>  0 0.13529036E+03</rscale>
<asrwt>0</asrwt>
<pdfrwt beam="2">  1        1 0.53165713E-01 0.14267703E+03</pdfrwt>
<pdfrwt beam="1">  1       -1 0.13867425E-01 0.14267703E+03</pdfrwt>
<totfact> 0.25994149E+03</totfact>
</mgrwt>
</event>
<event>
 7    1  0.1254976E-005  0.1437806E+03  0.7546771E-02  0.1218991E+00
          1   -1    0    0  501    0  0.00000000000E+00  0.00000000000E+00  0.26539620000E+03  0.26539620000E+03  0.00000000000E+00 0. -1.
         -1   -1    0    0    0  501 -0.00000000000E+00 -0.00000000000E+00 -0.63925973571E+02  0.63925973571E+02  0.00000000000E+00 0.  1.
         23    2    1    2    0    0  0.34255873206E+02 -0.62057510584E+02  0.11008177382E+03  0.15895576604E+03  0.90135116133E+02 0.  0.
          5    1    1    2  502    0  0.83340895428E+01  0.29559851809E+02  0.10934194620E+03  0.11367054626E+03  0.47000000000E+01 0.  1.
         -5    1    1    2    0  502 -0.42589962748E+02  0.32497658774E+02 -0.17953493598E+02  0.56695861270E+02  0.47000000000E+01 0.  1.
        -11    1    3    3    0    0 -0.20270102153E+02 -0.39809052769E+02  0.82736183598E+02  0.94026133601E+02  0.00000000000E+00 0. -1.
         11    1    3    3    0    0  0.54525975358E+02 -0.22248457815E+02  0.27345590226E+02  0.64929632440E+02  0.00000000000E+00 0.  1.
<mgrwt>
<rscale>  0 0.13587407E+03</rscale>
<asrwt>0</asrwt>
<pdfrwt beam="1">  1        1 0.40830184E-01 0.14378061E+03</pdfrwt>
<pdfrwt beam="2">  1       -1 0.98347653E-02 0.14378061E+03</pdfrwt>
<totfact> 0.61315782E+03</totfact>
</mgrwt>
</event>
<event>
 7    1  0.1254976E-005  0.1400703E+03  0.7546771E-02  0.1224161E+00
          1   -1    0    0  501    0  0.00000000000E+00  0.00000000000E+00  0.50185181838E+03  0.50185181838E+03  0.00000000000E+00 0. -1.
         -1   -1    0    0    0  501 -0.00000000000E+00 -0.00000000000E+00 -0.32875966754E+02  0.32875966754E+02  0.00000000000E+00 0.  1.
         23    2    1    2    0    0  0.41288963019E+02 -0.47848090821E+02  0.15397978833E+03  0.18999279524E+03  0.91614784638E+02 0.  0.
          5    1    1    2  502    0 -0.39507502996E+02  0.88689234018E+02  0.19510108293E+03  0.21797510313E+03  0.47000000000E+01 0.  1.
         -5    1    1    2    0  502 -0.17814600230E+01 -0.40841143197E+02  0.11989498036E+03  0.12675988677E+03  0.47000000000E+01 0.  1.
        -11    1    3    3    0    0  0.59542623998E+02 -0.52525256108E+02  0.76506747663E+02  0.11026109486E+03  0.00000000000E+00 0.  1.
         11    1    3    3    0    0 -0.18253660980E+02  0.46771652862E+01  0.77473040669E+02  0.79731700376E+02  0.00000000000E+00 0. -1.
<mgrwt>
<rscale>  0 0.13224598E+03</rscale>
<asrwt>0</asrwt>
<pdfrwt beam="1">  1        1 0.77207966E-01 0.14007032E+03</pdfrwt>
<pdfrwt beam="2">  1       -1 0.50578414E-02 0.14007032E+03</pdfrwt>
<totfact> 0.74547878E+03</totfact>
</mgrwt>
</event>
<event>
 7    1  0.1254976E-005  0.1493153E+03  0.7546771E-02  0.1210363E+00
          1   -1    0    0  501    0  0.00000000000E+00  0.00000000000E+00  0.39324254367E+03  0.39324254367E+03  0.00000000000E+00 0. -1.
         -1   -1    0    0    0  501 -0.00000000000E+00 -0.00000000000E+00 -0.11276532399E+03  0.11276532399E+03  0.00000000000E+00 0.  1.
         23    2    1    2    0    0  0.81278490658E+02 -0.79876609218E+01  0.32722148961E+03  0.34954671169E+03  0.91864055102E+02 0.  0.
          5    1    1    2  502    0 -0.89631117006E+02 -0.38780280519E+02 -0.14478287679E+02  0.98840063269E+02  0.47000000000E+01 0. -1.
         -5    1    1    2    0  502  0.83526263475E+01  0.46767941441E+02 -0.32265982246E+02  0.57621092699E+02  0.47000000000E+01 0. -1.
        -11    1    3    3    0    0 -0.72383020628E+00 -0.24293172705E+02  0.21010201604E+02  0.32126480381E+02  0.00000000000E+00 0.  1.
         11    1    3    3    0    0  0.82002320865E+02  0.16305511783E+02  0.30621128801E+03  0.31742023131E+03  0.00000000000E+00 0. -1.
<mgrwt>
<rscale>  0 0.14222723E+03</rscale>
<asrwt>0</asrwt>
<pdfrwt beam="1">  1        1 0.60498852E-01 0.14931533E+03</pdfrwt>
<pdfrwt beam="2">  1       -1 0.17348512E-01 0.14931533E+03</pdfrwt>
<totfact> 0.15557944E+03</totfact>
</mgrwt>
</event>
<event>
 7    1  0.1254976E-005  0.1343137E+03  0.7546771E-02  0.1234526E+00
          2   -1    0    0  501    0  0.00000000000E+00  0.00000000000E+00  0.47596868826E+03  0.47596868826E+03  0.00000000000E+00 0. -1.
         -2   -1    0    0    0  501 -0.00000000000E+00 -0.00000000000E+00 -0.35818849819E+02  0.35818849819E+02  0.00000000000E+00 0.  1.
         23    2    1    2    0    0 -0.49091772286E+02  0.25179852559E+01  0.30364978573E+03  0.32028705387E+03  0.89242714810E+02 0.  0.
          5    1    1    2  502    0  0.76020975878E+02 -0.22235197753E+02  0.39145149752E+02  0.88476129785E+02  0.47000000000E+01 0. -1.
         -5    1    1    2    0  502 -0.26929203591E+02  0.19717212497E+02  0.97354902959E+02  0.10302435443E+03  0.47000000000E+01 0. -1.
        -11    1    3    3    0    0  0.78641407090E+01 -0.27626140797E+02  0.16386733514E+03  0.16636571730E+03  0.00000000000E+00 0. -1.
         11    1    3    3    0    0 -0.56955912996E+02  0.30144126053E+02  0.13978245059E+03  0.15392133658E+03  0.00000000000E+00 0.  1.
<mgrwt>
<rscale>  0 0.12534819E+03</rscale>
<asrwt>0</asrwt>
<pdfrwt beam="1">  1        2 0.73225947E-01 0.13431370E+03</pdfrwt>
<pdfrwt beam="2">  1       -2 0.55105926E-02 0.13431370E+03</pdfrwt>
<totfact> 0.10546820E+04</totfact>
</mgrwt>
</event>
<event>
 7    1  0.1254976E-005  0.1360660E+03  0.7546771E-02  0.1230275E+00
          3   -1    0    0  501    0  0.00000000000E+00  0.00000000000E+00  0.19698018871E+03  0.19698018871E+03  0.00000000000E+00 0. -1.
         -3   -1    0    0    0  501 -0.00000000000E+00 -0.00000000000E+00 -0.75048576060E+02  0.75048576060E+02  0.00000000000E+00 0.  1.
         23    2    1    2    0    0  0.32835128285E+02 -0.42554193170E+02  0.58435384579E+02  0.12187645016E+03  0.92467128905E+02 0.  0.
          5    1    1    2  502    0  0.27228413644E+02  0.15353237362E+02 -0.24571046026E+02  0.40036667067E+02  0.47000000000E+01 0. -1.
         -5    1    1    2    0  502 -0.60063541929E+02  0.27200955809E+02  0.88067274096E+02  0.11011564754E+03  0.47000000000E+01 0. -1.
        -11    1    3    3    0    0  0.49483809813E+01 -0.16720969969E+02  0.77438585483E+02  0.79377653232E+02  0.00000000000E+00 0. -1.
         11    1    3    3    0    0  0.27886747304E+02 -0.25833223201E+02 -0.19003200903E+02  0.42498796933E+02  0.00000000000E+00 0.  1.
<mgrwt>
<rscale>  0 0.12811839E+03</rscale>
<asrwt>0</asrwt>
<pdfrwt beam="1">  1        3 0.30304644E-01 0.13606596E+03</pdfrwt>
<pdfrwt beam="2">  1       -3 0.11545935E-01 0.13606596E+03</pdfrwt>
<totfact> 0.14054779E+03</totfact>
</mgrwt>
</event>
<event>
 7    1  0.1254976E-005  0.1609815E+03  0.7546771E-02  0.1194393E+00
          1   -1    0    0  501    0  0.00000000000E+00  0.00000000000E+00  0.54469433547E+03  0.54469433547E+03  0.00000000000E+00 0. -1.
         -1   -1    0    0    0  501 -0.00000000000E+00 -0.00000000000E+00 -0.42079142472E+02  0.42079142472E+02  0.00000000000E+00 0.  1.
         23    2    1    2    0    0 -0.15085669367E+02 -0.10031498127E+03  0.27562498309E+03  0.30849375869E+03  0.94385353500E+02 0.  0.
          5    1    1    2  502    0  0.62535323460E+02  0.93798266518E+02  0.16136237924E+03  0.19689766103E+03  0.47000000000E+01 0.  1.
         -5    1    1    2    0  502 -0.47449654093E+02  0.65167147554E+01  0.65627830662E+02  0.81382058232E+02  0.47000000000E+01 0.  1.
        -11    1    3    3    0    0  0.35083793831E+02 -0.16183423955E+02  0.56229019546E+02  0.68223738094E+02  0.00000000000E+00 0.  1.
         11    1    3    3    0    0 -0.50169463199E+02 -0.84131557319E+02  0.21939596355E+03  0.24027002059E+03  0.00000000000E+00 0. -1.
<mgrwt>
<rscale>  0 0.15505743E+03</rscale>
<asrwt>0</asrwt>
<pdfrwt beam="1">  1        1 0.83799124E-01 0.16098151E+03</pdfrwt>
<pdfrwt beam="2">  1       -1 0.64737146E-02 0.16098151E+03</pdfrwt>
<totfact> 0.46655185E+03</totfact>
</mgrwt>
</event>
<event>
 7    1  0.1254976E-005  0.1375341E+03  0.7546771E-02  0.1228524E+00
          2   -1    0    0  501    0  0.00000000000E+00  0.00000000000E+00  0.32554630749E+03  0.32554630749E+03  0.00000000000E+00 0.  1.
         -2   -1    0    0    0  501 -0.00000000000E+00 -0.00000000000E+00 -0.47523205426E+02  0.47523205426E+02  0.00000000000E+00 0. -1.
         23    2    1    2    0    0 -0.56684910218E+02 -0.87531687581E+01  0.15487221029E+03  0.18845702425E+03  0.90779135594E+02 0.  0.
          5    1    1    2  502    0 -0.29695558344E+02 -0.24435164435E+02  0.63595118801E+02  0.74466989878E+02  0.47000000000E+01 0. -1.
         -5    1    1    2    0  502  0.86380468562E+02  0.33188333193E+02  0.59555772977E+02  0.11014549879E+03  0.47000000000E+01 0. -1.
        -11    1    3    3    0    0 -0.39962614633E+02  0.10064084766E+02  0.11351430750E+02  0.42745190964E+02  0.00000000000E+00 0. -1.
         11    1    3    3    0    0 -0.16722295585E+02 -0.18817253524E+02  0.14352077954E+03  0.14571183328E+03  0.00000000000E+00 0.  1.
<mgrwt>
<rscale>  0 0.12928243E+03</rscale>
<asrwt>0</asrwt>
<pdfrwt beam="1">  1        2 0.50084046E-01 0.13753410E+03</pdfrwt>
<pdfrwt beam="2">  1       -2 0.73112626E-02 0.13753410E+03</pdfrwt>
<totfact> 0.10318213E+04</totfact>
</mgrwt>
</event>
<event>
 7    1  0.1254976E-005  0.1139615E+03  0.7546771E-02  0.1263413E+00
          2   -1    0    0  501    0  0.00000000000E+00  0.00000000000E+00  0.22449896011E+02  0.22449896011E+02  0.00000000000E+00 0. -1.
         -2   -1    0    0    0  501 -0.00000000000E+00 -0.00000000000E+00 -0.13558779307E+04  0.13558779307E+04  0.00000000000E+00 0.  1.
         23    2    1    2    0    0 -0.14101704732E+02 -0.14620202357E+02 -0.90449414122E+02  0.13013590406E+03  0.91332626242E+02 0.  0.
          5    1    1    2  502    0  0.37909122305E+02  0.47274185768E+02 -0.43933858502E+03  0.44352275306E+03  0.47000000000E+01 0. -1.
         -5    1    1    2    0  502 -0.23807417573E+02 -0.32653983411E+02 -0.80364003556E+03  0.80466916961E+03  0.47000000000E+01 0.  1.
        -11    1    3    3    0    0 -0.39897766080E+02 -0.22571663055E+02 -0.12308373846E+02  0.47463752254E+02  0.00000000000E+00 0.  1.
         11    1    3    3    0    0  0.25796061348E+02  0.79514606981E+01 -0.78141040276E+02  0.82672151803E+02  0.00000000000E+00 0. -1.
<mgrwt>
<rscale>  0 0.10847909E+03</rscale>
<asrwt>0</asrwt>
<pdfrwt beam="1">  1        2 0.34538307E-02 0.11396150E+03</pdfrwt>
<pdfrwt beam="2">  1       -2 0.20859657E+00 0.11396150E+03</pdfrwt>
<totfact> 0.32329792E+02</totfact>
</mgrwt>
</event>
<event>
 7    1  0.1254976E-005  0.1483962E+03  0.7546771E-02  0.1212278E+00
          2   -1    0    0  501    0  0.00000000000E+00  0.00000000000E+00  0.20874201466E+03  0.20874201466E+03  0.00000000000E+00 0. -1.
         -2   -1    0    0    0  501 -0.00000000000E+00 -0.00000000000E+00 -0.10518597666E+03  0.10518597666E+03  0.00000000000E+00 0.  1.
         23    2    1    2    0    0 -0.56413926482E+02 -0.56700561418E+02  0.11332913426E+03  0.16521033422E+03  0.89741167219E+02 0.  0.
          5    1    1    2  502    0  0.76086935418E+02  0.17363098261E+02  0.35106011754E+02  0.85704264677E+02  0.47000000000E+01 0. -1.
         -5    1    1    2    0  502 -0.19673008936E+02  0.39337463157E+02 -0.44879108021E+02  0.63013392426E+02  0.47000000000E+01 0. -1.
        -11    1    3    3    0    0  0.24064403044E+02 -0.19740498717E+02  0.22921295562E+02  0.38654476762E+02  0.00000000000E+00 0.  1.
         11    1    3    3    0    0 -0.80478329526E+02 -0.36960062701E+02  0.90407838703E+02  0.12655585746E+03  0.00000000000E+00 0. -1.
<mgrwt>
<rscale>  0 0.14078428E+03</rscale>
<asrwt>0</asrwt>
<pdfrwt beam="1">  1        2 0.32114156E-01 0.14839619E+03</pdfrwt>
<pdfrwt beam="2">  1       -2 0.16182458E-01 0.14839619E+03</pdfrwt>
<totfact> 0.47193490E+03</totfact>
</mgrwt>
</event>
<event>
 7    1  0.1254976E-005  0.1388054E+03  0.7546771E-02  0.1226677E+00
         -1   -1    0    0    0  501 -0.00000000000E+00  0.00000000000E+00  0.46864209440E+03  0.46864209440E+03  0.00000000000E+00 0.  1.
          1   -1    0    0  501    0  0.00000000000E+00 -0.00000000000E+00 -0.32913251139E+02  0.32913251139E+02  0.00000000000E+00 0. -1.
         23    2    1    2    0    0 -0.37641536314E+02  0.47145275672E+02  0.16856940795E+03  0.20048875617E+03  0.90224906634E+02 0.  0.
          5    1    1    2  502    0  0.23971584600E+02  0.23080536394E+02  0.11463226426E+02  0.35508359418E+02  0.47000000000E+01 0.  1.
         -5    1    1    2    0  502  0.13669951713E+02 -0.70225812066E+02  0.25569620888E+03  0.26555822995E+03  0.47000000000E+01 0.  1.
        -11    1    3    3    0    0 -0.95270357595E+01 -0.15448743177E+02 -0.36139938800E+00  0.18153751282E+02  0.00000000000E+00 0. -1.
         11    1    3    3    0    0 -0.28114500554E+02  0.62594018849E+02  0.16893080734E+03  0.18233500489E+03  0.00000000000E+00 0.  1.
<mgrwt>
<rscale>  0 0.13052637E+03</rscale>
<asrwt>0</asrwt>
<pdfrwt beam="2">  1        1 0.50635775E-02 0.13880536E+03</pdfrwt>
<pdfrwt beam="1">  1       -1 0.72098779E-01 0.13880536E+03</pdfrwt>
<totfact> 0.31846325E+03</totfact>
</mgrwt>
</event>
<event>
 7    1  0.1254976E-005  0.1998382E+03  0.7546771E-02  0.1153455E+00
         -2   -1    0    0    0  501 -0.00000000000E+00  0.00000000000E+00  0.10151635835E+03  0.10151635835E+03  0.00000000000E+00 0.  1.
          2   -1    0    0  501    0  0.00000000000E+00 -0.00000000000E+00 -0.36682105659E+03  0.36682105659E+03  0.00000000000E+00 0. -1.
         23    2    1    2    0    0 -0.13221357648E+03 -0.82648068895E+02 -0.15356240827E+03  0.23937964174E+03  0.97005497512E+02 0.  0.
          5    1    1    2  502    0  0.58075320555E+01 -0.16916090678E+02  0.15210308950E+02  0.23944207039E+02  0.47000000000E+01 0. -1.
         -5    1    1    2    0  502  0.12640604443E+03  0.99564159573E+02 -0.12695259892E+03  0.20501356617E+03  0.47000000000E+01 0. -1.
        -11    1    3    3    0    0 -0.41448956664E+02 -0.69107557321E+02 -0.31166587257E+02  0.86401543092E+02  0.00000000000E+00 0. -1.
         11    1    3    3    0    0 -0.90764619819E+02 -0.13540511573E+02 -0.12239582101E+03  0.15297809865E+03  0.00000000000E+00 0.  1.
<mgrwt>
<rscale>  0 0.19565765E+03</rscale>
<asrwt>0</asrwt>
<pdfrwt beam="2">  1        2 0.56434009E-01 0.19983824E+03</pdfrwt>
<pdfrwt beam="1">  1       -2 0.15617901E-01 0.19983824E+03</pdfrwt>
<totfact> 0.27714772E+03</totfact>
</mgrwt>
</event>
<event>
 7    1  0.1254976E-005  0.1319527E+03  0.7546771E-02  0.1238054E+00
          1   -1    0    0  501    0  0.00000000000E+00  0.00000000000E+00  0.27530165865E+03  0.27530165865E+03  0.00000000000E+00 0. -1.
         -1   -1    0    0    0  501 -0.00000000000E+00 -0.00000000000E+00 -0.68869415339E+02  0.68869415339E+02  0.00000000000E+00 0.  1.
         23    2    1    2    0    0  0.41755803204E+02  0.64928714614E+01  0.18527986290E+03  0.21053372016E+03  0.90609686272E+02 0.  0.
          5    1    1    2  502    0 -0.85862305287E+02  0.49852206629E+01  0.13928631118E+02  0.87254138349E+02  0.47000000000E+01 0. -1.
         -5    1    1    2    0  502  0.44106502083E+02 -0.11478092124E+02  0.72237492943E+01  0.46383215484E+02  0.47000000000E+01 0. -1.
        -11    1    3    3    0    0  0.69166724041E+02  0.62445455034E+01  0.10670466623E+03  0.12731424059E+03  0.00000000000E+00 0.  1.
         11    1    3    3    0    0 -0.27410920837E+02  0.24832595798E+00  0.78575196672E+02  0.83219479564E+02  0.00000000000E+00 0. -1.
<mgrwt>
<rscale>  0 0.12310935E+03</rscale>
<asrwt>0</asrwt>
<pdfrwt beam="1">  1        1 0.42354101E-01 0.13195272E+03</pdfrwt>
<pdfrwt beam="2">  1       -1 0.10595295E-01 0.13195272E+03</pdfrwt>
<totfact> 0.52025164E+03</totfact>
</mgrwt>
</event>
<event>
 7    1  0.1254976E-005  0.1500828E+03  0.7546771E-02  0.1203525E+00
          2   -1    0    0  501    0  0.00000000000E+00  0.00000000000E+00  0.11494314239E+03  0.11494314239E+03  0.00000000000E+00 0. -1.
         -2   -1    0    0    0  501 -0.00000000000E+00 -0.00000000000E+00 -0.18453954544E+03  0.18453954544E+03  0.00000000000E+00 0.  1.
         23    2    1    2    0    0 -0.73450198393E+02 -0.38801103444E+02 -0.21091029143E+02  0.14175624779E+03  0.11291388314E+03 0.  0.
          5    1    1    2  502    0  0.29573789773E+00  0.18134901230E+02 -0.74832057017E+02  0.77142004518E+02  0.47000000000E+01 0. -1.
         -5    1    1    2    0  502  0.73154460496E+02  0.20666202214E+02  0.26326683115E+02  0.80584435521E+02  0.47000000000E+01 0. -1.
        -11    1    3    3    0    0 -0.86805326264E+02 -0.36297332388E+02 -0.52350088455E+02  0.10767168972E+03  0.00000000000E+00 0.  1.
         11    1    3    3    0    0  0.13355127871E+02 -0.25037710560E+01  0.31259059312E+02  0.34084558073E+02  0.00000000000E+00 0. -1.
<mgrwt>
<rscale>  0 0.14754300E+03</rscale>
<asrwt>0</asrwt>
<pdfrwt beam="1">  1        2 0.17683560E-01 0.15008284E+03</pdfrwt>
<pdfrwt beam="2">  1       -2 0.28390699E-01 0.15008284E+03</pdfrwt>
<totfact> 0.35005014E+03</totfact>
</mgrwt>
</event>
<event>
 7    1  0.1254976E-005  0.1582056E+03  0.7546771E-02  0.1199174E+00
          2   -1    0    0  501    0  0.00000000000E+00  0.00000000000E+00  0.46617829953E+03  0.46617829953E+03  0.00000000000E+00 0. -1.
         -2   -1    0    0    0  501 -0.00000000000E+00 -0.00000000000E+00 -0.45017940453E+02  0.45017940453E+02  0.00000000000E+00 0.  1.
         23    2    1    2    0    0  0.86950027396E+02 -0.42839162996E+02  0.19412111989E+03  0.23447285293E+03  0.88876365938E+02 0.  0.
          5    1    1    2  502    0 -0.73776736234E+02  0.47433422104E+02  0.54101299009E+02  0.10315995781E+03  0.47000000000E+01 0.  1.
         -5    1    1    2    0  502 -0.13173291162E+02 -0.45942591084E+01  0.17293794017E+03  0.17356342923E+03  0.47000000000E+01 0.  1.
        -11    1    3    3    0    0  0.23031223600E+02  0.18285378915E+02  0.10450865147E+03  0.10856726291E+03  0.00000000000E+00 0. -1.
         11    1    3    3    0    0  0.63918803796E+02 -0.61124541911E+02  0.89612468420E+02  0.12590559002E+03  0.00000000000E+00 0.  1.
<mgrwt>
<rscale>  0 0.15106190E+03</rscale>
<asrwt>0</asrwt>
<pdfrwt beam="1">  1        2 0.71719735E-01 0.15820562E+03</pdfrwt>
<pdfrwt beam="2">  1       -2 0.69258373E-02 0.15820562E+03</pdfrwt>
<totfact> 0.77011011E+03</totfact>
</mgrwt>
</event>
<event>
 7    1  0.1254976E-005  0.1304757E+03  0.7546771E-02  0.1241802E+00
          2   -1    0    0  501    0  0.00000000000E+00  0.00000000000E+00  0.17027479858E+02  0.17027479858E+02  0.00000000000E+00 0. -1.
         -2   -1    0    0    0  501 -0.00000000000E+00 -0.00000000000E+00 -0.77675107770E+03  0.77675107770E+03  0.00000000000E+00 0.  1.
         23    2    1    2    0    0  0.31342121912E+02 -0.20366899290E+02 -0.25346801260E+03  0.27097970645E+03  0.88243009365E+02 0.  0.
          5    1    1    2  502    0  0.47035907509E+02  0.12566330859E+02 -0.24721742443E+03  0.25200959150E+03  0.47000000000E+01 0. -1.
         -5    1    1    2    0  502 -0.78378029421E+02  0.78005684316E+01 -0.25903816082E+03  0.27078925962E+03  0.47000000000E+01 0. -1.
        -11    1    3    3    0    0 -0.25936504834E+02 -0.23054373095E+02 -0.61320617258E+02  0.70458672303E+02  0.00000000000E+00 0. -1.
         11    1    3    3    0    0  0.57278626745E+02  0.26874738046E+01 -0.19214739534E+03  0.20052103414E+03  0.00000000000E+00 0.  1.
<mgrwt>
<rscale>  0 0.12078865E+03</rscale>
<asrwt>0</asrwt>
<pdfrwt beam="1">  1        2 0.26196128E-02 0.13047575E+03</pdfrwt>
<pdfrwt beam="2">  1       -2 0.11950014E+00 0.13047575E+03</pdfrwt>
<totfact> 0.20216804E+03</totfact>
</mgrwt>
</event>
<event>
 7    1  0.1254976E-005  0.2674992E+03  0.7546771E-02  0.1104850E+00
         -1   -1    0    0    0  501 -0.00000000000E+00  0.00000000000E+00  0.94578748544E+02  0.94578748544E+02  0.00000000000E+00 0.  1.
          1   -1    0    0  501    0  0.00000000000E+00 -0.00000000000E+00 -0.78823501619E+03  0.78823501619E+03  0.00000000000E+00 0. -1.
         23    2    1    2    0    0 -0.21527183985E+03 -0.97914669772E+02 -0.47110297080E+03  0.53483995399E+03  0.90479388294E+02 0.  0.
          5    1    1    2  502    0  0.11367446664E+03  0.11122343756E+03 -0.99000306498E+02  0.18739180376E+03  0.47000000000E+01 0. -1.
         -5    1    1    2    0  502  0.10159737320E+03 -0.13308767790E+02 -0.12355299035E+03  0.16058200698E+03  0.47000000000E+01 0. -1.
        -11    1    3    3    0    0 -0.10991989587E+03 -0.14180486958E+01 -0.18976788305E+03  0.21930855844E+03  0.00000000000E+00 0.  1.
         11    1    3    3    0    0 -0.10535194398E+03 -0.96496621076E+02 -0.28133508775E+03  0.31553139555E+03  0.00000000000E+00 0. -1.
<mgrwt>
<rscale>  0 0.26385324E+03</rscale>
<asrwt>0</asrwt>
<pdfrwt beam="2">  1        1 0.12126693E+00 0.26749916E+03</pdfrwt>
<pdfrwt beam="1">  1       -1 0.14550577E-01 0.26749916E+03</pdfrwt>
<totfact> 0.79785935E+02</totfact>
</mgrwt>
</event>
<event>
 7    1  0.1254976E-005  0.1299862E+03  0.7546771E-02  0.1240800E+00
         -4   -1    0    0    0  501 -0.00000000000E+00  0.00000000000E+00  0.45733656556E+03  0.45733656556E+03  0.00000000000E+00 0. -1.
          4   -1    0    0  501    0  0.00000000000E+00 -0.00000000000E+00 -0.28935002019E+02  0.28935002019E+02  0.00000000000E+00 0.  1.
         23    2    1    2    0    0  0.28859780742E+02  0.21228471705E+02  0.16109391008E+03  0.18903463862E+03  0.92191712090E+02 0.  0.
          5    1    1    2  502    0 -0.15323227815E+02  0.15077082556E+02 -0.46516662968E+01  0.22491058855E+02  0.47000000000E+01 0.  1.
         -5    1    1    2    0  502 -0.13536552927E+02 -0.36305554261E+02  0.27195931976E+03  0.27474587011E+03  0.47000000000E+01 0.  1.
        -11    1    3    3    0    0  0.43225544405E+01 -0.36182533925E+02  0.57004568169E+02  0.67656345085E+02  0.00000000000E+00 0.  1.
         11    1    3    3    0    0  0.24537226301E+02  0.57411005630E+02  0.10408934191E+03  0.12137829353E+03  0.00000000000E+00 0. -1.
<mgrwt>
<rscale>  0 0.12140346E+03</rscale>
<asrwt>0</asrwt>
<pdfrwt beam="2">  1        4 0.44515391E-02 0.12998619E+03</pdfrwt>
<pdfrwt beam="1">  1       -4 0.70359467E-01 0.12998619E+03</pdfrwt>
<totfact> 0.89049051E+02</totfact>
</mgrwt>
</event>
<event>
 7    1  0.1254976E-005  0.1323058E+03  0.7546771E-02  0.1236212E+00
          4   -1    0    0  501    0  0.00000000000E+00  0.00000000000E+00  0.19771228901E+02  0.19771228901E+02  0.00000000000E+00 0. -1.
         -4   -1    0    0    0  501 -0.00000000000E+00 -0.00000000000E+00 -0.71803967856E+03  0.71803967856E+03  0.00000000000E+00 0.  1.
         23    2    1    2    0    0 -0.17695830634E+02 -0.39535594840E+02 -0.24868370919E+03  0.26916257009E+03  0.93427491899E+02 0.  0.
          5    1    1    2  502    0 -0.40220049228E+01  0.82754759999E+02 -0.25927256673E+03  0.27222946329E+03  0.47000000000E+01 0.  1.
         -5    1    1    2    0  502  0.21717835557E+02 -0.43219165159E+02 -0.19031217374E+03  0.19641887407E+03  0.47000000000E+01 0.  1.
        -11    1    3    3    0    0  0.24794905032E+02  0.92778427214E+01 -0.14150974690E+03  0.14396483650E+03  0.00000000000E+00 0.  1.
         11    1    3    3    0    0 -0.42490735666E+02 -0.48813437562E+02 -0.10717396229E+03  0.12519773359E+03  0.00000000000E+00 0. -1.
<mgrwt>
<rscale>  0 0.12427177E+03</rscale>
<asrwt>0</asrwt>
<pdfrwt beam="1">  1        4 0.30417273E-02 0.13230580E+03</pdfrwt>
<pdfrwt beam="2">  1       -4 0.11046765E+00 0.13230580E+03</pdfrwt>
<totfact> 0.59049922E+02</totfact>
</mgrwt>
</event>
<event>
 7    1  0.1254976E-005  0.1869214E+03  0.7546771E-02  0.1166394E+00
          1   -1    0    0  501    0  0.00000000000E+00  0.00000000000E+00  0.26832831904E+03  0.26832831904E+03  0.00000000000E+00 0. -1.
         -1   -1    0    0    0  501 -0.00000000000E+00 -0.00000000000E+00 -0.11756729653E+03  0.11756729653E+03  0.00000000000E+00 0.  1.
         23    2    1    2    0    0 -0.10226030744E+03  0.94113046618E+02  0.92747367271E+02  0.19017847313E+03  0.90836894943E+02 0.  0.
          5    1    1    2  502    0  0.74350585772E+02 -0.15716279567E+02 -0.22945727016E+02  0.79521113149E+02  0.47000000000E+01 0.  1.
         -5    1    1    2    0  502  0.27909721668E+02 -0.78396767051E+02  0.80959382256E+02  0.11619602929E+03  0.47000000000E+01 0.  1.
        -11    1    3    3    0    0 -0.99732580263E+02  0.80236464908E+02  0.37824684927E+02  0.13347353542E+03  0.00000000000E+00 0.  1.
         11    1    3    3    0    0 -0.25277271775E+01  0.13876581711E+02  0.54922682344E+02  0.56704937709E+02  0.00000000000E+00 0. -1.
<mgrwt>
<rscale>  0 0.18146404E+03</rscale>
<asrwt>0</asrwt>
<pdfrwt beam="1">  1        1 0.41281280E-01 0.18692142E+03</pdfrwt>
<pdfrwt beam="2">  1       -1 0.18087276E-01 0.18692142E+03</pdfrwt>
<totfact> 0.23638679E+03</totfact>
</mgrwt>
</event>
<event>
 7    1  0.1254976E-005  0.2088518E+03  0.7546771E-02  0.1146139E+00
         -1   -1    0    0    0  501 -0.00000000000E+00  0.00000000000E+00  0.71099380316E+02  0.71099380316E+02  0.00000000000E+00 0.  1.
          1   -1    0    0  501    0  0.00000000000E+00 -0.00000000000E+00 -0.65152562630E+03  0.65152562630E+03  0.00000000000E+00 0. -1.
         23    2    1    2    0    0  0.40140815172E+02  0.16242850646E+03 -0.41222359496E+03  0.45446232764E+03  0.92808459984E+02 0.  0.
          5    1    1    2  502    0 -0.14002385590E+02 -0.10507373469E+03 -0.17493575992E+03  0.20460001619E+03  0.47000000000E+01 0. -1.
         -5    1    1    2    0  502 -0.26138429583E+02 -0.57354771768E+02  0.67331088995E+01  0.63562662791E+02  0.47000000000E+01 0. -1.
        -11    1    3    3    0    0  0.30876920911E+02  0.28873423110E+02 -0.19314347864E+03  0.19771560927E+03  0.00000000000E+00 0. -1.
         11    1    3    3    0    0  0.92638942612E+01  0.13355508335E+03 -0.21908011632E+03  0.25674671837E+03  0.00000000000E+00 0.  1.
<mgrwt>
<rscale>  0 0.20432679E+03</rscale>
<asrwt>0</asrwt>
<pdfrwt beam="2">  1        1 0.10023471E+00 0.20885184E+03</pdfrwt>
<pdfrwt beam="1">  1       -1 0.10938366E-01 0.20885184E+03</pdfrwt>
<totfact> 0.16520548E+03</totfact>
</mgrwt>
</event>
<event>
 7    1  0.1254976E-005  0.1335486E+03  0.7546771E-02  0.1234917E+00
          1   -1    0    0  501    0  0.00000000000E+00  0.00000000000E+00  0.21932390189E+03  0.21932390189E+03  0.00000000000E+00 0. -1.
         -1   -1    0    0    0  501 -0.00000000000E+00 -0.00000000000E+00 -0.90095369379E+02  0.90095369379E+02  0.00000000000E+00 0.  1.
         23    2    1    2    0    0  0.46758543048E+02  0.48760425837E+01  0.14193849018E+03  0.17526726329E+03  0.91443651749E+02 0.  0.
          5    1    1    2  502    0 -0.64409697839E+02 -0.46547604440E+02 -0.30566661860E+02  0.85274260314E+02  0.47000000000E+01 0. -1.
         -5    1    1    2    0  502  0.17651154790E+02  0.41671561856E+02  0.17856704193E+02  0.48877747673E+02  0.47000000000E+01 0. -1.
        -11    1    3    3    0    0 -0.25144886580E+02  0.16359323906E+02  0.40438468858E+02  0.50350397847E+02  0.00000000000E+00 0. -1.
         11    1    3    3    0    0  0.71903429628E+02 -0.11483281322E+02  0.10150002132E+03  0.12491686544E+03  0.00000000000E+00 0.  1.
<mgrwt>
<rscale>  0 0.12509774E+03</rscale>
<asrwt>0</asrwt>
<pdfrwt beam="1">  1        1 0.33742139E-01 0.13354856E+03</pdfrwt>
<pdfrwt beam="2">  1       -1 0.13860826E-01 0.13354856E+03</pdfrwt>
<totfact> 0.45550089E+03</totfact>
</mgrwt>
</event>
<event>
 7    1  0.1254976E-005  0.2801466E+03  0.7546771E-02  0.1097491E+00
         -2   -1    0    0    0  501 -0.00000000000E+00  0.00000000000E+00  0.17245815504E+03  0.17245815504E+03  0.00000000000E+00 0.  1.
          2   -1    0    0  501    0  0.00000000000E+00 -0.00000000000E+00 -0.59060343640E+03  0.59060343640E+03  0.00000000000E+00 0. -1.
         23    2    1    2    0    0 -0.21353782474E+03 -0.13136721124E+03 -0.40202809209E+03  0.48245176129E+03  0.90980043740E+02 0.  0.
          5    1    1    2  502    0  0.11220140170E+03  0.11395535628E+03 -0.57025163624E+02  0.16984974847E+03  0.47000000000E+01 0.  1.
         -5    1    1    2    0  502  0.10133642304E+03  0.17411854962E+02  0.40907974358E+02  0.11076008168E+03  0.47000000000E+01 0.  1.
        -11    1    3    3    0    0 -0.16489104340E+03 -0.55679151988E+02 -0.29620396837E+03  0.34354914501E+03  0.00000000000E+00 0.  1.
         11    1    3    3    0    0 -0.48646781342E+02 -0.75688059255E+02 -0.10582412372E+03  0.13890261628E+03  0.00000000000E+00 0. -1.
<mgrwt>
<rscale>  0 0.27672474E+03</rscale>
<asrwt>0</asrwt>
<pdfrwt beam="2">  1        2 0.90862068E-01 0.28014659E+03</pdfrwt>
<pdfrwt beam="1">  1       -2 0.26532024E-01 0.28014659E+03</pdfrwt>
<totfact> 0.65945937E+02</totfact>
</mgrwt>
</event>
<event>
 7    1  0.1254976E-005  0.2195278E+03  0.7546771E-02  0.1137530E+00
          2   -1    0    0  501    0  0.00000000000E+00  0.00000000000E+00  0.24841592280E+03  0.24841592280E+03  0.00000000000E+00 0. -1.
         -2   -1    0    0    0  501 -0.00000000000E+00 -0.00000000000E+00 -0.18642672325E+03  0.18642672325E+03  0.00000000000E+00 0.  1.
         23    2    1    2    0    0 -0.35450895939E+02  0.17694714178E+03  0.72094426451E+02  0.21508235244E+03  0.92172419952E+02 0.  0.
          5    1    1    2  502    0  0.68495145942E+02 -0.94343575288E+02 -0.43627817133E+02  0.12457034817E+03  0.47000000000E+01 0.  1.
         -5    1    1    2    0  502 -0.33044250003E+02 -0.82603566494E+02  0.33522590239E+02  0.95189945436E+02  0.47000000000E+01 0.  1.
        -11    1    3    3    0    0 -0.12361077837E+02  0.13363387221E+03  0.91363889453E+02  0.16235198904E+03  0.00000000000E+00 0.  1.
         11    1    3    3    0    0 -0.23089818102E+02  0.43313269568E+02 -0.19269463002E+02  0.52730363407E+02  0.00000000000E+00 0. -1.
<mgrwt>
<rscale>  0 0.21517821E+03</rscale>
<asrwt>0</asrwt>
<pdfrwt beam="1">  1        2 0.38217834E-01 0.21952784E+03</pdfrwt>
<pdfrwt beam="2">  1       -2 0.28681034E-01 0.21952784E+03</pdfrwt>
<totfact> 0.14825298E+03</totfact>
</mgrwt>
</event>
<event>
 7    1  0.1254976E-005  0.1438201E+03  0.7546771E-02  0.1218488E+00
         -1   -1    0    0    0  501 -0.00000000000E+00  0.00000000000E+00  0.33636560179E+03  0.33636560179E+03  0.00000000000E+00 0.  1.
          1   -1    0    0  501    0  0.00000000000E+00 -0.00000000000E+00 -0.50346791989E+02  0.50346791989E+02  0.00000000000E+00 0. -1.
         23    2    1    2    0    0 -0.62931526172E+02  0.33138185136E+02  0.11401086919E+03  0.16250057380E+03  0.91375280519E+02 0.  0.
          5    1    1    2  502    0  0.34454436616E+02 -0.32328130359E+02 -0.22936432457E+01  0.47534903117E+02  0.47000000000E+01 0. -1.
         -5    1    1    2    0  502  0.28477089556E+02 -0.81005477753E+00  0.17430158386E+03  0.17667691687E+03  0.47000000000E+01 0. -1.
        -11    1    3    3    0    0 -0.28269765990E+01 -0.29095595282E+02  0.30686225771E+02  0.42381480785E+02  0.00000000000E+00 0.  1.
         11    1    3    3    0    0 -0.60104549573E+02  0.62233780419E+02  0.83324643420E+02  0.12011909301E+03  0.00000000000E+00 0. -1.
<mgrwt>
<rscale>  0 0.13623382E+03</rscale>
<asrwt>0</asrwt>
<pdfrwt beam="2">  1        1 0.77456605E-02 0.14382006E+03</pdfrwt>
<pdfrwt beam="1">  1       -1 0.51748553E-01 0.14382006E+03</pdfrwt>
<totfact> 0.33784149E+03</totfact>
</mgrwt>
</event>
<event>
 7    1  0.1254976E-005  0.1322270E+03  0.7546771E-02  0.1233788E+00
         -4   -1    0    0    0  501 -0.00000000000E+00  0.00000000000E+00  0.48315494077E+02  0.48315494077E+02  0.00000000000E+00 0.  1.
          4   -1    0    0  501    0  0.00000000000E+00 -0.00000000000E+00 -0.30916150242E+03  0.30916150242E+03  0.00000000000E+00 0. -1.
         23    2    1    2    0    0  0.41934248602E+02 -0.10109363497E+02 -0.14913673832E+03  0.18437894290E+03  0.99464302297E+02 0.  0.
          5    1    1    2  502    0 -0.37122252689E+02  0.27974675938E+01  0.18967224732E+02  0.42044417984E+02  0.47000000000E+01 0. -1.
         -5    1    1    2    0  502 -0.48119959131E+01  0.73118959034E+01 -0.13067649475E+03  0.13105363561E+03  0.47000000000E+01 0. -1.
        -11    1    3    3    0    0 -0.17004709696E+01 -0.41342145217E+02 -0.11123799094E+03  0.11868426687E+03  0.00000000000E+00 0. -1.
         11    1    3    3    0    0  0.43634719571E+02  0.31232781720E+02 -0.37898747375E+02  0.65694676030E+02  0.00000000000E+00 0.  1.
<mgrwt>
<rscale>  0 0.12582371E+03</rscale>
<asrwt>0</asrwt>
<pdfrwt beam="2">  1        4 0.47563308E-01 0.13222698E+03</pdfrwt>
<pdfrwt beam="1">  1       -4 0.74331530E-02 0.13222698E+03</pdfrwt>
<totfact> 0.88145098E+02</totfact>
</mgrwt>
</event>
<event>
 7    1  0.1254976E-005  0.1255092E+03  0.7546771E-02  0.1250142E+00
          2   -1    0    0  501    0  0.00000000000E+00  0.00000000000E+00  0.27108271981E+03  0.27108271981E+03  0.00000000000E+00 0.  1.
         -2   -1    0    0    0  501 -0.00000000000E+00 -0.00000000000E+00 -0.66382334491E+02  0.66382334491E+02  0.00000000000E+00 0. -1.
         23    2    1    2    0    0 -0.11070179100E+02 -0.22768804816E+01  0.19052341278E+03  0.21115773161E+03  0.90336502875E+02 0.  0.
          5    1    1    2  502    0 -0.17621453721E+02  0.56745969218E+02  0.23097382165E+02  0.63923389433E+02  0.47000000000E+01 0.  1.
         -5    1    1    2    0  502  0.28691632820E+02 -0.54469088736E+02 -0.89204096189E+01  0.62383933263E+02  0.47000000000E+01 0.  1.
        -11    1    3    3    0    0 -0.17357268383E+02  0.27656329672E+02  0.17269495964E+03  0.17575464837E+03  0.00000000000E+00 0.  1.
         11    1    3    3    0    0  0.62870892836E+01 -0.29933210154E+02  0.17828453133E+02  0.35403083240E+02  0.00000000000E+00 0. -1.
<mgrwt>
<rscale>  0 0.11582853E+03</rscale>
<asrwt>0</asrwt>
<pdfrwt beam="1">  1        2 0.41705033E-01 0.12550918E+03</pdfrwt>
<pdfrwt beam="2">  1       -2 0.10212667E-01 0.12550918E+03</pdfrwt>
<totfact> 0.74061961E+03</totfact>
</mgrwt>
</event>
<event>
 7    1  0.1254976E-005  0.1957811E+03  0.7546771E-02  0.1157679E+00
         -2   -1    0    0    0  501 -0.00000000000E+00  0.00000000000E+00  0.66344334146E+02  0.66344334146E+02  0.00000000000E+00 0.  1.
          2   -1    0    0  501    0  0.00000000000E+00 -0.00000000000E+00 -0.54508541367E+03  0.54508541367E+03  0.00000000000E+00 0. -1.
         23    2    1    2    0    0 -0.93646249224E+02  0.11804214566E+03 -0.28878517065E+03  0.33864140942E+03  0.92615124285E+02 0.  0.
          5    1    1    2  502    0  0.77258525708E+02 -0.16544220327E+02 -0.13402835941E+03  0.15565436758E+03  0.47000000000E+01 0.  1.
         -5    1    1    2    0  502  0.16387723516E+02 -0.10149792533E+03 -0.55927549466E+02  0.11713397081E+03  0.47000000000E+01 0.  1.
        -11    1    3    3    0    0 -0.71548519439E+02  0.18703461267E+02 -0.10283477227E+03  0.12666491418E+03  0.00000000000E+00 0.  1.
         11    1    3    3    0    0 -0.22097729784E+02  0.99338684390E+02 -0.18595039837E+03  0.21197649524E+03  0.00000000000E+00 0. -1.
<mgrwt>
<rscale>  0 0.19087029E+03</rscale>
<asrwt>0</asrwt>
<pdfrwt beam="2">  1        2 0.83859293E-01 0.19578108E+03</pdfrwt>
<pdfrwt beam="1">  1       -2 0.10206821E-01 0.19578108E+03</pdfrwt>
<totfact> 0.35704410E+03</totfact>
</mgrwt>
</event>
<event>
 7    1  0.1254976E-005  0.2740096E+03  0.7546771E-02  0.1109967E+00
         -1   -1    0    0    0  501 -0.00000000000E+00  0.00000000000E+00  0.83756810185E+03  0.83756810185E+03  0.00000000000E+00 0.  1.
          1   -1    0    0  501    0  0.00000000000E+00 -0.00000000000E+00 -0.69060442460E+02  0.69060442460E+02  0.00000000000E+00 0. -1.
         23    2    1    2    0    0  0.12553049025E+03 -0.13460672991E+03  0.31387373336E+03  0.37580535820E+03  0.94000377887E+02 0.  0.
          5    1    1    2  502    0 -0.99252711052E+02 -0.27680870924E+02  0.12207819795E+03  0.15982023552E+03  0.47000000000E+01 0. -1.
         -5    1    1    2    0  502 -0.26277779194E+02  0.16228760084E+03  0.33255572807E+03  0.37100295058E+03  0.47000000000E+01 0.  1.
        -11    1    3    3    0    0  0.13276514577E+03 -0.11883982255E+03  0.31070350043E+03  0.35817056347E+03  0.00000000000E+00 0. -1.
         11    1    3    3    0    0 -0.72346555243E+01 -0.15766907368E+02  0.31702329240E+01  0.17634794734E+02  0.00000000000E+00 0.  1.
<mgrwt>
<rscale>  0 0.25535493E+03</rscale>
<asrwt>0</asrwt>
<pdfrwt beam="2">  1        1 0.10624684E-01 0.27400958E+03</pdfrwt>
<pdfrwt beam="1">  1       -1 0.12885662E+00 0.27400958E+03</pdfrwt>
<totfact> 0.32929699E+02</totfact>
</mgrwt>
</event>
<event>
 7    1  0.1254976E-005  0.2402071E+03  0.7546771E-02  0.1124126E+00
         -2   -1    0    0    0  501 -0.00000000000E+00  0.00000000000E+00  0.31552610247E+02  0.31552610247E+02  0.00000000000E+00 0.  1.
          2   -1    0    0  501    0  0.00000000000E+00 -0.00000000000E+00 -0.16523334787E+04  0.16523334787E+04  0.00000000000E+00 0. -1.
         23    2    1    2    0    0 -0.19426954019E+03  0.70219384437E+01 -0.83545928505E+03  0.86264956698E+03  0.91553790574E+02 0.  0.
          5    1    1    2  502    0  0.14969727290E+02 -0.28925796654E+02 -0.32591302163E+03  0.32757011786E+03  0.47000000000E+01 0. -1.
         -5    1    1    2    0  502  0.17929981290E+03  0.21903858210E+02 -0.45940856173E+03  0.49366640406E+03  0.47000000000E+01 0.  1.
        -11    1    3    3    0    0 -0.57044264090E+01 -0.10320852452E+02 -0.91650494397E+01  0.14935146709E+02  0.00000000000E+00 0.  1.
         11    1    3    3    0    0 -0.18856511378E+03  0.17342790896E+02 -0.82629423561E+03  0.84771442027E+03  0.00000000000E+00 0. -1.
<mgrwt>
<rscale>  0 0.23360748E+03</rscale>
<asrwt>0</asrwt>
<pdfrwt beam="2">  1        2 0.25420517E+00 0.24020707E+03</pdfrwt>
<pdfrwt beam="1">  1       -2 0.48542475E-02 0.24020707E+03</pdfrwt>
<totfact> 0.23204046E+03</totfact>
</mgrwt>
</event>
<event>
 7    1  0.1254976E-005  0.1338817E+03  0.7546771E-02  0.1234330E+00
         -2   -1    0    0    0  501 -0.00000000000E+00  0.00000000000E+00  0.16435621071E+03  0.16435621071E+03  0.00000000000E+00 0.  1.
          2   -1    0    0  501    0  0.00000000000E+00 -0.00000000000E+00 -0.16103719639E+03  0.16103719639E+03  0.00000000000E+00 0. -1.
         23    2    1    2    0    0 -0.24034629902E+02 -0.41521341901E+02 -0.10934439363E+03  0.15041523987E+03  0.91470556464E+02 0.  0.
          5    1    1    2  502    0  0.54597816987E+02  0.58991410927E+02  0.31636793326E+02  0.86509449628E+02  0.47000000000E+01 0.  1.
         -5    1    1    2    0  502 -0.30563187086E+02 -0.17470069026E+02  0.81026614625E+02  0.88468717602E+02  0.47000000000E+01 0.  1.
        -11    1    3    3    0    0 -0.15171915149E+02 -0.69418255667E+02 -0.59806165166E+02  0.92875500650E+02  0.00000000000E+00 0.  1.
         11    1    3    3    0    0 -0.88627147529E+01  0.27896913766E+02 -0.49538228465E+02  0.57539739224E+02  0.00000000000E+00 0. -1.
<mgrwt>
<rscale>  0 0.12547411E+03</rscale>
<asrwt>0</asrwt>
<pdfrwt beam="2">  1        2 0.24774953E-01 0.13388172E+03</pdfrwt>
<pdfrwt beam="1">  1       -2 0.25285571E-01 0.13388172E+03</pdfrwt>
<totfact> 0.29203802E+03</totfact>
</mgrwt>
</event>
<event>
 7    1  0.1254976E-005  0.1594096E+03  0.7546771E-02  0.1193319E+00
         -2   -1    0    0    0  501 -0.00000000000E+00  0.00000000000E+00  0.13981512438E+03  0.13981512438E+03  0.00000000000E+00 0.  1.
          2   -1    0    0  501    0  0.00000000000E+00 -0.00000000000E+00 -0.20518150184E+03  0.20518150184E+03  0.00000000000E+00 0. -1.
         23    2    1    2    0    0 -0.10790162620E+03  0.36612701875E+02 -0.10598223339E+03  0.18049416274E+03  0.91447570304E+02 0.  0.
          5    1    1    2  502    0  0.48973707103E+02 -0.22323254229E+02 -0.37306846538E+02  0.65655483133E+02  0.47000000000E+01 0. -1.
         -5    1    1    2    0  502  0.58927919094E+02 -0.14289447646E+02  0.77922702467E+02  0.98846980341E+02  0.47000000000E+01 0.  1.
        -11    1    3    3    0    0 -0.23921608019E+01 -0.22351979767E+02 -0.50842768113E+01  0.23047414248E+02  0.00000000000E+00 0.  1.
         11    1    3    3    0    0 -0.10550946540E+03  0.58964681642E+02 -0.10089795658E+03  0.15744674849E+03  0.00000000000E+00 0. -1.
<mgrwt>
<rscale>  0 0.15597325E+03</rscale>
<asrwt>0</asrwt>
<pdfrwt beam="2">  1        2 0.31566385E-01 0.15940958E+03</pdfrwt>
<pdfrwt beam="1">  1       -2 0.21510019E-01 0.15940958E+03</pdfrwt>
<totfact> 0.29902127E+03</totfact>
</mgrwt>
</event>
<event>
 7    1  0.1254976E-005  0.2126133E+03  0.7546771E-02  0.1141503E+00
         -1   -1    0    0    0  501 -0.00000000000E+00  0.00000000000E+00  0.10327427593E+04  0.10327427593E+04  0.00000000000E+00 0.  1.
          1   -1    0    0  501    0  0.00000000000E+00 -0.00000000000E+00 -0.59675848565E+02  0.59675848565E+02  0.00000000000E+00 0. -1.
         23    2    1    2    0    0 -0.12169445221E+03 -0.13433975299E+03  0.17903336687E+03  0.27041271981E+03  0.90627720115E+02 0.  0.
          5    1    1    2  502    0  0.42358059747E+02  0.11139712313E+03  0.33548723754E+03  0.35605800205E+03  0.47000000000E+01 0. -1.
         -5    1    1    2    0  502  0.79336392459E+02  0.22942629855E+02  0.45854630636E+03  0.46594788605E+03  0.47000000000E+01 0.  1.
        -11    1    3    3    0    0 -0.22640189413E+02  0.56977712093E+01  0.12615919182E+01  0.23380213591E+02  0.00000000000E+00 0.  1.
         11    1    3    3    0    0 -0.99054262793E+02 -0.14003752419E+03  0.17777177495E+03  0.24703250622E+03  0.00000000000E+00 0. -1.
<mgrwt>
<rscale>  0 0.21007942E+03</rscale>
<asrwt>0</asrwt>
<pdfrwt beam="2">  1        1 0.91809005E-02 0.21261329E+03</pdfrwt>
<pdfrwt beam="1">  1       -1 0.15888349E+00 0.21261329E+03</pdfrwt>
<totfact> 0.23478174E+02</totfact>
</mgrwt>
</event>
<event>
 7    1  0.1254976E-005  0.4068269E+03  0.7546771E-02  0.1050156E+00
         -1   -1    0    0    0  501 -0.00000000000E+00  0.00000000000E+00  0.95441012463E+03  0.95441012463E+03  0.00000000000E+00 0.  1.
          1   -1    0    0  501    0  0.00000000000E+00 -0.00000000000E+00 -0.37890521620E+03  0.37890521620E+03  0.00000000000E+00 0. -1.
         23    2    1    2    0    0 -0.58497579333E+02  0.29746202996E+03 -0.25630143535E+03  0.40735104108E+03  0.91317133399E+02 0.  0.
          5    1    1    2  502    0  0.14890209786E+03 -0.17137087052E+03  0.32907541065E+03  0.39981561488E+03  0.47000000000E+01 0. -1.
         -5    1    1    2    0  502 -0.90404518531E+02 -0.12609115944E+03  0.50273093313E+03  0.52614868486E+03  0.47000000000E+01 0.  1.
        -11    1    3    3    0    0 -0.78355180475E+02  0.23523580264E+03 -0.22543813903E+03  0.33510859684E+03  0.00000000000E+00 0. -1.
         11    1    3    3    0    0  0.19857601143E+02  0.62226227317E+02 -0.30863296326E+02  0.72242444237E+02  0.00000000000E+00 0.  1.
<mgrwt>
<rscale>  0 0.38211118E+03</rscale>
<asrwt>0</asrwt>
<pdfrwt beam="2">  1        1 0.58293110E-01 0.40682686E+03</pdfrwt>
<pdfrwt beam="1">  1       -1 0.14683233E+00 0.40682686E+03</pdfrwt>
<totfact> 0.25542887E+01</totfact>
</mgrwt>
</event>
<event>
 7    1  0.1254976E-005  0.3318150E+03  0.7546771E-02  0.1071507E+00
          2   -1    0    0  501    0  0.00000000000E+00  0.00000000000E+00  0.95499977442E+03  0.95499977442E+03  0.00000000000E+00 0. -1.
         -2   -1    0    0    0  501 -0.00000000000E+00 -0.00000000000E+00 -0.11257567013E+03  0.11257567013E+03  0.00000000000E+00 0.  1.
         23    2    1    2    0    0 -0.30706292009E+03  0.13698541793E+02  0.46212971154E+03  0.56287251564E+03  0.93735327572E+02 0.  0.
          5    1    1    2  502    0  0.11223961228E+03 -0.50679133013E+01  0.23806093047E+03  0.26328408787E+03  0.47000000000E+01 0. -1.
         -5    1    1    2    0  502  0.19482330781E+03 -0.86306284914E+01  0.14223346229E+03  0.24141884104E+03  0.47000000000E+01 0. -1.
        -11    1    3    3    0    0 -0.19975411049E+03  0.39535654800E+01  0.37257769234E+03  0.42276645109E+03  0.00000000000E+00 0.  1.
         11    1    3    3    0    0 -0.10730880960E+03  0.97449763127E+01  0.89552019192E+02  0.14010606454E+03  0.00000000000E+00 0. -1.
<mgrwt>
<rscale>  0 0.32916557E+03</rscale>
<asrwt>0</asrwt>
<pdfrwt beam="1">  1        2 0.14692304E+00 0.33181504E+03</pdfrwt>
<pdfrwt beam="2">  1       -2 0.17319335E-01 0.33181504E+03</pdfrwt>
<totfact> 0.75315844E+02</totfact>
</mgrwt>
</event>
<event>
 7    1  0.1254976E-005  0.1441234E+03  0.7546771E-02  0.1218568E+00
          4   -1    0    0  501    0  0.00000000000E+00  0.00000000000E+00  0.53430208048E+03  0.53430208048E+03  0.00000000000E+00 0. -1.
         -4   -1    0    0    0  501 -0.00000000000E+00 -0.00000000000E+00 -0.31388367810E+02  0.31388367810E+02  0.00000000000E+00 0.  1.
         23    2    1    2    0    0 -0.56700621501E+01 -0.71521742350E+02  0.22061030739E+03  0.24872551664E+03  0.89710454630E+02 0.  0.
          5    1    1    2  502    0  0.31198181751E+02  0.81607800601E+02  0.27440851996E+03  0.28801959220E+03  0.47000000000E+01 0.  1.
         -5    1    1    2    0  502 -0.25528119601E+02 -0.10086058251E+02  0.78948853202E+01  0.28945339446E+02  0.47000000000E+01 0.  1.
        -11    1    3    3    0    0  0.29769938301E+02 -0.61503442760E+02  0.18612691897E+03  0.19827292468E+03  0.00000000000E+00 0.  1.
         11    1    3    3    0    0 -0.35440000451E+02 -0.10018299590E+02  0.34483388422E+02  0.50452591962E+02  0.00000000000E+00 0. -1.
<mgrwt>
<rscale>  0 0.13617708E+03</rscale>
<asrwt>0</asrwt>
<pdfrwt beam="1">  1        4 0.82200313E-01 0.14412340E+03</pdfrwt>
<pdfrwt beam="2">  1       -4 0.48289801E-02 0.14412340E+03</pdfrwt>
<totfact> 0.56752889E+02</totfact>
</mgrwt>
</event>
<event>
 7    1  0.1254976E-005  0.1340963E+03  0.7546771E-02  0.1234218E+00
         -1   -1    0    0    0  501 -0.00000000000E+00  0.00000000000E+00  0.32273371098E+02  0.32273371098E+02  0.00000000000E+00 0.  1.
          1   -1    0    0  501    0  0.00000000000E+00 -0.00000000000E+00 -0.43583997205E+03  0.43583997205E+03  0.00000000000E+00 0. -1.
         23    2    1    2    0    0 -0.47983955901E+02 -0.74279165809E+01 -0.18117701221E+03  0.20842324547E+03  0.90870817812E+02 0.  0.
          5    1    1    2  502    0  0.22007244144E+01 -0.72178617900E+01  0.15000344292E+02  0.17436772799E+02  0.47000000000E+01 0. -1.
         -5    1    1    2    0  502  0.45783231487E+02  0.14645778371E+02 -0.23738993303E+03  0.24225332488E+03  0.47000000000E+01 0. -1.
        -11    1    3    3    0    0 -0.24748315708E+02 -0.28543772923E+02 -0.17143689323E+03  0.17555009104E+03  0.00000000000E+00 0. -1.
         11    1    3    3    0    0 -0.23235640194E+02  0.21115856343E+02 -0.97401189746E+01  0.32873154426E+02  0.00000000000E+00 0.  1.
<mgrwt>
<rscale>  0 0.12554612E+03</rscale>
<asrwt>0</asrwt>
<pdfrwt beam="2">  1        1 0.67052303E-01 0.13409630E+03</pdfrwt>
<pdfrwt beam="1">  1       -1 0.49651341E-02 0.13409630E+03</pdfrwt>
<totfact> 0.91635149E+03</totfact>
</mgrwt>
</event>
<event>
 7    1  0.1254976E-005  0.1320529E+03  0.7546771E-02  0.1237912E+00
          2   -1    0    0  501    0  0.00000000000E+00  0.00000000000E+00  0.57626423273E+03  0.57626423273E+03  0.00000000000E+00 0. -1.
         -2   -1    0    0    0  501 -0.00000000000E+00 -0.00000000000E+00 -0.26450755178E+02  0.26450755178E+02  0.00000000000E+00 0.  1.
         23    2    1    2    0    0  0.38666590702E+02 -0.17780177237E+02  0.34339944385E+03  0.35767473644E+03  0.90536175689E+02 0.  0.
          5    1    1    2  502    0 -0.16701116747E+02  0.25205058565E+02 -0.61101703016E+01  0.31203308462E+02  0.47000000000E+01 0.  1.
         -5    1    1    2    0  502 -0.21965473955E+02 -0.74248813276E+01  0.21252420400E+03  0.21383694301E+03  0.47000000000E+01 0.  1.
        -11    1    3    3    0    0  0.68258449208E+02 -0.17372959505E+02  0.24419673831E+03  0.25415169213E+03  0.00000000000E+00 0.  1.
         11    1    3    3    0    0 -0.29591858507E+02 -0.40721773235E+00  0.99202705545E+02  0.10352304431E+03  0.00000000000E+00 0. -1.
<mgrwt>
<rscale>  0 0.12319827E+03</rscale>
<asrwt>0</asrwt>
<pdfrwt beam="1">  1        2 0.88656026E-01 0.13205291E+03</pdfrwt>
<pdfrwt beam="2">  1       -2 0.40693474E-02 0.13205291E+03</pdfrwt>
<totfact> 0.13422073E+04</totfact>
</mgrwt>
</event>
<event>
 7    1  0.1254976E-005  0.1446484E+03  0.7546771E-02  0.1214355E+00
          1   -1    0    0  501    0  0.00000000000E+00  0.00000000000E+00  0.54253758728E+03  0.54253758728E+03  0.00000000000E+00 0. -1.
         -1   -1    0    0    0  501 -0.00000000000E+00 -0.00000000000E+00 -0.44455567134E+02  0.44455567134E+02  0.00000000000E+00 0.  1.
         23    2    1    2    0    0 -0.28499706011E+02  0.83281218950E+02  0.38151437214E+03  0.40122131189E+03  0.87620375981E+02 0.  0.
          5    1    1    2  502    0  0.72507112343E+02 -0.62049519958E+02  0.75824660501E+02  0.12197906955E+03  0.47000000000E+01 0. -1.
         -5    1    1    2    0  502 -0.44007406331E+02 -0.21231698992E+02  0.40742987500E+02  0.63792772980E+02  0.47000000000E+01 0.  1.
        -11    1    3    3    0    0 -0.37286009847E+02  0.17291983265E+01  0.72998721368E+02  0.81988108763E+02  0.00000000000E+00 0.  1.
         11    1    3    3    0    0  0.87863038357E+01  0.81552020624E+02  0.30851565078E+03  0.31923320312E+03  0.00000000000E+00 0. -1.
<mgrwt>
<rscale>  0 0.13924016E+03</rscale>
<asrwt>0</asrwt>
<pdfrwt beam="1">  1        1 0.83467316E-01 0.14464840E+03</pdfrwt>
<pdfrwt beam="2">  1       -1 0.68393184E-02 0.14464840E+03</pdfrwt>
<totfact> 0.42979063E+03</totfact>
</mgrwt>
</event>
<event>
 7    1  0.1254976E-005  0.1394593E+03  0.7546771E-02  0.1227386E+00
          2   -1    0    0  501    0  0.00000000000E+00  0.00000000000E+00  0.22414196705E+03  0.22414196705E+03  0.00000000000E+00 0. -1.
         -2   -1    0    0    0  501 -0.00000000000E+00 -0.00000000000E+00 -0.66945401138E+02  0.66945401138E+02  0.00000000000E+00 0.  1.
         23    2    1    2    0    0  0.48081313181E+02  0.38866218539E+02  0.64002506172E+02  0.12335537943E+03  0.85427356376E+02 0.  0.
          5    1    1    2  502    0 -0.36090570450E+02  0.13782974932E+02 -0.18867917348E+02  0.43250294547E+02  0.47000000000E+01 0.  1.
         -5    1    1    2    0  502 -0.11990742731E+02 -0.52649193471E+02  0.11206197709E+03  0.12448169421E+03  0.47000000000E+01 0.  1.
        -11    1    3    3    0    0 -0.60207277454E+01 -0.17159284946E+02 -0.54693207080E+01  0.18989567964E+02  0.00000000000E+00 0. -1.
         11    1    3    3    0    0  0.54102040926E+02  0.56025503485E+02  0.69471826880E+02  0.10436581147E+03  0.00000000000E+00 0.  1.
<mgrwt>
<rscale>  0 0.13004682E+03</rscale>
<asrwt>0</asrwt>
<pdfrwt beam="1">  1        2 0.34483379E-01 0.13945927E+03</pdfrwt>
<pdfrwt beam="2">  1       -2 0.10299293E-01 0.13945927E+03</pdfrwt>
<totfact> 0.90176056E+03</totfact>
</mgrwt>
</event>
<event>
 7    1  0.1254976E-005  0.1571759E+03  0.7546771E-02  0.1199963E+00
         -2   -1    0    0    0  501 -0.00000000000E+00  0.00000000000E+00  0.30266487466E+03  0.30266487466E+03  0.00000000000E+00 0.  1.
          2   -1    0    0  501    0  0.00000000000E+00 -0.00000000000E+00 -0.76491568823E+02  0.76491568823E+02  0.00000000000E+00 0. -1.
         23    2    1    2    0    0  0.91673957590E+02 -0.26100732467E+02  0.44984888948E+02  0.13929502466E+03  0.91071954656E+02 0.  0.
          5    1    1    2  502    0  0.20400829898E+02 -0.22889089634E+02  0.17985042097E+02  0.35856045851E+02  0.47000000000E+01 0.  1.
         -5    1    1    2    0  502 -0.11207478749E+03  0.48989822102E+02  0.16320337480E+03  0.20400537298E+03  0.47000000000E+01 0.  1.
        -11    1    3    3    0    0 -0.17071527667E+02  0.50941100250E+01  0.11903380151E+02  0.21426093270E+02  0.00000000000E+00 0. -1.
         11    1    3    3    0    0  0.10874548526E+03 -0.31194842492E+02  0.33081508798E+02  0.11786893139E+03  0.00000000000E+00 0.  1.
<mgrwt>
<rscale>  0 0.15041598E+03</rscale>
<asrwt>0</asrwt>
<pdfrwt beam="2">  1        2 0.11767934E-01 0.15717588E+03</pdfrwt>
<pdfrwt beam="1">  1       -2 0.46563826E-01 0.15717588E+03</pdfrwt>
<totfact> 0.22543278E+03</totfact>
</mgrwt>
</event>
<event>
 7    1  0.1254976E-005  0.1255973E+03  0.7546771E-02  0.1250151E+00
         -1   -1    0    0    0  501 -0.00000000000E+00  0.00000000000E+00  0.51275370187E+02  0.51275370187E+02  0.00000000000E+00 0.  1.
          1   -1    0    0  501    0  0.00000000000E+00 -0.00000000000E+00 -0.26262967896E+03  0.26262967896E+03  0.00000000000E+00 0. -1.
         23    2    1    2    0    0  0.12222090055E+02 -0.74326605012E+00 -0.14695300630E+03  0.17275896588E+03  0.90003012735E+02 0.  0.
          5    1    1    2  502    0 -0.35346722768E+02  0.27455410296E+02  0.20210942831E+02  0.49333179251E+02  0.47000000000E+01 0. -1.
         -5    1    1    2    0  502  0.23124632712E+02 -0.26712144245E+02 -0.84612245302E+02  0.91812904013E+02  0.47000000000E+01 0. -1.
        -11    1    3    3    0    0 -0.32328633157E+02  0.23633923291E+02 -0.65340404396E+02  0.76635966090E+02  0.00000000000E+00 0.  1.
         11    1    3    3    0    0  0.44550723213E+02 -0.24377189341E+02 -0.81612601907E+02  0.96122999792E+02  0.00000000000E+00 0. -1.
<mgrwt>
<rscale>  0 0.11582310E+03</rscale>
<asrwt>0</asrwt>
<pdfrwt beam="2">  1        1 0.40404566E-01 0.12559733E+03</pdfrwt>
<pdfrwt beam="1">  1       -1 0.78885185E-02 0.12559733E+03</pdfrwt>
<totfact> 0.85965136E+03</totfact>
</mgrwt>
</event>
<event>
 7    1  0.1254976E-005  0.1592621E+03  0.7546771E-02  0.1200460E+00
         -2   -1    0    0    0  501 -0.00000000000E+00  0.00000000000E+00  0.42677996106E+02  0.42677996106E+02  0.00000000000E+00 0.  1.
          2   -1    0    0  501    0  0.00000000000E+00 -0.00000000000E+00 -0.76995343542E+03  0.76995343542E+03  0.00000000000E+00 0. -1.
         23    2    1    2    0    0  0.34846997422E+02 -0.92333777953E+02 -0.58751956349E+03  0.60074434783E+03  0.77296146002E+02 0.  0.
          5    1    1    2  502    0  0.30885255823E+01 -0.11309295951E+02  0.16342719640E+02  0.20654627820E+02  0.47000000000E+01 0. -1.
         -5    1    1    2    0  502 -0.37935523005E+02  0.10364307390E+03 -0.15609859546E+03  0.19123245587E+03  0.47000000000E+01 0. -1.
        -11    1    3    3    0    0  0.35690014086E+02 -0.27887939012E+01 -0.16440846376E+03  0.16826080183E+03  0.00000000000E+00 0.  1.
         11    1    3    3    0    0 -0.84301666327E+00 -0.89544984052E+02 -0.42311109973E+03  0.43248354600E+03  0.00000000000E+00 0. -1.
<mgrwt>
<rscale>  0 0.15001066E+03</rscale>
<asrwt>0</asrwt>
<pdfrwt beam="2">  1        2 0.11845438E+00 0.15926215E+03</pdfrwt>
<pdfrwt beam="1">  1       -2 0.65658455E-02 0.15926215E+03</pdfrwt>
<totfact> 0.46927945E+03</totfact>
</mgrwt>
</event>
<event>
 7    1  0.1254976E-005  0.1308665E+03  0.7546771E-02  0.1240087E+00
          1   -1    0    0  501    0  0.00000000000E+00  0.00000000000E+00  0.56683347910E+02  0.56683347910E+02  0.00000000000E+00 0. -1.
         -1   -1    0    0    0  501 -0.00000000000E+00 -0.00000000000E+00 -0.28088390947E+03  0.28088390947E+03  0.00000000000E+00 0.  1.
         23    2    1    2    0    0  0.38400008906E+02 -0.53536748755E+01 -0.28937771770E+02  0.10250640435E+03  0.90371155680E+02 0.  0.
          5    1    1    2  502    0 -0.70690953762E+02 -0.44560236768E+01 -0.52509251366E+02  0.88297103972E+02  0.47000000000E+01 0. -1.
         -5    1    1    2    0  502  0.32290944857E+02  0.98096985524E+01 -0.14275353842E+03  0.14676374906E+03  0.47000000000E+01 0. -1.
        -11    1    3    3    0    0 -0.16206795818E+02 -0.28028065702E+02  0.72578802877E+01  0.33179956659E+02  0.00000000000E+00 0. -1.
         11    1    3    3    0    0  0.54606804723E+02  0.22674390826E+02 -0.36195652058E+02  0.69326447690E+02  0.00000000000E+00 0.  1.
<mgrwt>
<rscale>  0 0.12184303E+03</rscale>
<asrwt>0</asrwt>
<pdfrwt beam="1">  1        1 0.87205153E-02 0.13086653E+03</pdfrwt>
<pdfrwt beam="2">  1       -1 0.43212908E-01 0.13086653E+03</pdfrwt>
<totfact> 0.39701560E+03</totfact>
</mgrwt>
</event>
<event>
 7    1  0.1254976E-005  0.1361901E+03  0.7546771E-02  0.1230929E+00
         -2   -1    0    0    0  501 -0.00000000000E+00  0.00000000000E+00  0.79517902640E+02  0.79517902640E+02  0.00000000000E+00 0.  1.
          2   -1    0    0  501    0  0.00000000000E+00 -0.00000000000E+00 -0.18325645574E+03  0.18325645574E+03  0.00000000000E+00 0. -1.
         23    2    1    2    0    0 -0.39020425925E+02 -0.37446027421E+02 -0.44077482390E+02  0.11408953753E+03  0.90270701288E+02 0.  0.
          5    1    1    2  502    0  0.27529440360E+02  0.26231510576E+01 -0.94080252811E+02  0.98172984965E+02  0.47000000000E+01 0. -1.
         -5    1    1    2    0  502  0.11490985565E+02  0.34822876363E+02  0.34419182103E+02  0.50511835881E+02  0.47000000000E+01 0. -1.
        -11    1    3    3    0    0 -0.42710794894E+02 -0.48900600851E+02  0.34928127990E+01  0.65020616002E+02  0.00000000000E+00 0.  1.
         11    1    3    3    0    0  0.36903689688E+01  0.11454573430E+02 -0.47570295189E+02  0.49068921528E+02  0.00000000000E+00 0. -1.
<mgrwt>
<rscale>  0 0.12768655E+03</rscale>
<asrwt>0</asrwt>
<pdfrwt beam="2">  1        2 0.28193301E-01 0.13619006E+03</pdfrwt>
<pdfrwt beam="1">  1       -2 0.12233524E-01 0.13619006E+03</pdfrwt>
<totfact> 0.85148382E+03</totfact>
</mgrwt>
</event>
<event>
 7    1  0.1254976E-005  0.1395708E+03  0.7546771E-02  0.1223056E+00
          2   -1    0    0  501    0  0.00000000000E+00  0.00000000000E+00  0.94815159043E+02  0.94815159043E+02  0.00000000000E+00 0. -1.
         -2   -1    0    0    0  501 -0.00000000000E+00 -0.00000000000E+00 -0.26252690754E+03  0.26252690754E+03  0.00000000000E+00 0.  1.
         23    2    1    2    0    0  0.69542375806E+02  0.10537287588E+02  0.26545923048E+02  0.11814327349E+03  0.91137097708E+02 0.  0.
          5    1    1    2  502    0 -0.40513915097E+02 -0.53013062307E+02 -0.43382462267E+02  0.79723836611E+02  0.47000000000E+01 0. -1.
         -5    1    1    2    0  502 -0.29028460709E+02  0.42475774719E+02 -0.15087520928E+03  0.15947495648E+03  0.47000000000E+01 0.  1.
        -11    1    3    3    0    0  0.61810875624E+02 -0.28672442339E+02 -0.33720366917E+01  0.68220700132E+02  0.00000000000E+00 0. -1.
         11    1    3    3    0    0  0.77315001821E+01  0.39209729926E+02  0.29917959740E+02  0.49922573361E+02  0.00000000000E+00 0.  1.
<mgrwt>
<rscale>  0 0.13301049E+03</rscale>
<asrwt>0</asrwt>
<pdfrwt beam="1">  1        2 0.14586948E-01 0.13957084E+03</pdfrwt>
<pdfrwt beam="2">  1       -2 0.40388755E-01 0.13957084E+03</pdfrwt>
<totfact> 0.22813498E+03</totfact>
</mgrwt>
</event>
<event>
 7    1  0.1254976E-005  0.1279742E+03  0.7546771E-02  0.1244336E+00
          3   -1    0    0  501    0  0.00000000000E+00  0.00000000000E+00  0.84298689162E+03  0.84298689162E+03  0.00000000000E+00 0.  1.
         -3   -1    0    0    0  501 -0.00000000000E+00 -0.00000000000E+00 -0.16300393971E+02  0.16300393971E+02  0.00000000000E+00 0. -1.
         23    2    1    2    0    0 -0.11081869569E+02  0.25071654256E+02  0.48308404000E+03  0.49262660875E+03  0.92516972828E+02 0.  0.
          5    1    1    2  502    0 -0.46166902508E+02  0.14929400295E+02  0.21274212176E+03  0.21825574506E+03  0.47000000000E+01 0.  1.
         -5    1    1    2    0  502  0.57248772077E+02 -0.40001054551E+02  0.13086033588E+03  0.14840493178E+03  0.47000000000E+01 0.  1.
        -11    1    3    3    0    0 -0.51855454383E+02  0.94019839940E+01  0.25235813145E+03  0.25780227299E+03  0.00000000000E+00 0.  1.
         11    1    3    3    0    0  0.40773584813E+02  0.15669670262E+02  0.23072590855E+03  0.23482433576E+03  0.00000000000E+00 0. -1.
<mgrwt>
<rscale>  0 0.11925187E+03</rscale>
<asrwt>0</asrwt>
<pdfrwt beam="1">  1        3 0.12969026E+00 0.12797423E+03</pdfrwt>
<pdfrwt beam="2">  1       -3 0.25077536E-02 0.12797423E+03</pdfrwt>
<totfact> 0.76005357E+02</totfact>
</mgrwt>
</event>
<event>
 7    1  0.1254976E-005  0.1283063E+03  0.7546771E-02  0.1242056E+00
          2   -1    0    0  501    0  0.00000000000E+00  0.00000000000E+00  0.31601654400E+03  0.31601654400E+03  0.00000000000E+00 0. -1.
         -2   -1    0    0    0  501 -0.00000000000E+00 -0.00000000000E+00 -0.76570428660E+02  0.76570428660E+02  0.00000000000E+00 0.  1.
         23    2    1    2    0    0  0.19419722656E+02  0.21340942713E+02  0.24442021677E+03  0.26418425088E+03  0.96018303372E+02 0.  0.
          5    1    1    2  502    0  0.31476959419E+02 -0.13398923266E+02 -0.49362206119E+02  0.60241576274E+02  0.47000000000E+01 0. -1.
         -5    1    1    2    0  502 -0.50896682075E+02 -0.79420194465E+01  0.44388104690E+02  0.68161145510E+02  0.47000000000E+01 0. -1.
        -11    1    3    3    0    0  0.50966920008E+02  0.13501088804E+02  0.21129286589E+03  0.21777185656E+03  0.00000000000E+00 0. -1.
         11    1    3    3    0    0 -0.31547197351E+02  0.78398539081E+01  0.33127350883E+02  0.46412394320E+02  0.00000000000E+00 0.  1.
<mgrwt>
<rscale>  0 0.12063354E+03</rscale>
<asrwt>0</asrwt>
<pdfrwt beam="1">  1        2 0.48617929E-01 0.12830634E+03</pdfrwt>
<pdfrwt beam="2">  1       -2 0.11780066E-01 0.12830634E+03</pdfrwt>
<totfact> 0.50321003E+03</totfact>
</mgrwt>
</event>
<event>
 7    1  0.1254976E-005  0.1417620E+03  0.7546771E-02  0.1231218E+00
         -2   -1    0    0    0  501 -0.00000000000E+00  0.00000000000E+00  0.12270269569E+03  0.12270269569E+03  0.00000000000E+00 0.  1.
          2   -1    0    0  501    0  0.00000000000E+00 -0.00000000000E+00 -0.11594111297E+03  0.11594111297E+03  0.00000000000E+00 0. -1.
         23    2    1    2    0    0  0.15728206724E+02  0.20004963362E+01 -0.18690724681E+02  0.94615052124E+02  0.91385373157E+02 0.  0.
          5    1    1    2  502    0 -0.67102267726E+02  0.19541896360E+02 -0.19028663552E+02  0.72586362933E+02  0.47000000000E+01 0. -1.
         -5    1    1    2    0  502  0.51374061002E+02 -0.21542392696E+02  0.44480970956E+02  0.71442393605E+02  0.47000000000E+01 0.  1.
        -11    1    3    3    0    0  0.39759210707E+02  0.31161189008E+02  0.37715830775E+01  0.50656089223E+02  0.00000000000E+00 0.  1.
         11    1    3    3    0    0 -0.24031003983E+02 -0.29160692671E+02 -0.22462307759E+02  0.43958962901E+02  0.00000000000E+00 0. -1.
<mgrwt>
<rscale>  0 0.12749671E+03</rscale>
<asrwt>0</asrwt>
<pdfrwt beam="2">  1        2 0.17837094E-01 0.14176199E+03</pdfrwt>
<pdfrwt beam="1">  1       -2 0.18877338E-01 0.14176199E+03</pdfrwt>
<totfact> 0.69983035E+03</totfact>
</mgrwt>
</event>
<event>
 7    1  0.1254976E-005  0.1391284E+03  0.7546771E-02  0.1226477E+00
         -2   -1    0    0    0  501 -0.00000000000E+00  0.00000000000E+00  0.33098721656E+02  0.33098721656E+02  0.00000000000E+00 0. -1.
          2   -1    0    0  501    0  0.00000000000E+00 -0.00000000000E+00 -0.53702095050E+03  0.53702095050E+03  0.00000000000E+00 0.  1.
         23    2    1    2    0    0  0.60219039619E+02 -0.10355205968E+02 -0.33059579679E+03  0.34786133262E+03  0.89332876673E+02 0.  0.
          5    1    1    2  502    0 -0.96715325809E+01  0.19177557601E+02  0.15257482334E+02  0.26761876339E+02  0.47000000000E+01 0. -1.
         -5    1    1    2    0  502 -0.50547507038E+02 -0.88223516335E+01 -0.18858391440E+03  0.19549646320E+03  0.47000000000E+01 0. -1.
        -11    1    3    3    0    0  0.70124299421E+02 -0.37354518504E+02 -0.23983192422E+03  0.25265021136E+03  0.00000000000E+00 0.  1.
         11    1    3    3    0    0 -0.99052598020E+01  0.26999312536E+02 -0.90763872563E+02  0.95211121261E+02  0.00000000000E+00 0. -1.
<mgrwt>
<rscale>  0 0.13066212E+03</rscale>
<asrwt>0</asrwt>
<pdfrwt beam="2">  1        2 0.82618610E-01 0.13912842E+03</pdfrwt>
<pdfrwt beam="1">  1       -2 0.50921109E-02 0.13912842E+03</pdfrwt>
<totfact> 0.10426655E+04</totfact>
</mgrwt>
</event>
<event>
 7    1  0.1254976E-005  0.1306767E+03  0.7546771E-02  0.1239919E+00
         -1   -1    0    0    0  501 -0.00000000000E+00  0.00000000000E+00  0.36862877629E+03  0.36862877629E+03  0.00000000000E+00 0.  1.
          1   -1    0    0  501    0  0.00000000000E+00 -0.00000000000E+00 -0.39511687010E+02  0.39511687010E+02  0.00000000000E+00 0. -1.
         23    2    1    2    0    0 -0.22177760139E+02 -0.30955308643E+02  0.82125559873E+02  0.12871029863E+03  0.91496716943E+02 0.  0.
          5    1    1    2  502    0  0.57208124327E+02 -0.18193314893E+02  0.69807461676E+02  0.92189684354E+02  0.47000000000E+01 0. -1.
         -5    1    1    2    0  502 -0.35030364188E+02  0.49148623535E+02  0.17718406773E+03  0.18724048031E+03  0.47000000000E+01 0. -1.
        -11    1    3    3    0    0 -0.18890247038E+02  0.14433635234E+02  0.79664388382E+02  0.83135949116E+02  0.00000000000E+00 0.  1.
         11    1    3    3    0    0 -0.32875131009E+01 -0.45388943877E+02  0.24611714918E+01  0.45574349515E+02  0.00000000000E+00 0. -1.
<mgrwt>
<rscale>  0 0.12194729E+03</rscale>
<asrwt>0</asrwt>
<pdfrwt beam="2">  1        1 0.60787213E-02 0.13067671E+03</pdfrwt>
<pdfrwt beam="1">  1       -1 0.56712117E-01 0.13067671E+03</pdfrwt>
<totfact> 0.39317897E+03</totfact>
</mgrwt>
</event>
<event>
 7    1  0.1254976E-005  0.2595206E+03  0.7546771E-02  0.1110031E+00
          2   -1    0    0  501    0  0.00000000000E+00  0.00000000000E+00  0.32590598355E+03  0.32590598355E+03  0.00000000000E+00 0. -1.
         -2   -1    0    0    0  501 -0.00000000000E+00 -0.00000000000E+00 -0.19364914861E+03  0.19364914861E+03  0.00000000000E+00 0.  1.
         23    2    1    2    0    0 -0.13639067136E+03  0.18200350067E+03  0.68067677269E+02  0.25221414025E+03  0.85153240463E+02 0.  0.
          5    1    1    2  502    0  0.10220505096E+03 -0.66199379624E+02  0.79556129385E+02  0.14553177669E+03  0.47000000000E+01 0.  1.
         -5    1    1    2    0  502  0.34185620407E+02 -0.11580412105E+03 -0.15366971713E+02  0.12180921523E+03  0.47000000000E+01 0.  1.
        -11    1    3    3    0    0 -0.78127566056E+02  0.16435114172E+03  0.50683285943E+02  0.18890211708E+03  0.00000000000E+00 0. -1.
         11    1    3    3    0    0 -0.58263105307E+02  0.17652358956E+02  0.17384391326E+02  0.63312023175E+02  0.00000000000E+00 0.  1.
<mgrwt>
<rscale>  0 0.25525007E+03</rscale>
<asrwt>0</asrwt>
<pdfrwt beam="1">  1        2 0.50139382E-01 0.25952063E+03</pdfrwt>
<pdfrwt beam="2">  1       -2 0.29792177E-01 0.25952063E+03</pdfrwt>
<totfact> 0.10353284E+03</totfact>
</mgrwt>
</event>
<event>
 7    1  0.1254976E-005  0.1568973E+03  0.7546771E-02  0.1200367E+00
          2   -1    0    0  501    0  0.00000000000E+00  0.00000000000E+00  0.12321903844E+03  0.12321903844E+03  0.00000000000E+00 0. -1.
         -2   -1    0    0    0  501 -0.00000000000E+00 -0.00000000000E+00 -0.17008361015E+03  0.17008361015E+03  0.00000000000E+00 0.  1.
         23    2    1    2    0    0  0.20413248354E+02 -0.92599983294E+02 -0.77537051066E+01  0.13160405344E+03  0.90928814604E+02 0.  0.
          5    1    1    2  502    0 -0.44372164433E+02  0.83794402201E+02  0.20109156357E+02  0.97040501782E+02  0.47000000000E+01 0.  1.
         -5    1    1    2    0  502  0.23958916079E+02  0.88055810926E+01 -0.59220022965E+02  0.64658093368E+02  0.47000000000E+01 0.  1.
        -11    1    3    3    0    0 -0.95453274382E+01 -0.74995207275E+02 -0.38827751758E+02  0.84988167981E+02  0.00000000000E+00 0.  1.
         11    1    3    3    0    0  0.29958575792E+02 -0.17604776018E+02  0.31074046651E+02  0.46615885462E+02  0.00000000000E+00 0. -1.
<mgrwt>
<rscale>  0 0.15008602E+03</rscale>
<asrwt>0</asrwt>
<pdfrwt beam="1">  1        2 0.18956775E-01 0.15689734E+03</pdfrwt>
<pdfrwt beam="2">  1       -2 0.26166709E-01 0.15689734E+03</pdfrwt>
<totfact> 0.37449951E+03</totfact>
</mgrwt>
</event>
<event>
 7    1  0.1254976E-005  0.2354124E+03  0.7546771E-02  0.1122887E+00
          1   -1    0    0  501    0  0.00000000000E+00  0.00000000000E+00  0.57810200572E+03  0.57810200572E+03  0.00000000000E+00 0. -1.
         -1   -1    0    0    0  501 -0.00000000000E+00 -0.00000000000E+00 -0.23965929088E+02  0.23965929088E+02  0.00000000000E+00 0.  1.
         23    2    1    2    0    0  0.23240713091E+02 -0.83864071177E+01  0.19507376573E+03  0.21698270939E+03  0.91745624047E+02 0.  0.
          5    1    1    2  502    0 -0.79669954821E+02 -0.60167503952E+01  0.18828044058E+03  0.20458523234E+03  0.47000000000E+01 0. -1.
         -5    1    1    2    0  502  0.56429241729E+02  0.14403157513E+02  0.17078187033E+03  0.18049999308E+03  0.47000000000E+01 0.  1.
        -11    1    3    3    0    0  0.20767446043E+02  0.30449785723E+02  0.30410743021E+02  0.47783779223E+02  0.00000000000E+00 0.  1.
         11    1    3    3    0    0  0.24732670484E+01 -0.38836192841E+02  0.16466302271E+03  0.16919893017E+03  0.00000000000E+00 0. -1.
<mgrwt>
<rscale>  0 0.23541242E+03</rscale>
<asrwt>0</asrwt>
<pdfrwt beam="1">  1        1 0.88938760E-01 0.23541242E+03</pdfrwt>
<pdfrwt beam="2">  1       -1 0.36870664E-02 0.23541242E+03</pdfrwt>
<totfact> 0.10160864E+04</totfact>
</mgrwt>
</event>
<event>
 7    1  0.1254976E-005  0.2085241E+03  0.7546771E-02  0.1146755E+00
          1   -1    0    0  501    0  0.00000000000E+00  0.00000000000E+00  0.62066849691E+03  0.62066849691E+03  0.00000000000E+00 0. -1.
         -1   -1    0    0    0  501 -0.00000000000E+00 -0.00000000000E+00 -0.64400043440E+02  0.64400043440E+02  0.00000000000E+00 0.  1.
         23    2    1    2    0    0  0.52536829775E+01  0.16682981763E+03  0.29823764970E+03  0.35331232730E+03  0.89577428446E+02 0.  0.
          5    1    1    2  502    0  0.43955373455E+02 -0.90815520298E+02  0.69652059245E+02  0.12269080218E+03  0.47000000000E+01 0. -1.
         -5    1    1    2    0  502 -0.49209056432E+02 -0.76014297333E+02  0.18837874453E+03  0.20906541087E+03  0.47000000000E+01 0. -1.
        -11    1    3    3    0    0 -0.90561059448E+01  0.69572143180E+02  0.49528491026E+02  0.85879960322E+02  0.00000000000E+00 0.  1.
         11    1    3    3    0    0  0.14309788922E+02  0.97257674451E+02  0.24870915867E+03  0.26743236697E+03  0.00000000000E+00 0. -1.
<mgrwt>
<rscale>  0 0.20357742E+03</rscale>
<asrwt>0</asrwt>
<pdfrwt beam="1">  1        1 0.95487457E-01 0.20852407E+03</pdfrwt>
<pdfrwt beam="2">  1       -1 0.99076994E-02 0.20852407E+03</pdfrwt>
<totfact> 0.20610718E+03</totfact>
</mgrwt>
</event>
<event>
 7    1  0.1683808E-005  0.3051508E+03  0.7546771E-02  0.1084224E+00
         -2   -1    0    0    0  501 -0.00000000000E+00  0.00000000000E+00  0.97938097934E+03  0.97938097934E+03  0.00000000000E+00 0.  1.
          2   -1    0    0  501    0  0.00000000000E+00 -0.00000000000E+00 -0.13863378586E+03  0.13863378586E+03  0.00000000000E+00 0. -1.
         23    2    1    2    0    0 -0.13465005285E+03 -0.24364137405E+03  0.88112952900E+02  0.30587234459E+03  0.91116644086E+02 0.  0.
          5    1    1    2  502    0 -0.18659321104E+02  0.73950596056E+02  0.18794526073E+03  0.20288512008E+03  0.47000000000E+01 0. -1.
         -5    1    1    2    0  502  0.15330937396E+03  0.16969077800E+03  0.56468897985E+03  0.60925730053E+03  0.47000000000E+01 0. -1.
        -11    1    3    3    0    0 -0.91244154377E+02 -0.12114343516E+03  0.89119373736E+02  0.17590761884E+03  0.00000000000E+00 0.  1.
         11    1    3    3    0    0 -0.43405898476E+02 -0.12249793889E+03 -0.10064208359E+01  0.12996472575E+03  0.00000000000E+00 0. -1.
<mgrwt>
<rscale>  0 0.30204246E+03</rscale>
<asrwt>0</asrwt>
<pdfrwt beam="2">  1        2 0.21328275E-01 0.30515080E+03</pdfrwt>
<pdfrwt beam="1">  1       -2 0.15067399E+00 0.30515080E+03</pdfrwt>
<totfact> 0.80950870E+01</totfact>
</mgrwt>
</event>
<event>
 7    1  0.1254976E-005  0.1563118E+03  0.7546771E-02  0.1197796E+00
          1   -1    0    0  501    0  0.00000000000E+00  0.00000000000E+00  0.76871797917E+02  0.76871797917E+02  0.00000000000E+00 0. -1.
         -1   -1    0    0    0  501 -0.00000000000E+00 -0.00000000000E+00 -0.76137606762E+03  0.76137606762E+03  0.00000000000E+00 0.  1.
         23    2    1    2    0    0  0.10306322236E+03 -0.30960689491E+02 -0.45670530172E+01  0.14057459917E+03  0.90331433409E+02 0.  0.
          5    1    1    2  502    0 -0.78026811621E+02 -0.28544627712E+02 -0.26622430811E+03  0.27892732267E+03  0.47000000000E+01 0. -1.
         -5    1    1    2    0  502 -0.25036410743E+02  0.59505317203E+02 -0.41371290858E+03  0.41874594370E+03  0.47000000000E+01 0.  1.
        -11    1    3    3    0    0  0.12173655870E+02 -0.42939922081E+02 -0.17600403819E+02  0.47977171865E+02  0.00000000000E+00 0.  1.
         11    1    3    3    0    0  0.90889566494E+02  0.11979232590E+02  0.13033350802E+02  0.92597427308E+02  0.00000000000E+00 0. -1.
<mgrwt>
<rscale>  0 0.15219947E+03</rscale>
<asrwt>0</asrwt>
<pdfrwt beam="1">  1        1 0.11826430E-01 0.15631177E+03</pdfrwt>
<pdfrwt beam="2">  1       -1 0.11713478E+00 0.15631177E+03</pdfrwt>
<totfact> 0.36000470E+02</totfact>
</mgrwt>
</event>
<event>
 7    1  0.1254976E-005  0.1302596E+03  0.7546771E-02  0.1240516E+00
          1   -1    0    0  501    0  0.00000000000E+00  0.00000000000E+00  0.31828032705E+03  0.31828032705E+03  0.00000000000E+00 0. -1.
         -1   -1    0    0    0  501 -0.00000000000E+00 -0.00000000000E+00 -0.48594394193E+02  0.48594394193E+02  0.00000000000E+00 0.  1.
         23    2    1    2    0    0 -0.20914704587E+02  0.29914692011E+02  0.18999062762E+03  0.21416941883E+03  0.91868317238E+02 0.  0.
          5    1    1    2  502    0  0.27797408528E+01 -0.73287054191E+02  0.75360183370E+02  0.10526141985E+03  0.47000000000E+01 0. -1.
         -5    1    1    2    0  502  0.18134963734E+02  0.43372362180E+02  0.43351218602E+01  0.47443882558E+02  0.47000000000E+01 0. -1.
        -11    1    3    3    0    0  0.11568078434E+02 -0.51768716263E+01 -0.48326148854E+01  0.13563723866E+02  0.00000000000E+00 0.  1.
         11    1    3    3    0    0 -0.32482783020E+02  0.35091563638E+02  0.19482324251E+03  0.20060569497E+03  0.00000000000E+00 0. -1.
<mgrwt>
<rscale>  0 0.12157824E+03</rscale>
<asrwt>0</asrwt>
<pdfrwt beam="1">  1        1 0.48966203E-01 0.13025962E+03</pdfrwt>
<pdfrwt beam="2">  1       -1 0.74760608E-02 0.13025962E+03</pdfrwt>
<totfact> 0.73701696E+03</totfact>
</mgrwt>
</event>
<event>
 7    1  0.1254976E-005  0.1396004E+03  0.7546771E-02  0.1225793E+00
          2   -1    0    0  501    0  0.00000000000E+00  0.00000000000E+00  0.42021648881E+03  0.42021648881E+03  0.00000000000E+00 0. -1.
         -2   -1    0    0    0  501 -0.00000000000E+00 -0.00000000000E+00 -0.38870453695E+02  0.38870453695E+02  0.00000000000E+00 0.  1.
         23    2    1    2    0    0  0.56256193442E+02 -0.26403821690E+02  0.22246976072E+03  0.24759240633E+03  0.89147541404E+02 0.  0.
          5    1    1    2  502    0  0.24376704583E+02 -0.31215203023E+02  0.37692331496E+02  0.54876356290E+02  0.47000000000E+01 0.  1.
         -5    1    1    2    0  502 -0.80632898025E+02  0.57619024713E+02  0.12118394289E+03  0.15661817988E+03  0.47000000000E+01 0.  1.
        -11    1    3    3    0    0  0.27212456610E+02  0.25084647708E+02  0.34685861743E+02  0.50723429993E+02  0.00000000000E+00 0.  1.
         11    1    3    3    0    0  0.29043736832E+02 -0.51488469398E+02  0.18778389898E+03  0.19686897634E+03  0.00000000000E+00 0. -1.
<mgrwt>
<rscale>  0 0.13112713E+03</rscale>
<asrwt>0</asrwt>
<pdfrwt beam="1">  1        2 0.64648688E-01 0.13960039E+03</pdfrwt>
<pdfrwt beam="2">  1       -2 0.59800701E-02 0.13960039E+03</pdfrwt>
<totfact> 0.10693206E+04</totfact>
</mgrwt>
</event>
<event>
 7    1  0.1254976E-005  0.1428223E+03  0.7546771E-02  0.1220224E+00
         -1   -1    0    0    0  501 -0.00000000000E+00  0.00000000000E+00  0.16839041521E+03  0.16839041521E+03  0.00000000000E+00 0.  1.
          1   -1    0    0  501    0  0.00000000000E+00 -0.00000000000E+00 -0.11732666110E+03  0.11732666110E+03  0.00000000000E+00 0. -1.
         23    2    1    2    0    0  0.27530412766E+02 -0.63376648232E+02 -0.34648103104E+02  0.11914960054E+03  0.90673111184E+02 0.  0.
          5    1    1    2  502    0  0.18304599494E+01 -0.33856053546E+02  0.46162979520E+02  0.57469066667E+02  0.47000000000E+01 0. -1.
         -5    1    1    2    0  502 -0.29360872715E+02  0.97232701779E+02  0.39548877692E+02  0.10909840910E+03  0.47000000000E+01 0. -1.
        -11    1    3    3    0    0 -0.21040793642E+02 -0.60642661982E+02 -0.28071630933E+02  0.70059003080E+02  0.00000000000E+00 0. -1.
         11    1    3    3    0    0  0.48571206408E+02 -0.27339862506E+01 -0.65764721717E+01  0.49090597460E+02  0.00000000000E+00 0.  1.
<mgrwt>
<rscale>  0 0.13499688E+03</rscale>
<asrwt>0</asrwt>
<pdfrwt beam="2">  1        1 0.18050256E-01 0.14282227E+03</pdfrwt>
<pdfrwt beam="1">  1       -1 0.25906218E-01 0.14282227E+03</pdfrwt>
<totfact> 0.36904241E+03</totfact>
</mgrwt>
</event>
<event>
 7    1  0.1254976E-005  0.2009446E+03  0.7546771E-02  0.1153243E+00
          1   -1    0    0  501    0  0.00000000000E+00  0.00000000000E+00  0.17987452379E+03  0.17987452379E+03  0.00000000000E+00 0. -1.
         -1   -1    0    0    0  501 -0.00000000000E+00 -0.00000000000E+00 -0.20418386434E+03  0.20418386434E+03  0.00000000000E+00 0.  1.
         23    2    1    2    0    0  0.79690837836E+02 -0.13566256388E+03 -0.24097993796E+02  0.18311371815E+03  0.90526016129E+02 0.  0.
          5    1    1    2  502    0 -0.10234268415E+02  0.12928213359E+03  0.10610670886E+02  0.13020478736E+03  0.47000000000E+01 0.  1.
         -5    1    1    2    0  502 -0.69456569421E+02  0.63804302892E+01 -0.10822017641E+02  0.70739882614E+02  0.47000000000E+01 0.  1.
        -11    1    3    3    0    0  0.90103530993E+02 -0.71967089319E+02 -0.35150416618E+01  0.11537011641E+03  0.00000000000E+00 0. -1.
         11    1    3    3    0    0 -0.10412693156E+02 -0.63695474560E+02 -0.20582952134E+02  0.67743601740E+02  0.00000000000E+00 0.  1.
<mgrwt>
<rscale>  0 0.19590205E+03</rscale>
<asrwt>0</asrwt>
<pdfrwt beam="1">  1        1 0.27673004E-01 0.20094456E+03</pdfrwt>
<pdfrwt beam="2">  1       -1 0.31412902E-01 0.20094456E+03</pdfrwt>
<totfact> 0.15721274E+03</totfact>
</mgrwt>
</event>
<event>
 7    1  0.1254976E-005  0.1608618E+03  0.7546771E-02  0.1195322E+00
         -1   -1    0    0    0  501 -0.00000000000E+00  0.00000000000E+00  0.55370478824E+03  0.55370478824E+03  0.00000000000E+00 0.  1.
          1   -1    0    0  501    0  0.00000000000E+00 -0.00000000000E+00 -0.43530386947E+02  0.43530386947E+02  0.00000000000E+00 0. -1.
         23    2    1    2    0    0  0.95481591983E+02  0.33682053535E+02  0.14858114409E+03  0.20147488253E+03  0.90909607714E+02 0.  0.
          5    1    1    2  502    0 -0.77988576355E+02  0.37788397691E+02  0.20831698305E+03  0.22567285275E+03  0.47000000000E+01 0.  1.
         -5    1    1    2    0  502 -0.17493015628E+02 -0.71470451226E+02  0.15327627416E+03  0.17008743991E+03  0.47000000000E+01 0.  1.
        -11    1    3    3    0    0  0.62966811418E+02 -0.17114542408E+02  0.37983980000E+02  0.75501719442E+02  0.00000000000E+00 0. -1.
         11    1    3    3    0    0  0.32514780565E+02  0.50796595943E+02  0.11059716409E+03  0.12597316309E+03  0.00000000000E+00 0.  1.
<mgrwt>
<rscale>  0 0.15427035E+03</rscale>
<asrwt>0</asrwt>
<pdfrwt beam="2">  1        1 0.66969830E-02 0.16086182E+03</pdfrwt>
<pdfrwt beam="1">  1       -1 0.85185347E-01 0.16086182E+03</pdfrwt>
<totfact> 0.15587320E+03</totfact>
</mgrwt>
</event>
<event>
 7    1  0.1254976E-005  0.1491600E+03  0.7546771E-02  0.1211968E+00
          2   -1    0    0  501    0  0.00000000000E+00  0.00000000000E+00  0.70249754344E+03  0.70249754344E+03  0.00000000000E+00 0. -1.
         -2   -1    0    0    0  501 -0.00000000000E+00 -0.00000000000E+00 -0.26309026621E+02  0.26309026621E+02  0.00000000000E+00 0.  1.
         23    2    1    2    0    0  0.33470005378E+02 -0.74169120148E+02  0.35985194210E+03  0.37906733325E+03  0.87047821682E+02 0.  0.
          5    1    1    2  502    0  0.18373242634E+02 -0.16297646552E+02  0.15884417958E+03  0.16080035048E+03  0.47000000000E+01 0.  1.
         -5    1    1    2    0  502 -0.51843248013E+02  0.90466766700E+02  0.15749239513E+03  0.18893888633E+03  0.47000000000E+01 0.  1.
        -11    1    3    3    0    0 -0.28845324254E+02 -0.33658181709E+02  0.15168402860E+03  0.15802838498E+03  0.00000000000E+00 0.  1.
         11    1    3    3    0    0  0.62315329633E+02 -0.40510938438E+02  0.20816791350E+03  0.22103894827E+03  0.00000000000E+00 0. -1.
<mgrwt>
<rscale>  0 0.14101654E+03</rscale>
<asrwt>0</asrwt>
<pdfrwt beam="1">  1        2 0.10807653E+00 0.14916000E+03</pdfrwt>
<pdfrwt beam="2">  1       -2 0.40475431E-02 0.14916000E+03</pdfrwt>
<totfact> 0.10847764E+04</totfact>
</mgrwt>
</event>
<event>
 7    1  0.1254976E-005  0.1870063E+03  0.7546771E-02  0.1164139E+00
         -2   -1    0    0    0  501 -0.00000000000E+00  0.00000000000E+00  0.11723350429E+03  0.11723350429E+03  0.00000000000E+00 0.  1.
          2   -1    0    0  501    0  0.00000000000E+00 -0.00000000000E+00 -0.27995370093E+03  0.27995370093E+03  0.00000000000E+00 0. -1.
         23    2    1    2    0    0  0.14713428641E+03  0.18305958787E+02 -0.90610954803E+02  0.19675993330E+03  0.92306662032E+02 0.  0.
          5    1    1    2  502    0 -0.15741027267E+02  0.52601317847E+01 -0.64358498836E+02  0.66629987980E+02  0.47000000000E+01 0. -1.
         -5    1    1    2    0  502 -0.13139325914E+03 -0.23566090571E+02 -0.77507429997E+01  0.13379728394E+03  0.47000000000E+01 0.  1.
        -11    1    3    3    0    0  0.14542335906E+03  0.41488295161E+02 -0.81533971959E+02  0.17180518205E+03  0.00000000000E+00 0. -1.
         11    1    3    3    0    0  0.17109273504E+01 -0.23182336375E+02 -0.90769828444E+01  0.24954751246E+02  0.00000000000E+00 0.  1.
<mgrwt>
<rscale>  0 0.18383871E+03</rscale>
<asrwt>0</asrwt>
<pdfrwt beam="2">  1        2 0.43069800E-01 0.18700628E+03</pdfrwt>
<pdfrwt beam="1">  1       -2 0.18035924E-01 0.18700628E+03</pdfrwt>
<totfact> 0.29060298E+03</totfact>
</mgrwt>
</event>
<event>
 7    1  0.1254976E-005  0.1580939E+03  0.7546771E-02  0.1198570E+00
          2   -1    0    0  501    0  0.00000000000E+00  0.00000000000E+00  0.49273614683E+02  0.49273614683E+02  0.00000000000E+00 0. -1.
         -2   -1    0    0    0  501 -0.00000000000E+00 -0.00000000000E+00 -0.47802688219E+03  0.47802688219E+03  0.00000000000E+00 0.  1.
         23    2    1    2    0    0 -0.71573994028E+02 -0.65158931109E+02 -0.11608677796E+03  0.17693778722E+03  0.91990856105E+02 0.  0.
          5    1    1    2  502    0 -0.28093311792E+02 -0.11194242706E+02 -0.42105470618E+02  0.52052914358E+02  0.47000000000E+01 0.  1.
         -5    1    1    2    0  502  0.99667305820E+02  0.76353173815E+02 -0.27056101893E+03  0.29830979529E+03  0.47000000000E+01 0.  1.
        -11    1    3    3    0    0 -0.29089818028E+02 -0.20933014514E+02 -0.10955177812E+03  0.11526491529E+03  0.00000000000E+00 0.  1.
         11    1    3    3    0    0 -0.42484176000E+02 -0.44225916595E+02 -0.65349998412E+01  0.61672871929E+02  0.00000000000E+00 0. -1.
<mgrwt>
<rscale>  0 0.15155941E+03</rscale>
<asrwt>0</asrwt>
<pdfrwt beam="1">  1        2 0.75805563E-02 0.15809394E+03</pdfrwt>
<pdfrwt beam="2">  1       -2 0.73542595E-01 0.15809394E+03</pdfrwt>
<totfact> 0.15234627E+03</totfact>
</mgrwt>
</event>
<event>
 7    1  0.1254976E-005  0.1499378E+03  0.7546771E-02  0.1209503E+00
         -1   -1    0    0    0  501 -0.00000000000E+00  0.00000000000E+00  0.14648973788E+03  0.14648973788E+03  0.00000000000E+00 0. -1.
          1   -1    0    0  501    0  0.00000000000E+00 -0.00000000000E+00 -0.21981675054E+03  0.21981675054E+03  0.00000000000E+00 0.  1.
         23    2    1    2    0    0 -0.58062561888E+02 -0.59067979237E+02 -0.15283981704E+03  0.19659021058E+03  0.91800947480E+02 0.  0.
          5    1    1    2  502    0 -0.78966425480E+01  0.62604969196E+02  0.81847041646E+02  0.10345417999E+03  0.47000000000E+01 0.  1.
         -5    1    1    2    0  502  0.65959204436E+02 -0.35369899583E+01 -0.23342372694E+01  0.66262097850E+02  0.47000000000E+01 0.  1.
        -11    1    3    3    0    0  0.99615364574E+01  0.91141529491E+01  0.25814575765E+01  0.13746414652E+02  0.00000000000E+00 0. -1.
         11    1    3    3    0    0 -0.68024098346E+02 -0.68182132187E+02 -0.15542127462E+03  0.18284379593E+03  0.00000000000E+00 0.  1.
<mgrwt>
<rscale>  0 0.14288150E+03</rscale>
<asrwt>0</asrwt>
<pdfrwt beam="2">  1        1 0.33817962E-01 0.14993775E+03</pdfrwt>
<pdfrwt beam="1">  1       -1 0.22536883E-01 0.14993775E+03</pdfrwt>
<totfact> 0.21076838E+03</totfact>
</mgrwt>
</event>
<event>
 7    1  0.1254976E-005  0.1572269E+03  0.7546771E-02  0.1200367E+00
          1   -1    0    0  501    0  0.00000000000E+00  0.00000000000E+00  0.21963407872E+03  0.21963407872E+03  0.00000000000E+00 0. -1.
         -1   -1    0    0    0  501 -0.00000000000E+00 -0.00000000000E+00 -0.13455686103E+03  0.13455686103E+03  0.00000000000E+00 0.  1.
         23    2    1    2    0    0 -0.86909747326E+02  0.38681013495E+02  0.13639160754E+03  0.18880213604E+03  0.89409456888E+02 0.  0.
          5    1    1    2  502    0  0.95358162585E+02 -0.37494571792E+01 -0.75533059930E+02  0.12179725261E+03  0.47000000000E+01 0.  1.
         -5    1    1    2    0  502 -0.84484152588E+01 -0.34931556316E+02  0.24218670075E+02  0.43591551099E+02  0.47000000000E+01 0.  1.
        -11    1    3    3    0    0  0.10851591469E+02  0.19072715813E+02  0.57858758911E+02  0.61880219042E+02  0.00000000000E+00 0. -1.
         11    1    3    3    0    0 -0.97761338795E+02  0.19608297682E+02  0.78532848630E+02  0.12692191700E+03  0.00000000000E+00 0.  1.
<mgrwt>
<rscale>  0 0.15008600E+03</rscale>
<asrwt>0</asrwt>
<pdfrwt beam="1">  1        1 0.33789858E-01 0.15722687E+03</pdfrwt>
<pdfrwt beam="2">  1       -1 0.20701056E-01 0.15722687E+03</pdfrwt>
<totfact> 0.24261267E+03</totfact>
</mgrwt>
</event>
<event>
 7    1  0.1254976E-005  0.2268976E+03  0.7546771E-02  0.1128843E+00
          1   -1    0    0  501    0  0.00000000000E+00  0.00000000000E+00  0.58225986611E+03  0.58225986611E+03  0.00000000000E+00 0. -1.
         -1   -1    0    0    0  501 -0.00000000000E+00 -0.00000000000E+00 -0.22104620548E+02  0.22104620548E+02  0.00000000000E+00 0.  1.
         23    2    1    2    0    0 -0.18505907916E+02  0.32385169556E+01  0.28818133918E+03  0.30446339827E+03  0.96418463047E+02 0.  0.
          5    1    1    2  502    0 -0.43970939957E+02  0.30031486819E+02  0.14366669032E+03  0.15328907877E+03  0.47000000000E+01 0.  1.
         -5    1    1    2    0  502  0.62476847873E+02 -0.33270003775E+02  0.12830721606E+03  0.14661200962E+03  0.47000000000E+01 0.  1.
        -11    1    3    3    0    0  0.31354912935E+02  0.14389992543E+01  0.37675130674E+02  0.49036891779E+02  0.00000000000E+00 0.  1.
         11    1    3    3    0    0 -0.49860820851E+02  0.17995177013E+01  0.25050620850E+03  0.25542650649E+03  0.00000000000E+00 0. -1.
<mgrwt>
<rscale>  0 0.22689763E+03</rscale>
<asrwt>0</asrwt>
<pdfrwt beam="1">  1        1 0.89578429E-01 0.22689763E+03</pdfrwt>
<pdfrwt beam="2">  1       -1 0.34007113E-02 0.22689763E+03</pdfrwt>
<totfact> 0.11318104E+04</totfact>
</mgrwt>
</event>
<event>
 7    1  0.1254976E-005  0.1356496E+03  0.7546771E-02  0.1232137E+00
          1   -1    0    0  501    0  0.00000000000E+00  0.00000000000E+00  0.91771693286E+02  0.91771693286E+02  0.00000000000E+00 0. -1.
         -1   -1    0    0    0  501 -0.00000000000E+00 -0.00000000000E+00 -0.15741423806E+03  0.15741423806E+03  0.00000000000E+00 0.  1.
         23    2    1    2    0    0 -0.83568457509E+01 -0.51950803316E+02 -0.18075057369E+02  0.10543798537E+03  0.89564157024E+02 0.  0.
          5    1    1    2  502    0 -0.43820469810E+02  0.65947437645E+02 -0.40510723899E+02  0.89064621804E+02  0.47000000000E+01 0. -1.
         -5    1    1    2    0  502  0.52177315561E+02 -0.13996634329E+02 -0.70567635070E+01  0.54683324175E+02  0.47000000000E+01 0. -1.
        -11    1    3    3    0    0 -0.96029747044E+00 -0.11784750681E+02  0.35874524155E+02  0.37772794484E+02  0.00000000000E+00 0. -1.
         11    1    3    3    0    0 -0.73965482804E+01 -0.40166052635E+02 -0.53949581524E+02  0.67665190884E+02  0.00000000000E+00 0.  1.
<mgrwt>
<rscale>  0 0.12689480E+03</rscale>
<asrwt>0</asrwt>
<pdfrwt beam="1">  1        1 0.14118722E-01 0.13564957E+03</pdfrwt>
<pdfrwt beam="2">  1       -1 0.24217575E-01 0.13564957E+03</pdfrwt>
<totfact> 0.56432119E+03</totfact>
</mgrwt>
</event>
<event>
 7    1  0.1254976E-005  0.2683081E+03  0.7546771E-02  0.1137278E+00
         -1   -1    0    0    0  501 -0.00000000000E+00  0.00000000000E+00  0.13397596394E+03  0.13397596394E+03  0.00000000000E+00 0.  1.
          1   -1    0    0  501    0  0.00000000000E+00 -0.00000000000E+00 -0.66917348438E+03  0.66917348438E+03  0.00000000000E+00 0. -1.
         23    2    1    2    0    0 -0.47172904861E+02  0.44681892557E+02 -0.52275887881E+03  0.53455322376E+03  0.90821523821E+02 0.  0.
          5    1    1    2  502    0  0.14981548941E+03 -0.64744650084E+02 -0.14198340048E+02  0.16389091934E+03  0.47000000000E+01 0. -1.
         -5    1    1    2    0  502 -0.10264258455E+03  0.20062757527E+02  0.17596984228E+01  0.10470530522E+03  0.47000000000E+01 0.  1.
        -11    1    3    3    0    0  0.25074258540E+02  0.23751903110E+02 -0.12189941801E+03  0.12669782734E+03  0.00000000000E+00 0.  1.
         11    1    3    3    0    0 -0.72247163401E+02  0.20929989447E+02 -0.40085946080E+03  0.40785539642E+03  0.00000000000E+00 0. -1.
<mgrwt>
<rscale>  0 0.21550627E+03</rscale>
<asrwt>0</asrwt>
<pdfrwt beam="2">  1        1 0.10294977E+00 0.26830805E+03</pdfrwt>
<pdfrwt beam="1">  1       -1 0.20611686E-01 0.26830805E+03</pdfrwt>
<totfact> 0.58054327E+02</totfact>
</mgrwt>
</event>
<event>
 7    1  0.1254976E-005  0.1282311E+03  0.7546771E-02  0.1243897E+00
          2   -1    0    0  501    0  0.00000000000E+00  0.00000000000E+00  0.22425878428E+02  0.22425878428E+02  0.00000000000E+00 0. -1.
         -2   -1    0    0    0  501 -0.00000000000E+00 -0.00000000000E+00 -0.60751659731E+03  0.60751659731E+03  0.00000000000E+00 0.  1.
         23    2    1    2    0    0 -0.20480981694E+02 -0.19930798246E+02 -0.17134847640E+03  0.19678446139E+03  0.92450616820E+02 0.  0.
          5    1    1    2  502    0  0.18641159230E+02 -0.12879336270E+02 -0.57847133684E+01  0.23852107432E+02  0.47000000000E+01 0. -1.
         -5    1    1    2    0  502  0.18398224639E+01  0.32810134516E+02 -0.40795752912E+03  0.40930590692E+03  0.47000000000E+01 0. -1.
        -11    1    3    3    0    0  0.10433645816E+02  0.25625840762E+01  0.80071437595E+01  0.13399334063E+02  0.00000000000E+00 0. -1.
         11    1    3    3    0    0 -0.30914627510E+02 -0.22493382322E+02 -0.17935562015E+03  0.18338512732E+03  0.00000000000E+00 0.  1.
<mgrwt>
<rscale>  0 0.11951619E+03</rscale>
<asrwt>0</asrwt>
<pdfrwt beam="1">  1        2 0.34501351E-02 0.12823113E+03</pdfrwt>
<pdfrwt beam="2">  1       -2 0.93464092E-01 0.12823113E+03</pdfrwt>
<totfact> 0.24732300E+03</totfact>
</mgrwt>
</event>
<event>
 7    1  0.1254976E-005  0.2645389E+03  0.7546771E-02  0.1106396E+00
          1   -1    0    0  501    0  0.00000000000E+00  0.00000000000E+00  0.97335583685E+03  0.97335583685E+03  0.00000000000E+00 0. -1.
         -1   -1    0    0    0  501 -0.00000000000E+00 -0.00000000000E+00 -0.11554086851E+03  0.11554086851E+03  0.00000000000E+00 0.  1.
         23    2    1    2    0    0 -0.22044013507E+03 -0.75910439397E+02  0.77014859518E+03  0.81021013933E+03  0.94632781094E+02 0.  0.
          5    1    1    2  502    0  0.77144910023E+01  0.49280168848E+02  0.16547791989E+02  0.52763319009E+02  0.47000000000E+01 0.  1.
         -5    1    1    2    0  502  0.21272564407E+03  0.26630270549E+02  0.71118581178E+02  0.22592324702E+03  0.47000000000E+01 0.  1.
        -11    1    3    3    0    0 -0.16846453659E+03 -0.96247551896E+02  0.55483546115E+03  0.58778080973E+03  0.00000000000E+00 0. -1.
         11    1    3    3    0    0 -0.51975598488E+02  0.20337112499E+02  0.21531313402E+03  0.22242932960E+03  0.00000000000E+00 0.  1.
<mgrwt>
<rscale>  0 0.26124773E+03</rscale>
<asrwt>0</asrwt>
<pdfrwt beam="1">  1        1 0.14974705E+00 0.26453886E+03</pdfrwt>
<pdfrwt beam="2">  1       -1 0.17775519E-01 0.26453886E+03</pdfrwt>
<totfact> 0.41213682E+02</totfact>
</mgrwt>
</event>
<event>
 7    1  0.1254976E-005  0.1443075E+03  0.7546771E-02  0.1217452E+00
         -4   -1    0    0    0  501 -0.00000000000E+00  0.00000000000E+00  0.19669283817E+03  0.19669283817E+03  0.00000000000E+00 0.  1.
          4   -1    0    0  501    0  0.00000000000E+00 -0.00000000000E+00 -0.87340061614E+02  0.87340061614E+02  0.00000000000E+00 0. -1.
         23    2    1    2    0    0  0.62571609066E+02 -0.35841729901E+02  0.38886431311E+02  0.12343978577E+03  0.92333040179E+02 0.  0.
          5    1    1    2  502    0 -0.13991249068E+02  0.77684352844E+02  0.29691574221E+02  0.84464745942E+02  0.47000000000E+01 0. -1.
         -5    1    1    2    0  502 -0.48580359998E+02 -0.41842622944E+02  0.40774771019E+02  0.76128368063E+02  0.47000000000E+01 0. -1.
        -11    1    3    3    0    0  0.28836880378E+02  0.63376718806E+01  0.58863487586E+02  0.65853184628E+02  0.00000000000E+00 0.  1.
         11    1    3    3    0    0  0.33734728688E+02 -0.42179401781E+02 -0.19977056275E+02  0.57586601147E+02  0.00000000000E+00 0. -1.
<mgrwt>
<rscale>  0 0.13697980E+03</rscale>
<asrwt>0</asrwt>
<pdfrwt beam="2">  1        4 0.13436933E-01 0.14430746E+03</pdfrwt>
<pdfrwt beam="1">  1       -4 0.30260437E-01 0.14430746E+03</pdfrwt>
<totfact> 0.79998489E+02</totfact>
</mgrwt>
</event>
<event>
 7    1  0.1254976E-005  0.1374005E+03  0.7546771E-02  0.1228108E+00
         -1   -1    0    0    0  501 -0.00000000000E+00  0.00000000000E+00  0.21289025369E+03  0.21289025369E+03  0.00000000000E+00 0.  1.
          1   -1    0    0  501    0  0.00000000000E+00 -0.00000000000E+00 -0.71607522556E+02  0.71607522556E+02  0.00000000000E+00 0. -1.
         23    2    1    2    0    0 -0.22724834580E+02  0.52278662839E+02  0.50321313901E+02  0.11971648883E+03  0.92467974841E+02 0.  0.
          5    1    1    2  502    0  0.15450023694E+02  0.34991511375E+02  0.60907200474E+02  0.72075558756E+02  0.47000000000E+01 0. -1.
         -5    1    1    2    0  502  0.72748108861E+01 -0.87270174214E+02  0.30054216761E+02  0.92705728657E+02  0.47000000000E+01 0. -1.
        -11    1    3    3    0    0 -0.34928313213E+02  0.60407922824E+01  0.61153335579E+02  0.70683864409E+02  0.00000000000E+00 0.  1.
         11    1    3    3    0    0  0.12203478633E+02  0.46237870556E+02 -0.10832021679E+02  0.49032624425E+02  0.00000000000E+00 0. -1.
<mgrwt>
<rscale>  0 0.12956137E+03</rscale>
<asrwt>0</asrwt>
<pdfrwt beam="2">  1        1 0.11016542E-01 0.13740048E+03</pdfrwt>
<pdfrwt beam="1">  1       -1 0.32752347E-01 0.13740048E+03</pdfrwt>
<totfact> 0.47246576E+03</totfact>
</mgrwt>
</event>
<event>
 7    1  0.1254976E-005  0.1224773E+03  0.7546771E-02  0.1253610E+00
         -2   -1    0    0    0  501 -0.00000000000E+00  0.00000000000E+00  0.58512594466E+02  0.58512594466E+02  0.00000000000E+00 0.  1.
          2   -1    0    0  501    0  0.00000000000E+00 -0.00000000000E+00 -0.19584724372E+03  0.19584724372E+03  0.00000000000E+00 0. -1.
         23    2    1    2    0    0 -0.33494937960E+02  0.10375174101E+02 -0.53429714045E+02  0.10589860734E+03  0.84440663119E+02 0.  0.
          5    1    1    2  502    0 -0.51548228336E+01 -0.26008497392E+02 -0.99971302473E+02  0.10353436846E+03  0.47000000000E+01 0. -1.
         -5    1    1    2    0  502  0.38649760793E+02  0.15633323291E+02  0.16066367261E+02  0.44926862382E+02  0.47000000000E+01 0.  1.
        -11    1    3    3    0    0 -0.32796099740E+02  0.34075400813E+02 -0.64296075438E+02  0.79816680058E+02  0.00000000000E+00 0.  1.
         11    1    3    3    0    0 -0.69883821946E+00 -0.23700226712E+02  0.10866361393E+02  0.26081927287E+02  0.00000000000E+00 0. -1.
<mgrwt>
<rscale>  0 0.11384558E+03</rscale>
<asrwt>0</asrwt>
<pdfrwt beam="2">  1        2 0.30130345E-01 0.12247734E+03</pdfrwt>
<pdfrwt beam="1">  1       -2 0.90019378E-02 0.12247734E+03</pdfrwt>
<totfact> 0.12738621E+04</totfact>
</mgrwt>
</event>
<event>
 7    1  0.1254976E-005  0.1558993E+03  0.7546771E-02  0.1202311E+00
          2   -1    0    0  501    0  0.00000000000E+00  0.00000000000E+00  0.63194012214E+03  0.63194012214E+03  0.00000000000E+00 0. -1.
         -2   -1    0    0    0  501 -0.00000000000E+00 -0.00000000000E+00 -0.32155863305E+02  0.32155863305E+02  0.00000000000E+00 0.  1.
         23    2    1    2    0    0  0.86311707900E+01 -0.92761377751E+02  0.24613516521E+03  0.27760890172E+03  0.88345981540E+02 0.  0.
          5    1    1    2  502    0 -0.34518967339E+02  0.10601412630E+03  0.19114948230E+03  0.22133858377E+03  0.47000000000E+01 0. -1.
         -5    1    1    2    0  502  0.25887796549E+02 -0.13252748551E+02  0.16249961132E+03  0.16514849995E+03  0.47000000000E+01 0. -1.
        -11    1    3    3    0    0 -0.18934611294E+02  0.71331919260E+01  0.18166978656E+02  0.27192665287E+02  0.00000000000E+00 0. -1.
         11    1    3    3    0    0  0.27565782084E+02 -0.99894569677E+02  0.22796818655E+03  0.25041623644E+03  0.00000000000E+00 0.  1.
<mgrwt>
<rscale>  0 0.14851369E+03</rscale>
<asrwt>0</asrwt>
<pdfrwt beam="1">  1        2 0.97221548E-01 0.15589928E+03</pdfrwt>
<pdfrwt beam="2">  1       -2 0.49470564E-02 0.15589928E+03</pdfrwt>
<totfact> 0.91203882E+03</totfact>
</mgrwt>
</event>
<event>
 7    1  0.1254976E-005  0.1331091E+03  0.7546771E-02  0.1233597E+00
          2   -1    0    0  501    0  0.00000000000E+00  0.00000000000E+00  0.22706045481E+03  0.22706045481E+03  0.00000000000E+00 0. -1.
         -2   -1    0    0    0  501 -0.00000000000E+00 -0.00000000000E+00 -0.63546507255E+02  0.63546507255E+02  0.00000000000E+00 0.  1.
         23    2    1    2    0    0 -0.45476211527E+02  0.48712328792E+01  0.64036305452E+02  0.12443285472E+03  0.96390207970E+02 0.  0.
          5    1    1    2  502    0 -0.15444562717E+02  0.60270316232E+01 -0.23075984693E+02  0.28800185716E+02  0.47000000000E+01 0.  1.
         -5    1    1    2    0  502  0.60920774243E+02 -0.10898264502E+02  0.12255362680E+03  0.13737392163E+03  0.47000000000E+01 0.  1.
        -11    1    3    3    0    0 -0.20407407820E+02  0.52478049163E+01 -0.24558249689E+02  0.32359069488E+02  0.00000000000E+00 0.  1.
         11    1    3    3    0    0 -0.25068803707E+02 -0.37657203705E+00  0.88594555141E+02  0.92073785229E+02  0.00000000000E+00 0. -1.
<mgrwt>
<rscale>  0 0.12594687E+03</rscale>
<asrwt>0</asrwt>
<pdfrwt beam="1">  1        2 0.34932377E-01 0.13310910E+03</pdfrwt>
<pdfrwt beam="2">  1       -2 0.97763859E-02 0.13310910E+03</pdfrwt>
<totfact> 0.96194255E+03</totfact>
</mgrwt>
</event>
<event>
 7    1  0.1254976E-005  0.1319243E+03  0.7546771E-02  0.1238333E+00
          1   -1    0    0  501    0  0.00000000000E+00  0.00000000000E+00  0.59586213890E+03  0.59586213890E+03  0.00000000000E+00 0. -1.
         -1   -1    0    0    0  501 -0.00000000000E+00 -0.00000000000E+00 -0.22638104486E+02  0.22638104486E+02  0.00000000000E+00 0.  1.
         23    2    1    2    0    0  0.21092524557E+02 -0.36518929557E+02  0.27344195189E+03  0.29097419162E+03  0.90094130359E+02 0.  0.
          5    1    1    2  502    0 -0.45229728995E+02  0.32182671948E+02  0.45247507660E+02  0.71769629427E+02  0.47000000000E+01 0.  1.
         -5    1    1    2    0  502  0.24137204438E+02  0.43362576084E+01  0.25453457487E+03  0.25575642235E+03  0.47000000000E+01 0.  1.
        -11    1    3    3    0    0 -0.24310869853E+02 -0.32405225771E+02  0.57907660255E+02  0.70671169273E+02  0.00000000000E+00 0.  1.
         11    1    3    3    0    0  0.45403394409E+02 -0.41137037857E+01  0.21553429164E+03  0.22030302234E+03  0.00000000000E+00 0. -1.
<mgrwt>
<rscale>  0 0.12293433E+03</rscale>
<asrwt>0</asrwt>
<pdfrwt beam="1">  1        1 0.91671086E-01 0.13192429E+03</pdfrwt>
<pdfrwt beam="2">  1       -1 0.34827858E-02 0.13192429E+03</pdfrwt>
<totfact> 0.10229993E+04</totfact>
</mgrwt>
</event>
<event>
 7    1  0.1254976E-005  0.1357776E+03  0.7546771E-02  0.1235237E+00
          1   -1    0    0  501    0  0.00000000000E+00  0.00000000000E+00  0.86249470914E+02  0.86249470914E+02  0.00000000000E+00 0. -1.
         -1   -1    0    0    0  501 -0.00000000000E+00 -0.00000000000E+00 -0.15761952895E+03  0.15761952895E+03  0.00000000000E+00 0.  1.
         23    2    1    2    0    0 -0.36306773902E+01 -0.52865032354E+02 -0.34939230559E+02  0.10328887303E+03  0.81485876049E+02 0.  0.
          5    1    1    2  502    0 -0.13455710680E+02  0.62555273471E+02 -0.73991216080E+02  0.97933694130E+02  0.47000000000E+01 0.  1.
         -5    1    1    2    0  502  0.17086388071E+02 -0.96902411175E+01  0.37560388604E+02  0.42646432703E+02  0.47000000000E+01 0.  1.
        -11    1    3    3    0    0  0.19177915668E+02  0.72763277158E+01 -0.33101326766E+02  0.38941433308E+02  0.00000000000E+00 0.  1.
         11    1    3    3    0    0 -0.22808593058E+02 -0.60141360069E+02 -0.18379037924E+01  0.64347439721E+02  0.00000000000E+00 0. -1.
<mgrwt>
<rscale>  0 0.12489290E+03</rscale>
<asrwt>0</asrwt>
<pdfrwt beam="1">  1        1 0.13269149E-01 0.13577764E+03</pdfrwt>
<pdfrwt beam="2">  1       -1 0.24249158E-01 0.13577764E+03</pdfrwt>
<totfact> 0.61053289E+03</totfact>
</mgrwt>
</event>
<event>
 7    1  0.1254976E-005  0.3143760E+03  0.7546771E-02  0.1079648E+00
         -2   -1    0    0    0  501 -0.00000000000E+00  0.00000000000E+00  0.96889016837E+02  0.96889016837E+02  0.00000000000E+00 0.  1.
          2   -1    0    0  501    0  0.00000000000E+00 -0.00000000000E+00 -0.12789387806E+04  0.12789387806E+04  0.00000000000E+00 0. -1.
         23    2    1    2    0    0  0.17113577499E+03 -0.23220848073E+03 -0.91338267784E+03  0.96228905206E+03  0.92325898524E+02 0.  0.
          5    1    1    2  502    0 -0.14356492704E+03  0.12079898927E+03 -0.10962896011E+03  0.21735658025E+03  0.47000000000E+01 0.  1.
         -5    1    1    2    0  502 -0.27570847957E+02  0.11140949146E+03 -0.15903812578E+03  0.19618216508E+03  0.47000000000E+01 0.  1.
        -11    1    3    3    0    0  0.89213169255E+02 -0.53218315288E+02 -0.26309303545E+03  0.28285884104E+03  0.00000000000E+00 0. -1.
         11    1    3    3    0    0  0.81922605739E+02 -0.17899016545E+03 -0.65028964239E+03  0.67943021102E+03  0.00000000000E+00 0.  1.
<mgrwt>
<rscale>  0 0.31146006E+03</rscale>
<asrwt>0</asrwt>
<pdfrwt beam="2">  1        2 0.19675980E+00 0.31437603E+03</pdfrwt>
<pdfrwt beam="1">  1       -2 0.14906003E-01 0.31437603E+03</pdfrwt>
<totfact> 0.62352511E+02</totfact>
</mgrwt>
</event>
<event>
 7    1  0.1254976E-005  0.1684588E+03  0.7546771E-02  0.1186830E+00
         -2   -1    0    0    0  501 -0.00000000000E+00  0.00000000000E+00  0.19791219554E+03  0.19791219554E+03  0.00000000000E+00 0.  1.
          2   -1    0    0  501    0  0.00000000000E+00 -0.00000000000E+00 -0.12653886436E+03  0.12653886436E+03  0.00000000000E+00 0. -1.
         23    2    1    2    0    0 -0.74592275125E+02  0.84789658272E+02  0.37637542659E+01  0.14293132957E+03  0.87532310996E+02 0.  0.
          5    1    1    2  502    0  0.17201610658E+02 -0.70027463461E+02 -0.20607556873E+02  0.75143212922E+02  0.47000000000E+01 0. -1.
         -5    1    1    2    0  502  0.57390664467E+02 -0.14762194811E+02  0.88217133778E+02  0.10637651741E+03  0.47000000000E+01 0. -1.
        -11    1    3    3    0    0  0.10136245319E+02  0.40839581322E+02  0.19182611554E+02  0.46244864123E+02  0.00000000000E+00 0.  1.
         11    1    3    3    0    0 -0.84728520444E+02  0.43950076951E+02 -0.15418857289E+02  0.96686465448E+02  0.00000000000E+00 0. -1.
<mgrwt>
<rscale>  0 0.16166441E+03</rscale>
<asrwt>0</asrwt>
<pdfrwt beam="2">  1        2 0.19467518E-01 0.16845877E+03</pdfrwt>
<pdfrwt beam="1">  1       -2 0.30448030E-01 0.16845877E+03</pdfrwt>
<totfact> 0.27810891E+03</totfact>
</mgrwt>
</event>
<event>
 7    1  0.1254976E-005  0.1513104E+03  0.7546771E-02  0.1208112E+00
         -3   -1    0    0    0  501 -0.00000000000E+00  0.00000000000E+00  0.29016624015E+03  0.29016624015E+03  0.00000000000E+00 0.  1.
          3   -1    0    0  501    0  0.00000000000E+00 -0.00000000000E+00 -0.70539094135E+02  0.70539094135E+02  0.00000000000E+00 0. -1.
         23    2    1    2    0    0  0.82454091947E+02  0.21698032961E+02  0.50678106697E+02  0.13390452971E+03  0.89959272254E+02 0.  0.
          5    1    1    2  502    0 -0.60545028961E+02 -0.65976572928E+02  0.62349344370E+02  0.10921602195E+03  0.47000000000E+01 0. -1.
         -5    1    1    2    0  502 -0.21909062987E+02  0.44278539967E+02  0.10659969495E+03  0.11758478263E+03  0.47000000000E+01 0. -1.
        -11    1    3    3    0    0  0.48318009372E+02 -0.31668914401E+02  0.10033284994E+02  0.58636311077E+02  0.00000000000E+00 0. -1.
         11    1    3    3    0    0  0.34136082576E+02  0.53366947362E+02  0.40644821703E+02  0.75268218629E+02  0.00000000000E+00 0.  1.
<mgrwt>
<rscale>  0 0.14394879E+03</rscale>
<asrwt>0</asrwt>
<pdfrwt beam="2">  1        3 0.10852169E-01 0.15131037E+03</pdfrwt>
<pdfrwt beam="1">  1       -3 0.44640959E-01 0.15131037E+03</pdfrwt>
<totfact> 0.75718730E+02</totfact>
</mgrwt>
</event>
<event>
 7    1  0.1254976E-005  0.1827779E+03  0.7546771E-02  0.1170370E+00
          1   -1    0    0  501    0  0.00000000000E+00  0.00000000000E+00  0.20772319502E+03  0.20772319502E+03  0.00000000000E+00 0. -1.
         -1   -1    0    0    0  501 -0.00000000000E+00 -0.00000000000E+00 -0.14322856485E+03  0.14322856485E+03  0.00000000000E+00 0.  1.
         23    2    1    2    0    0 -0.90208304268E+02 -0.98202618276E+02  0.26091588379E+02  0.16418305172E+03  0.92162959442E+02 0.  0.
          5    1    1    2  502    0  0.80367495908E+02  0.12179171785E+03  0.54913067337E+02  0.15597978042E+03  0.47000000000E+01 0. -1.
         -5    1    1    2    0  502  0.98408083602E+01 -0.23589099570E+02 -0.16510025541E+02  0.30788927735E+02  0.47000000000E+01 0. -1.
        -11    1    3    3    0    0 -0.27308655251E+02 -0.83011478014E+01  0.44561306918E+02  0.52918633586E+02  0.00000000000E+00 0. -1.
         11    1    3    3    0    0 -0.62899649017E+02 -0.89901470475E+02 -0.18469718539E+02  0.11126441814E+03  0.00000000000E+00 0.  1.
<mgrwt>
<rscale>  0 0.17737247E+03</rscale>
<asrwt>0</asrwt>
<pdfrwt beam="1">  1        1 0.31957415E-01 0.18277789E+03</pdfrwt>
<pdfrwt beam="2">  1       -1 0.22035164E-01 0.18277789E+03</pdfrwt>
<totfact> 0.23630024E+03</totfact>
</mgrwt>
</event>
<event>
 7    1  0.1254976E-005  0.1708216E+03  0.7546771E-02  0.1183349E+00
         -1   -1    0    0    0  501 -0.00000000000E+00  0.00000000000E+00  0.12174538788E+03  0.12174538788E+03  0.00000000000E+00 0.  1.
          1   -1    0    0  501    0  0.00000000000E+00 -0.00000000000E+00 -0.23886580524E+03  0.23886580524E+03  0.00000000000E+00 0. -1.
         23    2    1    2    0    0  0.11640348668E+03  0.22540875409E+01 -0.11869102687E+03  0.18978236734E+03  0.91514668075E+02 0.  0.
          5    1    1    2  502    0 -0.92698823481E+02 -0.58204233871E+02 -0.39843774408E+01  0.10963015087E+03  0.47000000000E+01 0.  1.
         -5    1    1    2    0  502 -0.23704663199E+02  0.55950146330E+02  0.55549869496E+01  0.61198674919E+02  0.47000000000E+01 0.  1.
        -11    1    3    3    0    0  0.88136993800E+02 -0.35348018204E+02 -0.10323221278E+03  0.14026582557E+03  0.00000000000E+00 0. -1.
         11    1    3    3    0    0  0.28266492880E+02  0.37602105745E+02 -0.15458814090E+02  0.49516541774E+02  0.00000000000E+00 0.  1.
<mgrwt>
<rscale>  0 0.16483005E+03</rscale>
<asrwt>0</asrwt>
<pdfrwt beam="2">  1        1 0.36748585E-01 0.17082161E+03</pdfrwt>
<pdfrwt beam="1">  1       -1 0.18730060E-01 0.17082161E+03</pdfrwt>
<totfact> 0.25755503E+03</totfact>
</mgrwt>
</event>
<event>
 7    1  0.1254976E-005  0.1744638E+03  0.7546771E-02  0.1186706E+00
         -1   -1    0    0    0  501 -0.00000000000E+00  0.00000000000E+00  0.94369487474E+02  0.94369487474E+02  0.00000000000E+00 0.  1.
          1   -1    0    0  501    0  0.00000000000E+00 -0.00000000000E+00 -0.27212554215E+03  0.27212554215E+03  0.00000000000E+00 0. -1.
         23    2    1    2    0    0  0.46274840929E+02  0.78725188547E+02 -0.13531829891E+03  0.18694397299E+03  0.91093308210E+02 0.  0.
          5    1    1    2  502    0 -0.87574356000E+02 -0.56673012725E+02  0.14792554277E+02  0.10546093050E+03  0.47000000000E+01 0. -1.
         -5    1    1    2    0  502  0.41299515070E+02 -0.22052175822E+02 -0.57230310035E+02  0.74090126131E+02  0.47000000000E+01 0.  1.
        -11    1    3    3    0    0  0.28114859991E+02  0.93732748807E+02 -0.13013264897E+03  0.16282131273E+03  0.00000000000E+00 0. -1.
         11    1    3    3    0    0  0.18159980938E+02 -0.15007560260E+02 -0.51856499472E+01  0.24122660260E+02  0.00000000000E+00 0.  1.
<mgrwt>
<rscale>  0 0.16177574E+03</rscale>
<asrwt>0</asrwt>
<pdfrwt beam="2">  1        1 0.41865467E-01 0.17446380E+03</pdfrwt>
<pdfrwt beam="1">  1       -1 0.14518383E-01 0.17446380E+03</pdfrwt>
<totfact> 0.32842618E+03</totfact>
</mgrwt>
</event>
<event>
 7    1  0.1254976E-005  0.1399740E+03  0.7546771E-02  0.1224752E+00
         -2   -1    0    0    0  501 -0.00000000000E+00  0.00000000000E+00  0.16277753145E+02  0.16277753145E+02  0.00000000000E+00 0.  1.
          2   -1    0    0  501    0  0.00000000000E+00 -0.00000000000E+00 -0.98717828804E+03  0.98717828804E+03  0.00000000000E+00 0. -1.
         23    2    1    2    0    0 -0.53448464178E+02 -0.33328818710E+02 -0.51035130049E+03  0.52210552245E+03  0.90377974008E+02 0.  0.
          5    1    1    2  502    0  0.18169816227E+02 -0.47650321393E+02 -0.15381285794E+03  0.16211471438E+03  0.47000000000E+01 0.  1.
         -5    1    1    2    0  502  0.35278647951E+02  0.80979140103E+02 -0.30673637646E+03  0.31923580435E+03  0.47000000000E+01 0.  1.
        -11    1    3    3    0    0  0.10735000072E+02  0.22562503804E+02 -0.12369573306E+03  0.12619406160E+03  0.00000000000E+00 0. -1.
         11    1    3    3    0    0 -0.64183464250E+02 -0.55891322514E+02 -0.38665556743E+03  0.39591146086E+03  0.00000000000E+00 0.  1.
<mgrwt>
<rscale>  0 0.13183897E+03</rscale>
<asrwt>0</asrwt>
<pdfrwt beam="2">  1        2 0.15187356E+00 0.13997401E+03</pdfrwt>
<pdfrwt beam="1">  1       -2 0.25042701E-02 0.13997401E+03</pdfrwt>
<totfact> 0.14235539E+04</totfact>
</mgrwt>
</event>
<event>
 7    1  0.1254976E-005  0.2493069E+03  0.7546771E-02  0.1113744E+00
          2   -1    0    0  501    0  0.00000000000E+00  0.00000000000E+00  0.37997888630E+03  0.37997888630E+03  0.00000000000E+00 0. -1.
         -2   -1    0    0    0  501 -0.00000000000E+00 -0.00000000000E+00 -0.40893001555E+02  0.40893001555E+02  0.00000000000E+00 0.  1.
         23    2    1    2    0    0  0.10588375057E+02 -0.13406594356E+02  0.15599821610E+03  0.18164759855E+03  0.91479812926E+02 0.  0.
          5    1    1    2  502    0  0.55711439150E+02 -0.50340316648E+01  0.15481472371E+03  0.16467785098E+03  0.47000000000E+01 0. -1.
         -5    1    1    2    0  502 -0.66299814208E+02  0.18440626021E+02  0.28272944938E+02  0.74546438329E+02  0.47000000000E+01 0.  1.
        -11    1    3    3    0    0 -0.30034401040E+02 -0.10300222278E+02  0.15445049279E+02  0.35308771885E+02  0.00000000000E+00 0.  1.
         11    1    3    3    0    0  0.40622776098E+02 -0.31063720784E+01  0.14055316682E+03  0.14633882666E+03  0.00000000000E+00 0. -1.
<mgrwt>
<rscale>  0 0.24930686E+03</rscale>
<asrwt>0</asrwt>
<pdfrwt beam="1">  1        2 0.58458288E-01 0.24930686E+03</pdfrwt>
<pdfrwt beam="2">  1       -2 0.62912313E-02 0.24930686E+03</pdfrwt>
<totfact> 0.11464842E+04</totfact>
</mgrwt>
</event>
<event>
 7    1  0.1254976E-005  0.1309030E+03  0.7546771E-02  0.1240729E+00
         -1   -1    0    0    0  501 -0.00000000000E+00  0.00000000000E+00  0.26996043844E+02  0.26996043844E+02  0.00000000000E+00 0.  1.
          1   -1    0    0  501    0  0.00000000000E+00 -0.00000000000E+00 -0.48479106578E+03  0.48479106578E+03  0.00000000000E+00 0. -1.
         23    2    1    2    0    0  0.26352355580E+02  0.28658207024E+02 -0.21770588044E+03  0.23833072210E+03  0.88825352490E+02 0.  0.
          5    1    1    2  502    0 -0.20158347091E+02  0.63797561716E+01 -0.23638518342E+03  0.23737545195E+03  0.47000000000E+01 0.  1.
         -5    1    1    2    0  502 -0.61940084888E+01 -0.35037963196E+02 -0.37039580682E+01  0.36080935568E+02  0.47000000000E+01 0.  1.
        -11    1    3    3    0    0 -0.28905039841E+01  0.50498153088E+02 -0.17494996795E+03  0.18211510032E+03  0.00000000000E+00 0.  1.
         11    1    3    3    0    0  0.29242859564E+02 -0.21839946064E+02 -0.42755912489E+02  0.56215621782E+02  0.00000000000E+00 0. -1.
<mgrwt>
<rscale>  0 0.12144679E+03</rscale>
<asrwt>0</asrwt>
<pdfrwt beam="2">  1        1 0.74583245E-01 0.13090302E+03</pdfrwt>
<pdfrwt beam="1">  1       -1 0.41532373E-02 0.13090302E+03</pdfrwt>
<totfact> 0.10380837E+04</totfact>
</mgrwt>
</event>
<event>
 7    1  0.1254976E-005  0.2275811E+03  0.7546771E-02  0.1128354E+00
          1   -1    0    0  501    0  0.00000000000E+00  0.00000000000E+00  0.25632166501E+03  0.25632166501E+03  0.00000000000E+00 0. -1.
         -1   -1    0    0    0  501 -0.00000000000E+00 -0.00000000000E+00 -0.50515791309E+02  0.50515791309E+02  0.00000000000E+00 0.  1.
         23    2    1    2    0    0 -0.14444735237E+02 -0.24938242351E+00  0.10995305029E+03  0.14864063683E+03  0.98972991672E+02 0.  0.
          5    1    1    2  502    0  0.68330511665E+02  0.89244523431E+01  0.39332369624E+02  0.79484778255E+02  0.47000000000E+01 0. -1.
         -5    1    1    2    0  502 -0.53885776428E+02 -0.86750699196E+01  0.56520453780E+02  0.78712041232E+02  0.47000000000E+01 0. -1.
        -11    1    3    3    0    0  0.20931530299E+02  0.32531266251E+02  0.13802494887E+02  0.41072145179E+02  0.00000000000E+00 0.  1.
         11    1    3    3    0    0 -0.35376265536E+02 -0.32780648674E+02  0.96150555407E+02  0.10756849165E+03  0.00000000000E+00 0. -1.
<mgrwt>
<rscale>  0 0.22758112E+03</rscale>
<asrwt>0</asrwt>
<pdfrwt beam="1">  1        1 0.39434102E-01 0.22758112E+03</pdfrwt>
<pdfrwt beam="2">  1       -1 0.77716603E-02 0.22758112E+03</pdfrwt>
<totfact> 0.94386122E+03</totfact>
</mgrwt>
</event>
<event>
 7    1  0.1254976E-005  0.1924409E+03  0.7546771E-02  0.1160930E+00
         -2   -1    0    0    0  501 -0.00000000000E+00  0.00000000000E+00  0.48070747845E+02  0.48070747845E+02  0.00000000000E+00 0.  1.
          2   -1    0    0  501    0  0.00000000000E+00 -0.00000000000E+00 -0.86489767053E+03  0.86489767053E+03  0.00000000000E+00 0. -1.
         23    2    1    2    0    0  0.13901531625E+03 -0.45645398690E+02 -0.59382091684E+03  0.61840912760E+03  0.91639550681E+02 0.  0.
          5    1    1    2  502    0 -0.79510162718E+02  0.69082568415E+02 -0.64563848558E+02  0.12363190436E+03  0.47000000000E+01 0.  1.
         -5    1    1    2    0  502 -0.59505153533E+02 -0.23437169725E+02 -0.15844215729E+03  0.17092738642E+03  0.47000000000E+01 0.  1.
        -11    1    3    3    0    0  0.63703360397E+02  0.25706449995E+02 -0.25150740607E+03  0.26071999349E+03  0.00000000000E+00 0.  1.
         11    1    3    3    0    0  0.75311955854E+02 -0.71351848685E+02 -0.34231351077E+03  0.35768913411E+03  0.00000000000E+00 0. -1.
<mgrwt>
<rscale>  0 0.18728889E+03</rscale>
<asrwt>0</asrwt>
<pdfrwt beam="2">  1        2 0.13306117E+00 0.19244089E+03</pdfrwt>
<pdfrwt beam="1">  1       -2 0.73955003E-02 0.19244089E+03</pdfrwt>
<totfact> 0.33923480E+03</totfact>
</mgrwt>
</event>
<event>
 7    1  0.1254976E-005  0.1279804E+03  0.7546771E-02  0.1240216E+00
          2   -1    0    0  501    0  0.00000000000E+00  0.00000000000E+00  0.20951182303E+03  0.20951182303E+03  0.00000000000E+00 0. -1.
         -2   -1    0    0    0  501 -0.00000000000E+00 -0.00000000000E+00 -0.64996573748E+02  0.64996573748E+02  0.00000000000E+00 0.  1.
         23    2    1    2    0    0 -0.22808500173E+01  0.27387471845E+02  0.74415931963E+02  0.12858755668E+03  0.10120154600E+03 0.  0.
          5    1    1    2  502    0 -0.63996799853E+01  0.45280471991E+02  0.22714713464E+01  0.46027455173E+02  0.47000000000E+01 0.  1.
         -5    1    1    2    0  502  0.86805300025E+01 -0.72667943836E+02  0.67827845969E+02  0.99893384922E+02  0.47000000000E+01 0.  1.
        -11    1    3    3    0    0  0.78278712706E+01 -0.32666152753E+02  0.55401772142E+02  0.64789732680E+02  0.00000000000E+00 0. -1.
         11    1    3    3    0    0 -0.10108721288E+02  0.60053624598E+02  0.19014159821E+02  0.63797824000E+02  0.00000000000E+00 0.  1.
<mgrwt>
<rscale>  0 0.12176346E+03</rscale>
<asrwt>0</asrwt>
<pdfrwt beam="1">  1        2 0.32232588E-01 0.12798038E+03</pdfrwt>
<pdfrwt beam="2">  1       -2 0.99994730E-02 0.12798038E+03</pdfrwt>
<totfact> 0.10090355E+04</totfact>
</mgrwt>
</event>
<event>
 7    1  0.1254976E-005  0.1144730E+03  0.7546771E-02  0.1263863E+00
          1   -1    0    0  501    0  0.00000000000E+00  0.00000000000E+00  0.36508645699E+03  0.36508645699E+03  0.00000000000E+00 0. -1.
         -1   -1    0    0    0  501 -0.00000000000E+00 -0.00000000000E+00 -0.31442345426E+02  0.31442345426E+02  0.00000000000E+00 0.  1.
         23    2    1    2    0    0  0.48481027033E+01 -0.89855117318E+01  0.20397466890E+03  0.22355990087E+03  0.90934702972E+02 0.  0.
          5    1    1    2  502    0 -0.32273975299E+02  0.37677172946E+02  0.12265239301E+03  0.13238911721E+03  0.47000000000E+01 0. -1.
         -5    1    1    2    0  502  0.27425872596E+02 -0.28691661214E+02  0.70170496505E+01  0.40579784335E+02  0.47000000000E+01 0.  1.
        -11    1    3    3    0    0  0.23805829852E+02  0.33083607524E+02  0.61336929678E+02  0.73644154989E+02  0.00000000000E+00 0.  1.
         11    1    3    3    0    0 -0.18957727149E+02 -0.42069119256E+02  0.14263773922E+03  0.14991574588E+03  0.00000000000E+00 0. -1.
<mgrwt>
<rscale>  0 0.10824053E+03</rscale>
<asrwt>0</asrwt>
<pdfrwt beam="1">  1        1 0.56167144E-01 0.11447304E+03</pdfrwt>
<pdfrwt beam="2">  1       -1 0.48372842E-02 0.11447304E+03</pdfrwt>
<totfact> 0.11755277E+04</totfact>
</mgrwt>
</event>
<event>
 7    1  0.1254976E-005  0.1277352E+03  0.7546771E-02  0.1236573E+00
          2   -1    0    0  501    0  0.00000000000E+00  0.00000000000E+00  0.62781629130E+02  0.62781629130E+02  0.00000000000E+00 0. -1.
         -2   -1    0    0    0  501 -0.00000000000E+00 -0.00000000000E+00 -0.25458538457E+03  0.25458538457E+03  0.00000000000E+00 0.  1.
         23    2    1    2    0    0  0.22764016496E+02  0.13187705745E+02 -0.43503615049E+02  0.12163963167E+03  0.11050574392E+03 0.  0.
          5    1    1    2  502    0 -0.32349017388E+02 -0.34402197828E+02 -0.19850050325E+01  0.47497372415E+02  0.47000000000E+01 0.  1.
         -5    1    1    2    0  502  0.95850008921E+01  0.21214492083E+02 -0.14631513536E+03  0.14823000962E+03  0.47000000000E+01 0.  1.
        -11    1    3    3    0    0  0.31171957237E+02 -0.18793803794E+02  0.25958892009E+02  0.44707516743E+02  0.00000000000E+00 0. -1.
         11    1    3    3    0    0 -0.84079407411E+01  0.31981509539E+02 -0.69462507058E+02  0.76932114924E+02  0.00000000000E+00 0.  1.
<mgrwt>
<rscale>  0 0.12404290E+03</rscale>
<asrwt>0</asrwt>
<pdfrwt beam="1">  1        2 0.96587123E-02 0.12773518E+03</pdfrwt>
<pdfrwt beam="2">  1       -2 0.39166982E-01 0.12773518E+03</pdfrwt>
<totfact> 0.39491835E+03</totfact>
</mgrwt>
</event>
<event>
 7    1  0.1254976E-005  0.1257761E+03  0.7546771E-02  0.1249381E+00
          1   -1    0    0  501    0  0.00000000000E+00  0.00000000000E+00  0.76985764357E+02  0.76985764357E+02  0.00000000000E+00 0. -1.
         -1   -1    0    0    0  501 -0.00000000000E+00 -0.00000000000E+00 -0.16117766116E+03  0.16117766116E+03  0.00000000000E+00 0.  1.
         23    2    1    2    0    0  0.45933474894E+01 -0.13131901498E+02 -0.10647849796E+02  0.92463915510E+02  0.90789059297E+02 0.  0.
          5    1    1    2  502    0 -0.23017843351E+02 -0.18391856694E+02 -0.97376152419E+02  0.10184442334E+03  0.47000000000E+01 0. -1.
         -5    1    1    2    0  502  0.18424495862E+02  0.31523758192E+02  0.23832105412E+02  0.43855086668E+02  0.47000000000E+01 0. -1.
        -11    1    3    3    0    0  0.95487956599E+01  0.14540997065E+02  0.34867583463E+02  0.38966247840E+02  0.00000000000E+00 0. -1.
         11    1    3    3    0    0 -0.49554481705E+01 -0.27672898563E+02 -0.45515433258E+02  0.53497667670E+02  0.00000000000E+00 0.  1.
<mgrwt>
<rscale>  0 0.11626979E+03</rscale>
<asrwt>0</asrwt>
<pdfrwt beam="1">  1        1 0.11843964E-01 0.12577607E+03</pdfrwt>
<pdfrwt beam="2">  1       -1 0.24796563E-01 0.12577607E+03</pdfrwt>
<totfact> 0.67908892E+03</totfact>
</mgrwt>
</event>
<event>
 7    1  0.1254976E-005  0.1573905E+03  0.7546771E-02  0.1197467E+00
          2   -1    0    0  501    0  0.00000000000E+00  0.00000000000E+00  0.33157330448E+03  0.33157330448E+03  0.00000000000E+00 0. -1.
         -2   -1    0    0    0  501 -0.00000000000E+00 -0.00000000000E+00 -0.71122316329E+02  0.71122316329E+02  0.00000000000E+00 0.  1.
         23    2    1    2    0    0  0.91916924773E+02  0.26440104679E+02  0.17614075599E+03  0.22414591779E+03  0.10033955524E+03 0.  0.
          5    1    1    2  502    0 -0.91346050032E+02  0.18882459962E+02  0.93398169366E+02  0.13208314121E+03  0.47000000000E+01 0. -1.
         -5    1    1    2    0  502 -0.57087474130E+00 -0.45322564642E+02 -0.90879372067E+01  0.46466561809E+02  0.47000000000E+01 0. -1.
        -11    1    3    3    0    0 -0.92222002589E+01 -0.21830414892E+02  0.50517474415E+02  0.55799921266E+02  0.00000000000E+00 0. -1.
         11    1    3    3    0    0  0.10113912503E+03  0.48270519572E+02  0.12562328158E+03  0.16834599653E+03  0.00000000000E+00 0.  1.
<mgrwt>
<rscale>  0 0.15247244E+03</rscale>
<asrwt>0</asrwt>
<pdfrwt beam="1">  1        2 0.51011277E-01 0.15739054E+03</pdfrwt>
<pdfrwt beam="2">  1       -2 0.10941895E-01 0.15739054E+03</pdfrwt>
<totfact> 0.54402866E+03</totfact>
</mgrwt>
</event>
<event>
 7    1  0.1254976E-005  0.1553458E+03  0.7546771E-02  0.1202380E+00
          2   -1    0    0  501    0  0.00000000000E+00  0.00000000000E+00  0.63939131060E+02  0.63939131060E+02  0.00000000000E+00 0. -1.
         -2   -1    0    0    0  501 -0.00000000000E+00 -0.00000000000E+00 -0.42177040717E+03  0.42177040717E+03  0.00000000000E+00 0.  1.
         23    2    1    2    0    0  0.86030926633E+02 -0.33305393375E+02 -0.46308144159E+02  0.13760181102E+03  0.90990354525E+02 0.  0.
          5    1    1    2  502    0 -0.20427433420E+02 -0.26214500842E+02 -0.11870985460E+02  0.35601831221E+02  0.47000000000E+01 0. -1.
         -5    1    1    2    0  502 -0.65603493213E+02  0.59519894216E+02 -0.29965214649E+03  0.31250589598E+03  0.47000000000E+01 0. -1.
        -11    1    3    3    0    0 -0.58650151364E+01 -0.33842613011E+02 -0.27021622677E+02  0.43702276257E+02  0.00000000000E+00 0. -1.
         11    1    3    3    0    0  0.91895941769E+02  0.53721963642E+00 -0.19286521482E+02  0.93899534767E+02  0.00000000000E+00 0.  1.
<mgrwt>
<rscale>  0 0.14845863E+03</rscale>
<asrwt>0</asrwt>
<pdfrwt beam="1">  1        2 0.98367893E-02 0.15534583E+03</pdfrwt>
<pdfrwt beam="2">  1       -2 0.64887756E-01 0.15534583E+03</pdfrwt>
<totfact> 0.14335372E+03</totfact>
</mgrwt>
</event>
<event>
 7    1  0.1254976E-005  0.1409913E+03  0.7546771E-02  0.1226094E+00
          2   -1    0    0  501    0  0.00000000000E+00  0.00000000000E+00  0.19690964468E+03  0.19690964468E+03  0.00000000000E+00 0. -1.
         -2   -1    0    0    0  501 -0.00000000000E+00 -0.00000000000E+00 -0.82846891327E+02  0.82846891327E+02  0.00000000000E+00 0.  1.
         23    2    1    2    0    0  0.45150385938E+02 -0.47061275717E+02  0.86921133666E+02  0.13617654602E+03  0.82069770232E+02 0.  0.
          5    1    1    2  502    0 -0.23392951505E+02  0.72565098022E+02 -0.25898335498E+02  0.80658151557E+02  0.47000000000E+01 0.  1.
         -5    1    1    2    0  502 -0.21757434434E+02 -0.25503822305E+02  0.53039955187E+02  0.62921838431E+02  0.47000000000E+01 0.  1.
        -11    1    3    3    0    0  0.25396083819E+02  0.20418561131E+02  0.40238418695E+02  0.51778461266E+02  0.00000000000E+00 0. -1.
         11    1    3    3    0    0  0.19754302119E+02 -0.67479836848E+02  0.46682714970E+02  0.84398084755E+02  0.00000000000E+00 0.  1.
<mgrwt>
<rscale>  0 0.13092207E+03</rscale>
<asrwt>0</asrwt>
<pdfrwt beam="1">  1        2 0.30293791E-01 0.14099130E+03</pdfrwt>
<pdfrwt beam="2">  1       -2 0.12745676E-01 0.14099130E+03</pdfrwt>
<totfact> 0.73924041E+03</totfact>
</mgrwt>
</event>
<event>
 7    1  0.1254976E-005  0.1715406E+03  0.7546771E-02  0.1182011E+00
         -2   -1    0    0    0  501 -0.00000000000E+00  0.00000000000E+00  0.13113850247E+03  0.13113850247E+03  0.00000000000E+00 0.  1.
          2   -1    0    0  501    0  0.00000000000E+00 -0.00000000000E+00 -0.19818236852E+03  0.19818236852E+03  0.00000000000E+00 0. -1.
         23    2    1    2    0    0  0.64040866339E+02 -0.98491856840E+02 -0.37249136957E+02  0.15521197027E+03  0.94347120186E+02 0.  0.
          5    1    1    2  502    0 -0.10185075838E+03  0.76599252091E+02 -0.24339772249E+02  0.12982887551E+03  0.47000000000E+01 0.  1.
         -5    1    1    2    0  502  0.37809892039E+02  0.21892604748E+02 -0.54549568449E+01  0.44280025213E+02  0.47000000000E+01 0.  1.
        -11    1    3    3    0    0  0.25320959185E+01 -0.74821627683E+02  0.79657266231E+01  0.75287052536E+02  0.00000000000E+00 0.  1.
         11    1    3    3    0    0  0.61508770421E+02 -0.23670229156E+02 -0.45214863580E+02  0.79924917739E+02  0.00000000000E+00 0. -1.
<mgrwt>
<rscale>  0 0.16606811E+03</rscale>
<asrwt>0</asrwt>
<pdfrwt beam="2">  1        2 0.30489595E-01 0.17154062E+03</pdfrwt>
<pdfrwt beam="1">  1       -2 0.20175155E-01 0.17154062E+03</pdfrwt>
<totfact> 0.34761047E+03</totfact>
</mgrwt>
</event>
<event>
 7    1  0.1254976E-005  0.1485480E+03  0.7546771E-02  0.1212505E+00
          1   -1    0    0  501    0  0.00000000000E+00  0.00000000000E+00  0.31589972779E+03  0.31589972779E+03  0.00000000000E+00 0. -1.
         -1   -1    0    0    0  501 -0.00000000000E+00 -0.00000000000E+00 -0.59253816664E+02  0.59253816664E+02  0.00000000000E+00 0.  1.
         23    2    1    2    0    0 -0.63157115492E+02 -0.49540034700E+02  0.15313093278E+03  0.19409594769E+03  0.88210645973E+02 0.  0.
          5    1    1    2  502    0  0.79793166216E+02  0.70663676217E+02  0.10974841177E+03  0.15305916633E+03  0.47000000000E+01 0. -1.
         -5    1    1    2    0  502 -0.16636050723E+02 -0.21123641516E+02 -0.62334334178E+01  0.27998430434E+02  0.47000000000E+01 0. -1.
        -11    1    3    3    0    0 -0.62031581235E+02  0.22439500380E+01  0.54108361088E+02  0.82344806284E+02  0.00000000000E+00 0.  1.
         11    1    3    3    0    0 -0.11255342572E+01 -0.51783984738E+02  0.99022571688E+02  0.11175114141E+03  0.00000000000E+00 0. -1.
<mgrwt>
<rscale>  0 0.14061394E+03</rscale>
<asrwt>0</asrwt>
<pdfrwt beam="1">  1        1 0.48599957E-01 0.14854798E+03</pdfrwt>
<pdfrwt beam="2">  1       -1 0.91159720E-02 0.14854798E+03</pdfrwt>
<totfact> 0.55573546E+03</totfact>
</mgrwt>
</event>
<event>
 7    1  0.1254976E-005  0.1198910E+03  0.7546771E-02  0.1251150E+00
          1   -1    0    0  501    0  0.00000000000E+00  0.00000000000E+00  0.48967362101E+02  0.48967362101E+02  0.00000000000E+00 0. -1.
         -1   -1    0    0    0  501 -0.00000000000E+00 -0.00000000000E+00 -0.39318924407E+03  0.39318924407E+03  0.00000000000E+00 0.  1.
         23    2    1    2    0    0  0.41723042325E+02 -0.16146384169E+02 -0.31287349634E+02  0.10704188073E+03  0.92073601002E+02 0.  0.
          5    1    1    2  502    0  0.17081565749E+02 -0.14469182163E+02 -0.99820023835E+01  0.24957313406E+02  0.47000000000E+01 0. -1.
         -5    1    1    2    0  502 -0.58804608074E+02  0.30615566332E+02 -0.30295252995E+03  0.31015741203E+03  0.47000000000E+01 0.  1.
        -11    1    3    3    0    0  0.36615921330E+01 -0.44048746180E+02  0.88624795237E+01  0.45080404171E+02  0.00000000000E+00 0.  1.
         11    1    3    3    0    0  0.38061450192E+02  0.27902362011E+02 -0.40149829158E+02  0.61961476564E+02  0.00000000000E+00 0. -1.
<mgrwt>
<rscale>  0 0.11524718E+03</rscale>
<asrwt>0</asrwt>
<pdfrwt beam="1">  1        1 0.75334403E-02 0.11989102E+03</pdfrwt>
<pdfrwt beam="2">  1       -1 0.60490653E-01 0.11989102E+03</pdfrwt>
<totfact> 0.25939942E+03</totfact>
</mgrwt>
</event>
<event>
 7    1  0.1254976E-005  0.1318663E+03  0.7546771E-02  0.1237359E+00
         -2   -1    0    0    0  501 -0.00000000000E+00  0.00000000000E+00  0.61132827374E+02  0.61132827374E+02  0.00000000000E+00 0.  1.
          2   -1    0    0  501    0  0.00000000000E+00 -0.00000000000E+00 -0.23168969400E+03  0.23168969400E+03  0.00000000000E+00 0. -1.
         23    2    1    2    0    0  0.34241532821E+02  0.24244643875E+02 -0.10290985860E+03  0.14461714658E+03  0.92538612277E+02 0.  0.
          5    1    1    2  502    0 -0.52291801820E+02  0.24978580065E+02 -0.75170407547E+02  0.95031795576E+02  0.47000000000E+01 0.  1.
         -5    1    1    2    0  502  0.18050269000E+02 -0.49223223940E+02  0.75233995220E+01  0.53173579214E+02  0.47000000000E+01 0.  1.
        -11    1    3    3    0    0  0.16544962741E+02  0.50924875913E+02 -0.22522770497E+02  0.58089189784E+02  0.00000000000E+00 0.  1.
         11    1    3    3    0    0  0.17696570080E+02 -0.26680232038E+02 -0.80387088102E+02  0.86527956798E+02  0.00000000000E+00 0. -1.
<mgrwt>
<rscale>  0 0.12354627E+03</rscale>
<asrwt>0</asrwt>
<pdfrwt beam="2">  1        2 0.35644568E-01 0.13186628E+03</pdfrwt>
<pdfrwt beam="1">  1       -2 0.94050505E-02 0.13186628E+03</pdfrwt>
<totfact> 0.99948484E+03</totfact>
</mgrwt>
</event>
<event>
 7    1  0.1254976E-005  0.1490588E+03  0.7546771E-02  0.1210914E+00
          1   -1    0    0  501    0  0.00000000000E+00  0.00000000000E+00  0.27427788634E+03  0.27427788634E+03  0.00000000000E+00 0. -1.
         -1   -1    0    0    0  501 -0.00000000000E+00 -0.00000000000E+00 -0.98235801814E+02  0.98235801814E+02  0.00000000000E+00 0.  1.
         23    2    1    2    0    0 -0.78827475680E+02 -0.19462033181E+02  0.18668614656E+03  0.22307528384E+03  0.91204842445E+02 0.  0.
          5    1    1    2  502    0  0.62466732909E+01  0.49472468266E+02  0.32498290851E+02  0.59705736339E+02  0.47000000000E+01 0.  1.
         -5    1    1    2    0  502  0.72580802389E+02 -0.30010435085E+02 -0.43142352886E+02  0.89732667975E+02  0.47000000000E+01 0.  1.
        -11    1    3    3    0    0 -0.26029288648E+02 -0.39059901966E+02  0.27915354189E+02  0.54611965801E+02  0.00000000000E+00 0.  1.
         11    1    3    3    0    0 -0.52798187032E+02  0.19597868785E+02  0.15877079237E+03  0.16846331804E+03  0.00000000000E+00 0. -1.
<mgrwt>
<rscale>  0 0.14180978E+03</rscale>
<asrwt>0</asrwt>
<pdfrwt beam="1">  1        1 0.42196598E-01 0.14905885E+03</pdfrwt>
<pdfrwt beam="2">  1       -1 0.15113200E-01 0.14905885E+03</pdfrwt>
<totfact> 0.30327627E+03</totfact>
</mgrwt>
</event>
<event>
 7    1  0.1254976E-005  0.1823446E+03  0.7546771E-02  0.1170850E+00
         -1   -1    0    0    0  501 -0.00000000000E+00  0.00000000000E+00  0.80657640311E+02  0.80657640311E+02  0.00000000000E+00 0.  1.
          1   -1    0    0  501    0  0.00000000000E+00 -0.00000000000E+00 -0.51859666567E+03  0.51859666567E+03  0.00000000000E+00 0. -1.
         23    2    1    2    0    0 -0.69111836602E+02 -0.11335125940E+03 -0.37168664557E+03  0.40524678966E+03  0.91918681855E+02 0.  0.
          5    1    1    2  502    0  0.66088713140E+02  0.12758687417E+03 -0.19823460747E+02  0.14512473277E+03  0.47000000000E+01 0. -1.
         -5    1    1    2    0  502  0.30231234624E+01 -0.14235614775E+02 -0.46428919042E+02  0.48882783543E+02  0.47000000000E+01 0. -1.
        -11    1    3    3    0    0 -0.85123683261E+02 -0.56575618159E+02 -0.22412443990E+03  0.24633027947E+03  0.00000000000E+00 0.  1.
         11    1    3    3    0    0  0.16011846659E+02 -0.56775641240E+02 -0.14756220567E+03  0.15891651020E+03  0.00000000000E+00 0. -1.
<mgrwt>
<rscale>  0 0.17688686E+03</rscale>
<asrwt>0</asrwt>
<pdfrwt beam="2">  1        1 0.79784105E-01 0.18234456E+03</pdfrwt>
<pdfrwt beam="1">  1       -1 0.12408867E-01 0.18234456E+03</pdfrwt>
<totfact> 0.18516433E+03</totfact>
</mgrwt>
</event>
<event>
 7    1  0.1254976E-005  0.1265128E+03  0.7546771E-02  0.1247175E+00
          2   -1    0    0  501    0  0.00000000000E+00  0.00000000000E+00  0.16929377997E+02  0.16929377997E+02  0.00000000000E+00 0. -1.
         -2   -1    0    0    0  501 -0.00000000000E+00 -0.00000000000E+00 -0.78394287587E+03  0.78394287587E+03  0.00000000000E+00 0.  1.
         23    2    1    2    0    0  0.15472273294E+02 -0.11357639163E+02 -0.21912960600E+03  0.23857140011E+03  0.92358765248E+02 0.  0.
          5    1    1    2  502    0 -0.36984349625E+02  0.55963151692E+02 -0.20299138775E+03  0.21383944904E+03  0.47000000000E+01 0.  1.
         -5    1    1    2    0  502  0.21512076330E+02 -0.44605512530E+02 -0.34489250413E+03  0.34846140472E+03  0.47000000000E+01 0.  1.
        -11    1    3    3    0    0  0.54161103425E+02 -0.11612808362E+02 -0.12036678107E+03  0.13250073369E+03  0.00000000000E+00 0.  1.
         11    1    3    3    0    0 -0.38688830131E+02  0.25516919937E+00 -0.98762824922E+02  0.10607066642E+03  0.00000000000E+00 0. -1.
<mgrwt>
<rscale>  0 0.11756164E+03</rscale>
<asrwt>0</asrwt>
<pdfrwt beam="1">  1        2 0.26045189E-02 0.12651281E+03</pdfrwt>
<pdfrwt beam="2">  1       -2 0.12060663E+00 0.12651281E+03</pdfrwt>
<totfact> 0.19883037E+03</totfact>
</mgrwt>
</event>
<event>
 7    1  0.1254976E-005  0.2093757E+03  0.7546771E-02  0.1145855E+00
         -3   -1    0    0    0  501 -0.00000000000E+00  0.00000000000E+00  0.42383302649E+03  0.42383302649E+03  0.00000000000E+00 0.  1.
          3   -1    0    0  501    0  0.00000000000E+00 -0.00000000000E+00 -0.97910333235E+02  0.97910333235E+02  0.00000000000E+00 0. -1.
         23    2    1    2    0    0  0.50854225544E+02  0.16008133916E+03  0.20341565102E+03  0.27916105894E+03  0.91327883712E+02 0.  0.
          5    1    1    2  502    0 -0.48612110051E+02 -0.35373814861E+01  0.49998264760E+02  0.69982617773E+02  0.47000000000E+01 0.  1.
         -5    1    1    2    0  502 -0.22421154931E+01 -0.15654395767E+03  0.72508777471E+02  0.17259968301E+03  0.47000000000E+01 0.  1.
        -11    1    3    3    0    0  0.67243608737E+02  0.81727107534E+02  0.82694652357E+02  0.13431093980E+03  0.00000000000E+00 0.  1.
         11    1    3    3    0    0 -0.16389383193E+02  0.78354231626E+02  0.12072099866E+03  0.14485011913E+03  0.00000000000E+00 0. -1.
<mgrwt>
<rscale>  0 0.20467278E+03</rscale>
<asrwt>0</asrwt>
<pdfrwt beam="2">  1        3 0.15063128E-01 0.20937573E+03</pdfrwt>
<pdfrwt beam="1">  1       -3 0.65205080E-01 0.20937573E+03</pdfrwt>
<totfact> 0.20911829E+02</totfact>
</mgrwt>
</event>
<event>
 7    1  0.1254976E-005  0.1331626E+03  0.7546771E-02  0.1236613E+00
         -2   -1    0    0    0  501 -0.00000000000E+00  0.00000000000E+00  0.33099135192E+02  0.33099135192E+02  0.00000000000E+00 0.  1.
          2   -1    0    0  501    0  0.00000000000E+00 -0.00000000000E+00 -0.62251906135E+03  0.62251906135E+03  0.00000000000E+00 0. -1.
         23    2    1    2    0    0  0.38854560170E+02 -0.24434527365E+02 -0.45689244859E+03  0.46774637023E+03  0.89046248179E+02 0.  0.
          5    1    1    2  502    0 -0.69429144812E+02 -0.19063159374E+02 -0.44033765879E+02  0.84527349019E+02  0.47000000000E+01 0.  1.
         -5    1    1    2    0  502  0.30574584643E+02  0.43497686740E+02 -0.88493711688E+02  0.10334447729E+03  0.47000000000E+01 0.  1.
        -11    1    3    3    0    0  0.36149011861E+02 -0.53889710549E+02 -0.37721158676E+03  0.38275244368E+03  0.00000000000E+00 0. -1.
         11    1    3    3    0    0  0.27055483091E+01  0.29455183184E+02 -0.79680861828E+02  0.84993926546E+02  0.00000000000E+00 0.  1.
<mgrwt>
<rscale>  0 0.12401713E+03</rscale>
<asrwt>0</asrwt>
<pdfrwt beam="2">  1        2 0.95772154E-01 0.13316265E+03</pdfrwt>
<pdfrwt beam="1">  1       -2 0.50921752E-02 0.13316265E+03</pdfrwt>
<totfact> 0.88000582E+03</totfact>
</mgrwt>
</event>
<event>
 7    1  0.1254976E-005  0.1769178E+03  0.7546771E-02  0.1179434E+00
          2   -1    0    0  501    0  0.00000000000E+00  0.00000000000E+00  0.20432539681E+03  0.20432539681E+03  0.00000000000E+00 0. -1.
         -2   -1    0    0    0  501 -0.00000000000E+00 -0.00000000000E+00 -0.12723871112E+03  0.12723871112E+03  0.00000000000E+00 0.  1.
         23    2    1    2    0    0 -0.76882968218E+02  0.78518905565E+02  0.36947610248E+02  0.15015009141E+03  0.95413388546E+02 0.  0.
          5    1    1    2  502    0  0.10740139546E+03 -0.23971085570E+02  0.66435015273E+01  0.11034445524E+03  0.47000000000E+01 0. -1.
         -5    1    1    2    0  502 -0.30518427244E+02 -0.54547819995E+02  0.33495573920E+02  0.71069561275E+02  0.47000000000E+01 0.  1.
        -11    1    3    3    0    0 -0.24904096596E+02 -0.18734556825E+02  0.23560654425E+02  0.39067916295E+02  0.00000000000E+00 0.  1.
         11    1    3    3    0    0 -0.51978871622E+02  0.97253462389E+02  0.13386955824E+02  0.11108217511E+03  0.00000000000E+00 0. -1.
<mgrwt>
<rscale>  0 0.16848807E+03</rscale>
<asrwt>0</asrwt>
<pdfrwt beam="1">  1        2 0.31434677E-01 0.17691778E+03</pdfrwt>
<pdfrwt beam="2">  1       -2 0.19575186E-01 0.17691778E+03</pdfrwt>
<totfact> 0.35448059E+03</totfact>
</mgrwt>
</event>
<event>
 7    1  0.1254976E-005  0.1356393E+03  0.7546771E-02  0.1231527E+00
         -2   -1    0    0    0  501 -0.00000000000E+00  0.00000000000E+00  0.29687933816E+02  0.29687933816E+02  0.00000000000E+00 0.  1.
          2   -1    0    0  501    0  0.00000000000E+00 -0.00000000000E+00 -0.56458875315E+03  0.56458875315E+03  0.00000000000E+00 0. -1.
         23    2    1    2    0    0  0.38943956240E+02  0.35488686593E+02 -0.34654269736E+03  0.36216290165E+03  0.91071662088E+02 0.  0.
          5    1    1    2  502    0 -0.18714163322E+02 -0.23058963010E+02 -0.20207067001E+03  0.20429532878E+03  0.47000000000E+01 0. -1.
         -5    1    1    2    0  502 -0.20229792918E+02 -0.12429723583E+02  0.13712548040E+02  0.27818456528E+02  0.47000000000E+01 0. -1.
        -11    1    3    3    0    0  0.25645468939E+02 -0.17922036414E+02 -0.40332003862E+02  0.51044686323E+02  0.00000000000E+00 0.  1.
         11    1    3    3    0    0  0.13298487301E+02  0.53410723007E+02 -0.30621069350E+03  0.31111821533E+03  0.00000000000E+00 0. -1.
<mgrwt>
<rscale>  0 0.12729411E+03</rscale>
<asrwt>0</asrwt>
<pdfrwt beam="2">  1        2 0.86859805E-01 0.13563933E+03</pdfrwt>
<pdfrwt beam="1">  1       -2 0.45673746E-02 0.13563933E+03</pdfrwt>
<totfact> 0.11585527E+04</totfact>
</mgrwt>
</event>
<event>
 7    1  0.1254976E-005  0.1254845E+03  0.7546771E-02  0.1249790E+00
         -1   -1    0    0    0  501 -0.00000000000E+00  0.00000000000E+00  0.32790644619E+02  0.32790644619E+02  0.00000000000E+00 0.  1.
          1   -1    0    0  501    0  0.00000000000E+00 -0.00000000000E+00 -0.37540724734E+03  0.37540724734E+03  0.00000000000E+00 0. -1.
         23    2    1    2    0    0  0.55353840851E+01  0.90562778254E+01 -0.18700396996E+03  0.20829377566E+03  0.91121652500E+02 0.  0.
          5    1    1    2  502    0  0.32853284406E+02 -0.35143001507E+02 -0.14390571494E+03  0.15180683003E+03  0.47000000000E+01 0. -1.
         -5    1    1    2    0  502 -0.38388668491E+02  0.26086723682E+02 -0.11706917816E+02  0.48097286261E+02  0.47000000000E+01 0. -1.
        -11    1    3    3    0    0  0.39929180824E+02 -0.30584339751E+01 -0.39128667926E+02  0.55988803821E+02  0.00000000000E+00 0.  1.
         11    1    3    3    0    0 -0.34393796739E+02  0.12114711800E+02 -0.14787530203E+03  0.15230497184E+03  0.00000000000E+00 0. -1.
<mgrwt>
<rscale>  0 0.11603249E+03</rscale>
<asrwt>0</asrwt>
<pdfrwt beam="2">  1        1 0.57754961E-01 0.12548452E+03</pdfrwt>
<pdfrwt beam="1">  1       -1 0.50447146E-02 0.12548452E+03</pdfrwt>
<totfact> 0.10750892E+04</totfact>
</mgrwt>
</event>
<event>
 7    1  0.1254976E-005  0.1907568E+03  0.7546771E-02  0.1162361E+00
         -2   -1    0    0    0  501 -0.00000000000E+00  0.00000000000E+00  0.84082125595E+02  0.84082125595E+02  0.00000000000E+00 0.  1.
          2   -1    0    0  501    0  0.00000000000E+00 -0.00000000000E+00 -0.54651452749E+03  0.54651452749E+03  0.00000000000E+00 0. -1.
         23    2    1    2    0    0  0.18556011481E+02  0.14289130177E+03 -0.39092748875E+03  0.42687847112E+03  0.92944488638E+02 0.  0.
          5    1    1    2  502    0  0.15351057153E+02 -0.41024124284E+02  0.32050284032E+02  0.54478843926E+02  0.47000000000E+01 0.  1.
         -5    1    1    2    0  502 -0.33907068634E+02 -0.10186717749E+03 -0.10355519718E+03  0.14923933803E+03  0.47000000000E+01 0.  1.
        -11    1    3    3    0    0  0.46550831059E+02  0.83068164506E+02 -0.15529811214E+03  0.18216696589E+03  0.00000000000E+00 0.  1.
         11    1    3    3    0    0 -0.27994819577E+02  0.59823137268E+02 -0.23562937660E+03  0.24471150524E+03  0.00000000000E+00 0. -1.
<mgrwt>
<rscale>  0 0.18573985E+03</rscale>
<asrwt>0</asrwt>
<pdfrwt beam="2">  1        2 0.84079160E-01 0.19075677E+03</pdfrwt>
<pdfrwt beam="1">  1       -2 0.12935711E-01 0.19075677E+03</pdfrwt>
<totfact> 0.24325562E+03</totfact>
</mgrwt>
</event>
<event>
 7    1  0.1254976E-005  0.1410127E+03  0.7546771E-02  0.1222860E+00
          1   -1    0    0  501    0  0.00000000000E+00  0.00000000000E+00  0.83541870116E+02  0.83541870116E+02  0.00000000000E+00 0. -1.
         -1   -1    0    0    0  501 -0.00000000000E+00 -0.00000000000E+00 -0.19193549198E+03  0.19193549198E+03  0.00000000000E+00 0.  1.
         23    2    1    2    0    0 -0.52282762194E+02  0.39079706631E+02 -0.52852943973E+02  0.12392092923E+03  0.91116696173E+02 0.  0.
          5    1    1    2  502    0 -0.50962700518E+01 -0.72330736944E+02 -0.41248977210E+02  0.83554028007E+02  0.47000000000E+01 0. -1.
         -5    1    1    2    0  502  0.57379032245E+02  0.33251030313E+02 -0.14291700681E+02  0.68002404859E+02  0.47000000000E+01 0. -1.
        -11    1    3    3    0    0  0.21245146525E+02 -0.78015103453E+01 -0.21605844630E+02  0.31289492433E+02  0.00000000000E+00 0. -1.
         11    1    3    3    0    0 -0.73527908718E+02  0.46881216977E+02 -0.31247099343E+02  0.92631436797E+02  0.00000000000E+00 0.  1.
<mgrwt>
<rscale>  0 0.13314664E+03</rscale>
<asrwt>0</asrwt>
<pdfrwt beam="1">  1        1 0.12852595E-01 0.14101271E+03</pdfrwt>
<pdfrwt beam="2">  1       -1 0.29528537E-01 0.14101271E+03</pdfrwt>
<totfact> 0.46038381E+03</totfact>
</mgrwt>
</event>
<event>
 7    1  0.1254976E-005  0.1952987E+03  0.7546771E-02  0.1158201E+00
          4   -1    0    0  501    0  0.00000000000E+00  0.00000000000E+00  0.56886251226E+02  0.56886251226E+02  0.00000000000E+00 0. -1.
         -4   -1    0    0    0  501 -0.00000000000E+00 -0.00000000000E+00 -0.60593107516E+03  0.60593107516E+03  0.00000000000E+00 0.  1.
         23    2    1    2    0    0  0.14987701482E+03 -0.73471680661E+01 -0.25995676152E+03  0.31394272771E+03  0.92007706063E+02 0.  0.
          5    1    1    2  502    0 -0.12151964055E+02 -0.17149630341E+01 -0.15773246050E+03  0.15827896393E+03  0.47000000000E+01 0.  1.
         -5    1    1    2    0  502 -0.13772505076E+03  0.90621311002E+01 -0.13135560192E+03  0.19059563475E+03  0.47000000000E+01 0.  1.
        -11    1    3    3    0    0  0.82907348212E+02 -0.43723230523E+02 -0.18315581634E+03  0.20574596553E+03  0.00000000000E+00 0.  1.
         11    1    3    3    0    0  0.66969666608E+02  0.36376062457E+02 -0.76800945179E+02  0.10819676218E+03  0.00000000000E+00 0. -1.
<mgrwt>
<rscale>  0 0.19028918E+03</rscale>
<asrwt>0</asrwt>
<pdfrwt beam="1">  1        4 0.87517302E-02 0.19529869E+03</pdfrwt>
<pdfrwt beam="2">  1       -4 0.93220173E-01 0.19529869E+03</pdfrwt>
<totfact> 0.16941696E+02</totfact>
</mgrwt>
</event>
<event>
 7    1  0.1254976E-005  0.2027624E+03  0.7546771E-02  0.1151331E+00
         -2   -1    0    0    0  501 -0.00000000000E+00  0.00000000000E+00  0.77257490220E+02  0.77257490220E+02  0.00000000000E+00 0.  1.
          2   -1    0    0  501    0  0.00000000000E+00 -0.00000000000E+00 -0.80203676285E+03  0.80203676285E+03  0.00000000000E+00 0. -1.
         23    2    1    2    0    0 -0.15751838001E+03  0.25990531142E+02 -0.62796728061E+03  0.65460525308E+03  0.93153551136E+02 0.  0.
          5    1    1    2  502    0  0.72313780235E+02 -0.36106451882E+02  0.16350250098E+02  0.82597695838E+02  0.47000000000E+01 0.  1.
         -5    1    1    2    0  502  0.85204599773E+02  0.10115920740E+02 -0.11316224211E+03  0.14209130415E+03  0.47000000000E+01 0.  1.
        -11    1    3    3    0    0 -0.12264385252E+03 -0.11280481488E+02 -0.32870077912E+03  0.35101704519E+03  0.00000000000E+00 0.  1.
         11    1    3    3    0    0 -0.34874527486E+02  0.37271012630E+02 -0.29926650150E+03  0.30358820789E+03  0.00000000000E+00 0. -1.
<mgrwt>
<rscale>  0 0.19812461E+03</rscale>
<asrwt>0</asrwt>
<pdfrwt beam="2">  1        2 0.12339026E+00 0.20276239E+03</pdfrwt>
<pdfrwt beam="1">  1       -2 0.11885769E-01 0.20276239E+03</pdfrwt>
<totfact> 0.17695345E+03</totfact>
</mgrwt>
</event>
<event>
 7    1  0.1254976E-005  0.3520392E+03  0.7546771E-02  0.1062875E+00
         -1   -1    0    0    0  501 -0.00000000000E+00  0.00000000000E+00  0.10628439522E+03  0.10628439522E+03  0.00000000000E+00 0.  1.
          1   -1    0    0  501    0  0.00000000000E+00 -0.00000000000E+00 -0.11388524315E+04  0.11388524315E+04  0.00000000000E+00 0. -1.
         23    2    1    2    0    0  0.27851506291E+03  0.17538059404E+03 -0.45775746402E+03  0.57109024732E+03  0.90957032020E+02 0.  0.
          5    1    1    2  502    0 -0.25028950857E+03 -0.97897192010E+02 -0.42181798190E+03  0.50018116534E+03  0.47000000000E+01 0.  1.
         -5    1    1    2    0  502 -0.28225554338E+02 -0.77483402030E+02 -0.15299259038E+03  0.17386541410E+03  0.47000000000E+01 0.  1.
        -11    1    3    3    0    0  0.18980675325E+03  0.70714949726E+02 -0.30054040114E+03  0.36242480656E+03  0.00000000000E+00 0.  1.
         11    1    3    3    0    0  0.88708309658E+02  0.10466564431E+03 -0.15721706289E+03  0.20866544075E+03  0.00000000000E+00 0. -1.
<mgrwt>
<rscale>  0 0.34936677E+03</rscale>
<asrwt>0</asrwt>
<pdfrwt beam="2">  1        1 0.17520807E+00 0.35203920E+03</pdfrwt>
<pdfrwt beam="1">  1       -1 0.16351445E-01 0.35203920E+03</pdfrwt>
<totfact> 0.35269120E+02</totfact>
</mgrwt>
</event>
<event>
 7    1  0.1254976E-005  0.1822579E+03  0.7546771E-02  0.1171053E+00
          2   -1    0    0  501    0  0.00000000000E+00  0.00000000000E+00  0.98731487139E+03  0.98731487139E+03  0.00000000000E+00 0. -1.
         -2   -1    0    0    0  501 -0.00000000000E+00 -0.00000000000E+00 -0.31339745444E+02  0.31339745444E+02  0.00000000000E+00 0.  1.
         23    2    1    2    0    0 -0.11437208064E+02 -0.13217133668E+03  0.56143155376E+03  0.58404840659E+03  0.91143182477E+02 0.  0.
          5    1    1    2  502    0 -0.21641443894E+02  0.10462102193E+03  0.13877986706E+03  0.17520231683E+03  0.47000000000E+01 0. -1.
         -5    1    1    2    0  502  0.33078651957E+02  0.27550314750E+02  0.25576370513E+03  0.25940389342E+03  0.47000000000E+01 0. -1.
        -11    1    3    3    0    0 -0.21231551824E+02 -0.12850285435E+03  0.55806334331E+03  0.57306060544E+03  0.00000000000E+00 0. -1.
         11    1    3    3    0    0  0.97943437602E+01 -0.36684823254E+01  0.33682104513E+01  0.10987801141E+02  0.00000000000E+00 0.  1.
<mgrwt>
<rscale>  0 0.17668194E+03</rscale>
<asrwt>0</asrwt>
<pdfrwt beam="1">  1        2 0.15189457E+00 0.18225786E+03</pdfrwt>
<pdfrwt beam="2">  1       -2 0.48215001E-02 0.18225786E+03</pdfrwt>
<totfact> 0.54521740E+03</totfact>
</mgrwt>
</event>
<event>
 7    1  0.1254976E-005  0.2475892E+03  0.7546771E-02  0.1148594E+00
         -2   -1    0    0    0  501 -0.00000000000E+00  0.00000000000E+00  0.34492069792E+02  0.34492069792E+02  0.00000000000E+00 0.  1.
          2   -1    0    0  501    0  0.00000000000E+00 -0.00000000000E+00 -0.92120492439E+03  0.92120492439E+03  0.00000000000E+00 0. -1.
         23    2    1    2    0    0 -0.52155357183E+02  0.20404712143E+02 -0.29580814806E+03  0.31501860526E+03  0.92723932389E+02 0.  0.
          5    1    1    2  502    0  0.49853967088E+02 -0.74604572568E+02 -0.57770334780E+03  0.58464904716E+03  0.47000000000E+01 0. -1.
         -5    1    1    2    0  502  0.23013900948E+01  0.54199860425E+02 -0.13201358737E+02  0.56029341768E+02  0.47000000000E+01 0.  1.
        -11    1    3    3    0    0 -0.35932320305E+02 -0.23895698941E+02 -0.56444950457E+02  0.71050464477E+02  0.00000000000E+00 0.  1.
         11    1    3    3    0    0 -0.16223036878E+02  0.44300411084E+02 -0.23936319760E+03  0.24396814078E+03  0.00000000000E+00 0. -1.
<mgrwt>
<rscale>  0 0.20136351E+03</rscale>
<asrwt>0</asrwt>
<pdfrwt beam="2">  1        2 0.14172384E+00 0.24758923E+03</pdfrwt>
<pdfrwt beam="1">  1       -2 0.53064722E-02 0.24758923E+03</pdfrwt>
<totfact> 0.52336299E+03</totfact>
</mgrwt>
</event>
<event>
 7    1  0.1254976E-005  0.1293505E+03  0.7546771E-02  0.1242870E+00
          1   -1    0    0  501    0  0.00000000000E+00  0.00000000000E+00  0.35657396116E+03  0.35657396116E+03  0.00000000000E+00 0. -1.
         -1   -1    0    0    0  501 -0.00000000000E+00 -0.00000000000E+00 -0.39088973283E+02  0.39088973283E+02  0.00000000000E+00 0.  1.
         23    2    1    2    0    0  0.28942294525E+02  0.16429227520E+02  0.19529001488E+03  0.21772148298E+03  0.90315437821E+02 0.  0.
          5    1    1    2  502    0 -0.45639588154E+02  0.59626111285E+01 -0.60003661012E+01  0.46654250950E+02  0.47000000000E+01 0.  1.
         -5    1    1    2    0  502  0.16697293629E+02 -0.22391838648E+02  0.12819533909E+03  0.13128720051E+03  0.47000000000E+01 0.  1.
        -11    1    3    3    0    0 -0.31594238989E+02  0.14828146042E+02  0.85275973057E+02  0.92141529362E+02  0.00000000000E+00 0. -1.
         11    1    3    3    0    0  0.60536533514E+02  0.16010814778E+01  0.11001404182E+03  0.12557995361E+03  0.00000000000E+00 0.  1.
<mgrwt>
<rscale>  0 0.12013748E+03</rscale>
<asrwt>0</asrwt>
<pdfrwt beam="1">  1        1 0.54857530E-01 0.12935049E+03</pdfrwt>
<pdfrwt beam="2">  1       -1 0.60136884E-02 0.12935049E+03</pdfrwt>
<totfact> 0.88564296E+03</totfact>
</mgrwt>
</event>
<event>
 7    1  0.1254976E-005  0.1430819E+03  0.7546771E-02  0.1219951E+00
          3   -1    0    0  501    0  0.00000000000E+00  0.00000000000E+00  0.39136542316E+03  0.39136542316E+03  0.00000000000E+00 0. -1.
         -3   -1    0    0    0  501 -0.00000000000E+00 -0.00000000000E+00 -0.45708773263E+02  0.45708773263E+02  0.00000000000E+00 0.  1.
         23    2    1    2    0    0  0.54739529310E+02 -0.43023741220E+02  0.21472903738E+03  0.24312970479E+03  0.90310771670E+02 0.  0.
          5    1    1    2  502    0  0.39934307710E+02  0.20552533686E+02  0.34050613053E+02  0.56556960867E+02  0.47000000000E+01 0. -1.
         -5    1    1    2    0  502 -0.94673837021E+02  0.22471207534E+02  0.96876999460E+02  0.13738753076E+03  0.47000000000E+01 0. -1.
        -11    1    3    3    0    0  0.56563269067E+02  0.49612231391E+01  0.67168480555E+02  0.87952384406E+02  0.00000000000E+00 0.  1.
         11    1    3    3    0    0 -0.18237397566E+01 -0.47984964359E+02  0.14756055683E+03  0.15517732039E+03  0.00000000000E+00 0. -1.
<mgrwt>
<rscale>  0 0.13519045E+03</rscale>
<asrwt>0</asrwt>
<pdfrwt beam="1">  1        3 0.60210063E-01 0.14308189E+03</pdfrwt>
<pdfrwt beam="2">  1       -3 0.70321192E-02 0.14308189E+03</pdfrwt>
<totfact> 0.83849389E+02</totfact>
</mgrwt>
</event>
<event>
 7    1  0.1254976E-005  0.1317951E+03  0.7546771E-02  0.1237369E+00
         -2   -1    0    0    0  501 -0.00000000000E+00  0.00000000000E+00  0.23081698989E+02  0.23081698989E+02  0.00000000000E+00 0. -1.
          2   -1    0    0  501    0  0.00000000000E+00 -0.00000000000E+00 -0.59254583879E+03  0.59254583879E+03  0.00000000000E+00 0.  1.
         23    2    1    2    0    0  0.38666299865E+02  0.15804516462E+02 -0.26495339719E+03  0.28381924320E+03  0.92780356985E+02 0.  0.
          5    1    1    2  502    0  0.26481821450E+01 -0.13472389214E+02  0.79752212417E+01  0.16559356680E+02  0.47000000000E+01 0.  1.
         -5    1    1    2    0  502 -0.41314482010E+02 -0.23321272487E+01 -0.31248596386E+03  0.31524893790E+03  0.47000000000E+01 0.  1.
        -11    1    3    3    0    0  0.21954862348E+02  0.47847823091E+02 -0.82823524766E+02  0.98138506255E+02  0.00000000000E+00 0. -1.
         11    1    3    3    0    0  0.16711437517E+02 -0.32043306628E+02 -0.18212987242E+03  0.18568073694E+03  0.00000000000E+00 0.  1.
<mgrwt>
<rscale>  0 0.12354014E+03</rscale>
<asrwt>0</asrwt>
<pdfrwt beam="2">  1        2 0.91160896E-01 0.13179511E+03</pdfrwt>
<pdfrwt beam="1">  1       -2 0.35510307E-02 0.13179511E+03</pdfrwt>
<totfact> 0.15913371E+04</totfact>
</mgrwt>
</event>
<event>
 7    1  0.1254976E-005  0.2416105E+03  0.7546771E-02  0.1118725E+00
          2   -1    0    0  501    0  0.00000000000E+00  0.00000000000E+00  0.24421288974E+03  0.24421288974E+03  0.00000000000E+00 0. -1.
         -2   -1    0    0    0  501 -0.00000000000E+00 -0.00000000000E+00 -0.59758955696E+02  0.59758955696E+02  0.00000000000E+00 0.  1.
         23    2    1    2    0    0  0.23503782372E+02  0.16523176882E+02  0.13825138390E+03  0.16764582454E+03  0.90367218483E+02 0.  0.
          5    1    1    2  502    0 -0.58422277220E+02 -0.18475052802E+02 -0.17155905305E+02  0.63803645182E+02  0.47000000000E+01 0. -1.
         -5    1    1    2    0  502  0.34918494848E+02  0.19518759203E+01  0.63358455451E+02  0.72522375714E+02  0.47000000000E+01 0. -1.
        -11    1    3    3    0    0  0.39622491562E+02  0.38491816900E+02  0.47377647848E+02  0.72775018526E+02  0.00000000000E+00 0.  1.
         11    1    3    3    0    0 -0.16118709190E+02 -0.21968640018E+02  0.90873736053E+02  0.94870806018E+02  0.00000000000E+00 0. -1.
<mgrwt>
<rscale>  0 0.24161049E+03</rscale>
<asrwt>0</asrwt>
<pdfrwt beam="1">  1        2 0.37571213E-01 0.24161049E+03</pdfrwt>
<pdfrwt beam="2">  1       -2 0.91936856E-02 0.24161049E+03</pdfrwt>
<totfact> 0.10210101E+04</totfact>
</mgrwt>
</event>
<event>
 7    1  0.1254976E-005  0.2110469E+03  0.7546771E-02  0.1144358E+00
         -2   -1    0    0    0  501 -0.00000000000E+00  0.00000000000E+00  0.30275924670E+03  0.30275924670E+03  0.00000000000E+00 0.  1.
          2   -1    0    0  501    0  0.00000000000E+00 -0.00000000000E+00 -0.22208808886E+03  0.22208808886E+03  0.00000000000E+00 0. -1.
         23    2    1    2    0    0 -0.16506988084E+03  0.40834619265E+02 -0.12484649323E+03  0.23026579875E+03  0.92304710121E+02 0.  0.
          5    1    1    2  502    0  0.38768092005E+02  0.18659361892E+02  0.12735655225E+03  0.13450991839E+03  0.47000000000E+01 0.  1.
         -5    1    1    2    0  502  0.12630178883E+03 -0.59493981157E+02  0.78161098816E+02  0.16007161842E+03  0.47000000000E+01 0.  1.
        -11    1    3    3    0    0 -0.89117032935E+02 -0.14917402912E+02 -0.26709986477E+02  0.94222066664E+02  0.00000000000E+00 0.  1.
         11    1    3    3    0    0 -0.75952847901E+02  0.55752022177E+02 -0.98136506755E+02  0.13604373208E+03  0.00000000000E+00 0. -1.
<mgrwt>
<rscale>  0 0.20651181E+03</rscale>
<asrwt>0</asrwt>
<pdfrwt beam="2">  1        2 0.34167398E-01 0.21104686E+03</pdfrwt>
<pdfrwt beam="1">  1       -2 0.46578346E-01 0.21104686E+03</pdfrwt>
<totfact> 0.67226364E+02</totfact>
</mgrwt>
</event>
<event>
 7    1  0.1254976E-005  0.1531685E+03  0.7546771E-02  0.1200550E+00
          1   -1    0    0  501    0  0.00000000000E+00  0.00000000000E+00  0.40656410274E+03  0.40656410274E+03  0.00000000000E+00 0. -1.
         -1   -1    0    0    0  501 -0.00000000000E+00 -0.00000000000E+00 -0.79775964069E+02  0.79775964069E+02  0.00000000000E+00 0.  1.
         23    2    1    2    0    0  0.40340197674E+02 -0.78795776439E+02  0.29933381163E+03  0.33073056925E+03  0.10929717617E+03 0.  0.
          5    1    1    2  502    0  0.17362248748E+02 -0.22519023505E+02  0.26145366457E+02  0.38913034942E+02  0.47000000000E+01 0.  1.
         -5    1    1    2    0  502 -0.57702446423E+02  0.10131479994E+03  0.13089605868E+01  0.11669646262E+03  0.47000000000E+01 0.  1.
        -11    1    3    3    0    0  0.66028503303E+01  0.21954104134E+02  0.12093925942E+03  0.12309299245E+03  0.00000000000E+00 0. -1.
         11    1    3    3    0    0  0.33737347344E+02 -0.10074988057E+03  0.17839455221E+03  0.20763757680E+03  0.00000000000E+00 0.  1.
<mgrwt>
<rscale>  0 0.14993766E+03</rscale>
<asrwt>0</asrwt>
<pdfrwt beam="1">  1        1 0.62548322E-01 0.15316846E+03</pdfrwt>
<pdfrwt beam="2">  1       -1 0.12273226E-01 0.15316846E+03</pdfrwt>
<totfact> 0.25688146E+03</totfact>
</mgrwt>
</event>
<event>
 7    1  0.1254976E-005  0.2153143E+03  0.7546771E-02  0.1140998E+00
         -1   -1    0    0    0  501 -0.00000000000E+00  0.00000000000E+00  0.36480261171E+03  0.36480261171E+03  0.00000000000E+00 0.  1.
          1   -1    0    0  501    0  0.00000000000E+00 -0.00000000000E+00 -0.13546842015E+03  0.13546842015E+03  0.00000000000E+00 0. -1.
         23    2    1    2    0    0 -0.16215976809E+02  0.17457007460E+03  0.17606651301E+02  0.19829621640E+03  0.90960026505E+02 0.  0.
          5    1    1    2  502    0  0.31645427504E+01 -0.25328122745E+02  0.12735735813E+03  0.12997505454E+03  0.47000000000E+01 0.  1.
         -5    1    1    2    0  502  0.13051434059E+02 -0.14924195185E+03  0.84370182121E+02  0.17199976091E+03  0.47000000000E+01 0.  1.
        -11    1    3    3    0    0 -0.38828769491E+02  0.10508340115E+03 -0.23483082558E+02  0.11446243796E+03  0.00000000000E+00 0. -1.
         11    1    3    3    0    0  0.22612792682E+02  0.69486673444E+02  0.41089733859E+02  0.83833778441E+02  0.00000000000E+00 0.  1.
<mgrwt>
<rscale>  0 0.21071893E+03</rscale>
<asrwt>0</asrwt>
<pdfrwt beam="2">  1        1 0.20841296E-01 0.21531428E+03</pdfrwt>
<pdfrwt beam="1">  1       -1 0.56123478E-01 0.21531428E+03</pdfrwt>
<totfact> 0.79925775E+02</totfact>
</mgrwt>
</event>
<event>
 7    1  0.1254976E-005  0.1502768E+03  0.7546771E-02  0.1208225E+00
          3   -1    0    0  501    0  0.00000000000E+00  0.00000000000E+00  0.54312121543E+03  0.54312121543E+03  0.00000000000E+00 0. -1.
         -3   -1    0    0    0  501 -0.00000000000E+00 -0.00000000000E+00 -0.57339358871E+02  0.57339358871E+02  0.00000000000E+00 0.  1.
         23    2    1    2    0    0  0.78611874284E+02 -0.27869100866E+02  0.41608854140E+03  0.43480948836E+03  0.94726465809E+02 0.  0.
          5    1    1    2  502    0 -0.41646162427E+01  0.14188362983E+02  0.86575743529E+02  0.87955119466E+02  0.47000000000E+01 0.  1.
         -5    1    1    2    0  502 -0.74447258041E+02  0.13680737884E+02 -0.16882428367E+02  0.77695966475E+02  0.47000000000E+01 0.  1.
        -11    1    3    3    0    0  0.65973068339E+02  0.44416501279E+01  0.37609851693E+03  0.38186682029E+03  0.00000000000E+00 0. -1.
         11    1    3    3    0    0  0.12638805945E+02 -0.32310750994E+02  0.39990024469E+02  0.52942668072E+02  0.00000000000E+00 0.  1.
<mgrwt>
<rscale>  0 0.14386153E+03</rscale>
<asrwt>0</asrwt>
<pdfrwt beam="1">  1        3 0.83557107E-01 0.15027682E+03</pdfrwt>
<pdfrwt beam="2">  1       -3 0.88214402E-02 0.15027682E+03</pdfrwt>
<totfact> 0.29097550E+02</totfact>
</mgrwt>
</event>
<event>
 6    1  0.1254976E-005  0.1339829E+03  0.7546771E-02  0.1256143E+00
          2   -1    0    0  501    0  0.00000000000E+00  0.00000000000E+00  0.28527353854E+03  0.28527353854E+03  0.00000000000E+00 0. -1.
         -2   -1    0    0    0  501 -0.00000000000E+00 -0.00000000000E+00 -0.36351808557E+02  0.36351808557E+02  0.00000000000E+00 0.  1.
          5    1    1    2  502    0 -0.82626363556E+02 -0.30248818018E+02  0.12691394559E+03  0.15450354861E+03  0.47000000000E+01 0. -1.
         -5    1    1    2    0  502  0.32840739012E+02  0.14468700804E+02  0.11120423040E+02  0.37863059179E+02  0.47000000000E+01 0.  1.
        -11    1    1    2    0    0  0.27872326037E+02 -0.12184510674E+02  0.58899662305E+02  0.66291018085E+02  0.00000000000E+00 0.  1.
         11    1    1    2    0    0  0.21913298507E+02  0.27964627889E+02  0.51987699042E+02  0.62967721223E+02  0.00000000000E+00 0. -1.
<mgrwt>
<rscale>  0 0.11242535E+03</rscale>
<asrwt>0</asrwt>
<pdfrwt beam="1">  1        2 0.43888235E-01 0.13398293E+03</pdfrwt>
<pdfrwt beam="2">  1       -2 0.55925861E-02 0.13398293E+03</pdfrwt>
<totfact> 0.17807484E+04</totfact>
</mgrwt>
</event>
<event>
 7    1  0.1254976E-005  0.1351132E+03  0.7546771E-02  0.1232340E+00
          2   -1    0    0  501    0  0.00000000000E+00  0.00000000000E+00  0.39790424463E+02  0.39790424463E+02  0.00000000000E+00 0. -1.
         -2   -1    0    0    0  501 -0.00000000000E+00 -0.00000000000E+00 -0.46448786220E+03  0.46448786220E+03  0.00000000000E+00 0.  1.
         23    2    1    2    0    0 -0.36645360606E+02 -0.35975089458E+02 -0.73283812306E+02  0.12778509303E+03  0.91221835865E+02 0.  0.
          5    1    1    2  502    0  0.61340964937E+02 -0.13817562694E+02 -0.94570801001E+02  0.11366338645E+03  0.47000000000E+01 0.  1.
         -5    1    1    2    0  502 -0.24695604331E+02  0.49792652152E+02 -0.25684282443E+03  0.26282980718E+03  0.47000000000E+01 0.  1.
        -11    1    3    3    0    0 -0.22087861719E+02  0.82651211032E+01 -0.77511461427E+02  0.81019827911E+02  0.00000000000E+00 0.  1.
         11    1    3    3    0    0 -0.14557498886E+02 -0.44240210562E+02  0.42276491210E+01  0.46765265117E+02  0.00000000000E+00 0. -1.
<mgrwt>
<rscale>  0 0.12676297E+03</rscale>
<asrwt>0</asrwt>
<pdfrwt beam="1">  1        2 0.61216037E-02 0.13511324E+03</pdfrwt>
<pdfrwt beam="2">  1       -2 0.71459671E-01 0.13511324E+03</pdfrwt>
<totfact> 0.21107382E+03</totfact>
</mgrwt>
</event>
<event>
 7    1  0.1254976E-005  0.1426948E+03  0.7546771E-02  0.1221301E+00
         -2   -1    0    0    0  501 -0.00000000000E+00  0.00000000000E+00  0.32953621759E+02  0.32953621759E+02  0.00000000000E+00 0.  1.
          2   -1    0    0  501    0  0.00000000000E+00 -0.00000000000E+00 -0.57322537326E+03  0.57322537326E+03  0.00000000000E+00 0. -1.
         23    2    1    2    0    0 -0.41665312025E+02 -0.54779724104E+02 -0.35592846307E+03  0.37306046602E+03  0.88046715366E+02 0.  0.
          5    1    1    2  502    0  0.86351237362E+02  0.40455311198E+02 -0.12655756647E+03  0.15853099390E+03  0.47000000000E+01 0. -1.
         -5    1    1    2    0  502 -0.44685925338E+02  0.14324412906E+02 -0.57785721967E+02  0.74587535095E+02  0.47000000000E+01 0. -1.
        -11    1    3    3    0    0 -0.54114265916E+02 -0.93277971737E+01 -0.11339804140E+03  0.12599395767E+03  0.00000000000E+00 0.  1.
         11    1    3    3    0    0  0.12448953891E+02 -0.45451926930E+02 -0.24253042167E+03  0.24706650836E+03  0.00000000000E+00 0. -1.
<mgrwt>
<rscale>  0 0.13423699E+03</rscale>
<asrwt>0</asrwt>
<pdfrwt beam="2">  1        2 0.88188515E-01 0.14269478E+03</pdfrwt>
<pdfrwt beam="1">  1       -2 0.50697882E-02 0.14269478E+03</pdfrwt>
<totfact> 0.97725390E+03</totfact>
</mgrwt>
</event>
<event>
 7    1  0.1254976E-005  0.1349055E+03  0.7546771E-02  0.1233902E+00
         -1   -1    0    0    0  501 -0.00000000000E+00  0.00000000000E+00  0.29797941921E+03  0.29797941921E+03  0.00000000000E+00 0.  1.
          1   -1    0    0  501    0  0.00000000000E+00 -0.00000000000E+00 -0.49962641025E+02  0.49962641025E+02  0.00000000000E+00 0. -1.
         23    2    1    2    0    0 -0.29844150751E+02 -0.41017307407E+02  0.65920551072E+02  0.12131787284E+03  0.88314293155E+02 0.  0.
          5    1    1    2  502    0 -0.15990451228E+02 -0.38557034625E+02  0.45110760438E+02  0.61639355584E+02  0.47000000000E+01 0.  1.
         -5    1    1    2    0  502  0.45834601979E+02  0.79574342031E+02  0.13698546667E+03  0.16498483181E+03  0.47000000000E+01 0.  1.
        -11    1    3    3    0    0 -0.98918612698E+01 -0.38032126259E+02  0.84940998590E+02  0.93590943946E+02  0.00000000000E+00 0.  1.
         11    1    3    3    0    0 -0.19952289481E+02 -0.29851811480E+01 -0.19020447518E+02  0.27726928893E+02  0.00000000000E+00 0. -1.
<mgrwt>
<rscale>  0 0.12574990E+03</rscale>
<asrwt>0</asrwt>
<pdfrwt beam="2">  1        1 0.76865603E-02 0.13490547E+03</pdfrwt>
<pdfrwt beam="1">  1       -1 0.45842986E-01 0.13490547E+03</pdfrwt>
<totfact> 0.42383805E+03</totfact>
</mgrwt>
</event>
<event>
 7    1  0.1254976E-005  0.1472079E+03  0.7546771E-02  0.1212319E+00
         -2   -1    0    0    0  501 -0.00000000000E+00  0.00000000000E+00  0.25537867607E+02  0.25537867607E+02  0.00000000000E+00 0.  1.
          2   -1    0    0  501    0  0.00000000000E+00 -0.00000000000E+00 -0.76393007884E+03  0.76393007884E+03  0.00000000000E+00 0. -1.
         23    2    1    2    0    0 -0.34658055617E+02  0.69613787821E+02 -0.43787150543E+03  0.45482954331E+03  0.95347773579E+02 0.  0.
          5    1    1    2  502    0 -0.14685005440E+01  0.84109329811E+01 -0.20806487326E+03  0.20829301902E+03  0.47000000000E+01 0.  1.
         -5    1    1    2    0  502  0.36126556161E+02 -0.78024720802E+02 -0.92455832535E+02  0.12634538411E+03  0.47000000000E+01 0.  1.
        -11    1    3    3    0    0 -0.59440367380E+01 -0.16401040103E+02 -0.17210820425E+02  0.24505877436E+02  0.00000000000E+00 0.  1.
         11    1    3    3    0    0 -0.28714018879E+02  0.86014827924E+02 -0.42066068501E+03  0.43032366588E+03  0.00000000000E+00 0. -1.
<mgrwt>
<rscale>  0 0.14075329E+03</rscale>
<asrwt>0</asrwt>
<pdfrwt beam="2">  1        2 0.11752767E+00 0.14720790E+03</pdfrwt>
<pdfrwt beam="1">  1       -2 0.39289037E-02 0.14720790E+03</pdfrwt>
<totfact> 0.10237500E+04</totfact>
</mgrwt>
</event>
<event>
 7    1  0.1254976E-005  0.1335777E+03  0.7546771E-02  0.1235029E+00
          1   -1    0    0  501    0  0.00000000000E+00  0.00000000000E+00  0.85082915912E+02  0.85082915912E+02  0.00000000000E+00 0. -1.
         -1   -1    0    0    0  501 -0.00000000000E+00 -0.00000000000E+00 -0.16379729011E+03  0.16379729011E+03  0.00000000000E+00 0.  1.
         23    2    1    2    0    0 -0.39905907816E+02  0.25000292137E+02 -0.33086935566E+02  0.10772470682E+03  0.91062456971E+02 0.  0.
          5    1    1    2  502    0  0.79244563704E+02 -0.78384355736E+01 -0.20283369911E+01  0.79795652136E+02  0.47000000000E+01 0. -1.
         -5    1    1    2    0  502 -0.39338655888E+02 -0.17161856563E+02 -0.43599101645E+02  0.61359847066E+02  0.47000000000E+01 0. -1.
        -11    1    3    3    0    0 -0.40297589175E+01 -0.26702275296E+02 -0.35672306732E+02  0.44741076546E+02  0.00000000000E+00 0.  1.
         11    1    3    3    0    0 -0.35876148898E+02  0.51702567433E+02  0.25853711655E+01  0.62983630278E+02  0.00000000000E+00 0. -1.
<mgrwt>
<rscale>  0 0.12502596E+03</rscale>
<asrwt>0</asrwt>
<pdfrwt beam="1">  1        1 0.13089679E-01 0.13357774E+03</pdfrwt>
<pdfrwt beam="2">  1       -1 0.25199583E-01 0.13357774E+03</pdfrwt>
<totfact> 0.58284999E+03</totfact>
</mgrwt>
</event>
<event>
 7    1  0.1254976E-005  0.1826696E+03  0.7546771E-02  0.1170357E+00
         -1   -1    0    0    0  501 -0.00000000000E+00  0.00000000000E+00  0.17937891541E+03  0.17937891541E+03  0.00000000000E+00 0.  1.
          1   -1    0    0  501    0  0.00000000000E+00 -0.00000000000E+00 -0.18949095298E+03  0.18949095298E+03  0.00000000000E+00 0. -1.
         23    2    1    2    0    0 -0.12092569231E+03 -0.55848254085E+02 -0.69654715512E+02  0.17674098442E+03  0.92970670841E+02 0.  0.
          5    1    1    2  502    0  0.90230761531E+02  0.95583424352E+02  0.35350495522E+02  0.13619665514E+03  0.47000000000E+01 0.  1.
         -5    1    1    2    0  502  0.30694930778E+02 -0.39735170267E+02  0.24192182419E+02  0.55932228829E+02  0.47000000000E+01 0.  1.
        -11    1    3    3    0    0 -0.48762273441E+02  0.13024786865E+02 -0.57084071803E+02  0.76197084181E+02  0.00000000000E+00 0. -1.
         11    1    3    3    0    0 -0.72163418867E+02 -0.68873040950E+02 -0.12570643709E+02  0.10054390024E+03  0.00000000000E+00 0.  1.
<mgrwt>
<rscale>  0 0.17738649E+03</rscale>
<asrwt>0</asrwt>
<pdfrwt beam="2">  1        1 0.29152454E-01 0.18266959E+03</pdfrwt>
<pdfrwt beam="1">  1       -1 0.27596756E-01 0.18266959E+03</pdfrwt>
<totfact> 0.18278893E+03</totfact>
</mgrwt>
</event>
<event>
 7    1  0.1254976E-005  0.1381355E+03  0.7546771E-02  0.1226871E+00
         -2   -1    0    0    0  501 -0.00000000000E+00  0.00000000000E+00  0.70979292678E+02  0.70979292678E+02  0.00000000000E+00 0. -1.
          2   -1    0    0  501    0  0.00000000000E+00 -0.00000000000E+00 -0.22246641376E+03  0.22246641376E+03  0.00000000000E+00 0.  1.
         23    2    1    2    0    0 -0.28709876257E+02 -0.51315808577E+02 -0.91552230605E+02  0.14286811872E+03  0.92584659713E+02 0.  0.
          5    1    1    2  502    0 -0.43183836734E+02  0.36299026527E+02 -0.15405395667E+01  0.56629730214E+02  0.47000000000E+01 0. -1.
         -5    1    1    2    0  502  0.71893712991E+02  0.15016782049E+02 -0.58394350911E+02  0.93947857501E+02  0.47000000000E+01 0. -1.
        -11    1    3    3    0    0  0.28986995084E+02 -0.10031797314E+02 -0.52033631817E+01  0.31112020663E+02  0.00000000000E+00 0. -1.
         11    1    3    3    0    0 -0.57696871341E+02 -0.41284011262E+02 -0.86348867423E+02  0.11175609806E+03  0.00000000000E+00 0.  1.
<mgrwt>
<rscale>  0 0.13039469E+03</rscale>
<asrwt>0</asrwt>
<pdfrwt beam="2">  1        2 0.34225602E-01 0.13813551E+03</pdfrwt>
<pdfrwt beam="1">  1       -2 0.10919891E-01 0.13813551E+03</pdfrwt>
<totfact> 0.82821691E+03</totfact>
</mgrwt>
</event>
<event>
 7    1  0.1254976E-005  0.1269071E+03  0.7546771E-02  0.1248848E+00
         -1   -1    0    0    0  501 -0.00000000000E+00  0.00000000000E+00  0.69151335022E+03  0.69151335022E+03  0.00000000000E+00 0.  1.
          1   -1    0    0  501    0  0.00000000000E+00 -0.00000000000E+00 -0.17089568479E+02  0.17089568479E+02  0.00000000000E+00 0. -1.
         23    2    1    2    0    0 -0.21253394062E+02 -0.54037306204E+01  0.26816324210E+03  0.28298215157E+03  0.87672496453E+02 0.  0.
          5    1    1    2  502    0  0.16033678004E+02 -0.56492946550E+02  0.13491390298E+03  0.14721543078E+03  0.47000000000E+01 0. -1.
         -5    1    1    2    0  502  0.52197160576E+01  0.61896677170E+02  0.27134663667E+03  0.27840533635E+03  0.47000000000E+01 0. -1.
        -11    1    3    3    0    0 -0.25955256747E+01 -0.44390868561E+02  0.17010473959E+03  0.17582067113E+03  0.00000000000E+00 0.  1.
         11    1    3    3    0    0 -0.18657868387E+02  0.38987137941E+02  0.98058502506E+02  0.10716148045E+03  0.00000000000E+00 0. -1.
<mgrwt>
<rscale>  0 0.11658018E+03</rscale>
<asrwt>0</asrwt>
<pdfrwt beam="2">  1        1 0.26291649E-02 0.12690710E+03</pdfrwt>
<pdfrwt beam="1">  1       -1 0.10638665E+00 0.12690710E+03</pdfrwt>
<totfact> 0.34419890E+03</totfact>
</mgrwt>
</event>
<event>
 7    1  0.1254976E-005  0.1328454E+03  0.7546771E-02  0.1241712E+00
         -2   -1    0    0    0  501 -0.00000000000E+00  0.00000000000E+00  0.65569483005E+02  0.65569483005E+02  0.00000000000E+00 0.  1.
          2   -1    0    0  501    0  0.00000000000E+00 -0.00000000000E+00 -0.29182595082E+03  0.29182595082E+03  0.00000000000E+00 0. -1.
         23    2    1    2    0    0  0.32349390797E+02  0.31239135117E+02 -0.20311111156E+03  0.22254882998E+03  0.79066373629E+02 0.  0.
          5    1    1    2  502    0 -0.37870972887E+02 -0.37416507381E+02 -0.69415576464E+02  0.87606037850E+02  0.47000000000E+01 0.  1.
         -5    1    1    2    0  502  0.55215820895E+01  0.61773722633E+01  0.46270220212E+02  0.47240565992E+02  0.47000000000E+01 0.  1.
        -11    1    3    3    0    0 -0.11564960407E+02  0.40564885629E+02 -0.66494503834E+02  0.78745014417E+02  0.00000000000E+00 0.  1.
         11    1    3    3    0    0  0.43914351204E+02 -0.93257505118E+01 -0.13661660773E+03  0.14380381556E+03  0.00000000000E+00 0. -1.
<mgrwt>
<rscale>  0 0.12084353E+03</rscale>
<asrwt>0</asrwt>
<pdfrwt beam="2">  1        2 0.44896301E-01 0.13284540E+03</pdfrwt>
<pdfrwt beam="1">  1       -2 0.10087613E-01 0.13284540E+03</pdfrwt>
<totfact> 0.70117851E+03</totfact>
</mgrwt>
</event>
<event>
 7    1  0.1254976E-005  0.1654217E+03  0.7546771E-02  0.1189609E+00
          3   -1    0    0  501    0  0.00000000000E+00  0.00000000000E+00  0.16184240288E+03  0.16184240288E+03  0.00000000000E+00 0. -1.
         -3   -1    0    0    0  501 -0.00000000000E+00 -0.00000000000E+00 -0.15413840687E+03  0.15413840687E+03  0.00000000000E+00 0.  1.
         23    2    1    2    0    0 -0.79932209753E+02 -0.73142237215E+02  0.40042254366E+02  0.14742780484E+03  0.91611301073E+02 0.  0.
          5    1    1    2  502    0  0.10157797270E+03  0.54282084019E+02  0.11606866690E+02  0.11585093240E+03  0.47000000000E+01 0.  1.
         -5    1    1    2    0  502 -0.21645762949E+02  0.18860153196E+02 -0.43945125038E+02  0.52702072510E+02  0.47000000000E+01 0.  1.
        -11    1    3    3    0    0 -0.70085339245E+02 -0.16765395831E+02  0.52121787337E+02  0.88936572847E+02  0.00000000000E+00 0.  1.
         11    1    3    3    0    0 -0.98468705076E+01 -0.56376841385E+02 -0.12079532971E+02  0.58491231993E+02  0.00000000000E+00 0. -1.
<mgrwt>
<rscale>  0 0.15919490E+03</rscale>
<asrwt>0</asrwt>
<pdfrwt beam="1">  1        3 0.24898831E-01 0.16542174E+03</pdfrwt>
<pdfrwt beam="2">  1       -3 0.23713601E-01 0.16542174E+03</pdfrwt>
<totfact> 0.59611022E+02</totfact>
</mgrwt>
</event>
<event>
 7    1  0.1254976E-005  0.1728104E+03  0.7546771E-02  0.1181075E+00
          4   -1    0    0  501    0  0.00000000000E+00  0.00000000000E+00  0.30280314781E+02  0.30280314781E+02  0.00000000000E+00 0. -1.
         -4   -1    0    0    0  501 -0.00000000000E+00 -0.00000000000E+00 -0.86401157593E+03  0.86401157593E+03  0.00000000000E+00 0.  1.
         23    2    1    2    0    0 -0.11633758065E+03  0.26536733597E+02 -0.37314930785E+03  0.40235776813E+03  0.91720972089E+02 0.  0.
          5    1    1    2  502    0  0.87140062628E+02  0.32287022474E+02 -0.16810837491E+03  0.19214150528E+03  0.47000000000E+01 0. -1.
         -5    1    1    2    0  502  0.29197518020E+02 -0.58823756071E+02 -0.29247357838E+03  0.29979261730E+03  0.47000000000E+01 0. -1.
        -11    1    3    3    0    0 -0.11235936412E+03  0.14817755243E+02 -0.37315108923E+03  0.38998195852E+03  0.00000000000E+00 0.  1.
         11    1    3    3    0    0 -0.39782165300E+01  0.11718978354E+02  0.17813741912E-02  0.12375809614E+02  0.00000000000E+00 0. -1.
<mgrwt>
<rscale>  0 0.16694148E+03</rscale>
<asrwt>0</asrwt>
<pdfrwt beam="1">  1        4 0.46585103E-02 0.17281043E+03</pdfrwt>
<pdfrwt beam="2">  1       -4 0.13292485E+00 0.17281043E+03</pdfrwt>
<totfact> 0.20111992E+02</totfact>
</mgrwt>
</event>
<event>
 7    1  0.1254976E-005  0.1385137E+03  0.7546771E-02  0.1222439E+00
          2   -1    0    0  501    0  0.00000000000E+00  0.00000000000E+00  0.78203634935E+03  0.78203634935E+03  0.00000000000E+00 0. -1.
         -2   -1    0    0    0  501 -0.00000000000E+00 -0.00000000000E+00 -0.21462442694E+02  0.21462442694E+02  0.00000000000E+00 0.  1.
         23    2    1    2    0    0  0.14440021800E+02 -0.57875494494E+02  0.31232951116E+03  0.33434094000E+03  0.10332498985E+03 0.  0.
          5    1    1    2  502    0  0.19264475252E+02  0.13219364385E+02  0.76924106075E+01  0.25042659253E+02  0.47000000000E+01 0. -1.
         -5    1    1    2    0  502 -0.33704497053E+02  0.44656130108E+02  0.44055198489E+03  0.44411519279E+03  0.47000000000E+01 0. -1.
        -11    1    3    3    0    0 -0.11342706079E+02  0.18771063442E+02  0.15926776676E+02  0.27104833872E+02  0.00000000000E+00 0.  1.
         11    1    3    3    0    0  0.25782727880E+02 -0.76646557935E+02  0.29640273448E+03  0.30723610613E+03  0.00000000000E+00 0. -1.
<mgrwt>
<rscale>  0 0.13343999E+03</rscale>
<asrwt>0</asrwt>
<pdfrwt beam="1">  1        2 0.12031326E+00 0.13851373E+03</pdfrwt>
<pdfrwt beam="2">  1       -2 0.33019149E-02 0.13851373E+03</pdfrwt>
<totfact> 0.12819654E+04</totfact>
</mgrwt>
</event>
<event>
 7    1  0.1254976E-005  0.1344764E+03  0.7546771E-02  0.1233306E+00
          2   -1    0    0  501    0  0.00000000000E+00  0.00000000000E+00  0.22921021197E+03  0.22921021197E+03  0.00000000000E+00 0. -1.
         -2   -1    0    0    0  501 -0.00000000000E+00 -0.00000000000E+00 -0.83891137211E+02  0.83891137211E+02  0.00000000000E+00 0.  1.
         23    2    1    2    0    0  0.41198957719E+02  0.27593371732E+02  0.14516323198E+03  0.17862488610E+03  0.91519056693E+02 0.  0.
          5    1    1    2  502    0  0.13176040234E+02 -0.22568862898E+02 -0.52272470920E+02  0.58629879967E+02  0.47000000000E+01 0.  1.
         -5    1    1    2    0  502 -0.54374997953E+02 -0.50245088337E+01  0.52428313701E+02  0.75846583106E+02  0.47000000000E+01 0.  1.
        -11    1    3    3    0    0  0.74620914021E+01  0.34365925352E+02  0.13936053418E+03  0.14372911368E+03  0.00000000000E+00 0. -1.
         11    1    3    3    0    0  0.33736866317E+02 -0.67725536195E+01  0.58026977989E+01  0.34895772425E+02  0.00000000000E+00 0.  1.
<mgrwt>
<rscale>  0 0.12613498E+03</rscale>
<asrwt>0</asrwt>
<pdfrwt beam="1">  1        2 0.35263109E-01 0.13447637E+03</pdfrwt>
<pdfrwt beam="2">  1       -2 0.12906329E-01 0.13447637E+03</pdfrwt>
<totfact> 0.61328969E+03</totfact>
</mgrwt>
</event>
<event>
 7    1  0.1254976E-005  0.1504231E+03  0.7546771E-02  0.1221968E+00
          1   -1    0    0  501    0  0.00000000000E+00  0.00000000000E+00  0.97394637268E+02  0.97394637268E+02  0.00000000000E+00 0. -1.
         -1   -1    0    0    0  501 -0.00000000000E+00 -0.00000000000E+00 -0.30521256399E+03  0.30521256399E+03  0.00000000000E+00 0.  1.
         23    2    1    2    0    0  0.92174134806E+01  0.22173980786E+02  0.48172248292E+02  0.10569292938E+03  0.90960341244E+02 0.  0.
          5    1    1    2  502    0  0.62528336835E+02  0.20854112146E+02 -0.10038160691E+03  0.12018004788E+03  0.47000000000E+01 0. -1.
         -5    1    1    2    0  502 -0.71745750316E+02 -0.43028092932E+02 -0.15560856810E+03  0.17673422401E+03  0.47000000000E+01 0.  1.
        -11    1    3    3    0    0 -0.15621094821E+02  0.51285243608E+02  0.16719409142E+02  0.56158111234E+02  0.00000000000E+00 0.  1.
         11    1    3    3    0    0  0.24838508301E+02 -0.29111262821E+02  0.31452839150E+02  0.49534818141E+02  0.00000000000E+00 0. -1.
<mgrwt>
<rscale>  0 0.13376931E+03</rscale>
<asrwt>0</asrwt>
<pdfrwt beam="1">  1        1 0.14983790E-01 0.15042312E+03</pdfrwt>
<pdfrwt beam="2">  1       -1 0.46955779E-01 0.15042312E+03</pdfrwt>
<totfact> 0.16885598E+03</totfact>
</mgrwt>
</event>
<event>
 7    1  0.1641891E-005  0.1319279E+03  0.7546771E-02  0.1236126E+00
          1   -1    0    0  501    0  0.00000000000E+00  0.00000000000E+00  0.93121747733E+02  0.93121747733E+02  0.00000000000E+00 0. -1.
         -1   -1    0    0    0  501 -0.00000000000E+00 -0.00000000000E+00 -0.15247914610E+03  0.15247914610E+03  0.00000000000E+00 0.  1.
         23    2    1    2    0    0 -0.23555592332E+02 -0.35006685889E+02 -0.91806417720E+01  0.10445317106E+03  0.95109656581E+02 0.  0.
          5    1    1    2  502    0  0.28797451790E+02  0.75787790576E+02 -0.72703878554E+01  0.81535458358E+02  0.47000000000E+01 0. -1.
         -5    1    1    2    0  502 -0.52418594588E+01 -0.40781104687E+02 -0.42906368743E+02  0.59612264416E+02  0.47000000000E+01 0. -1.
        -11    1    3    3    0    0  0.60724314794E+01 -0.12555497156E+02 -0.48427536783E+02  0.50395845580E+02  0.00000000000E+00 0.  1.
         11    1    3    3    0    0 -0.29628023811E+02 -0.22451188732E+02  0.39246895010E+02  0.54057325483E+02  0.00000000000E+00 0. -1.
<mgrwt>
<rscale>  0 0.12432599E+03</rscale>
<asrwt>0</asrwt>
<pdfrwt beam="1">  1        1 0.14326423E-01 0.13192791E+03</pdfrwt>
<pdfrwt beam="2">  1       -1 0.23458330E-01 0.13192791E+03</pdfrwt>
<totfact> 0.58221413E+03</totfact>
</mgrwt>
</event>
<event>
 7    1  0.1254976E-005  0.2272678E+03  0.7546771E-02  0.1131739E+00
          1   -1    0    0  501    0  0.00000000000E+00  0.00000000000E+00  0.60118121854E+03  0.60118121854E+03  0.00000000000E+00 0. -1.
         -1   -1    0    0    0  501 -0.00000000000E+00 -0.00000000000E+00 -0.79622074322E+02  0.79622074322E+02  0.00000000000E+00 0.  1.
         23    2    1    2    0    0 -0.10062106936E+03  0.16093720700E+03  0.25285992216E+03  0.32888012552E+03  0.90546190023E+02 0.  0.
          5    1    1    2  502    0  0.84084505531E+02 -0.43994522641E+02  0.60892725191E+02  0.11285271850E+03  0.47000000000E+01 0.  1.
         -5    1    1    2    0  502  0.16536563829E+02 -0.11694268436E+03  0.20780649687E+03  0.23907044884E+03  0.47000000000E+01 0.  1.
        -11    1    3    3    0    0 -0.90084396636E+02  0.75983274015E+02  0.18629181755E+03  0.22043887527E+03  0.00000000000E+00 0.  1.
         11    1    3    3    0    0 -0.10536672723E+02  0.84953932987E+02  0.66568104613E+02  0.10844125024E+03  0.00000000000E+00 0. -1.
<mgrwt>
<rscale>  0 0.22290030E+03</rscale>
<asrwt>0</asrwt>
<pdfrwt beam="1">  1        1 0.92489415E-01 0.22726778E+03</pdfrwt>
<pdfrwt beam="2">  1       -1 0.12249550E-01 0.22726778E+03</pdfrwt>
<totfact> 0.15519484E+03</totfact>
</mgrwt>
</event>
<event>
 7    1  0.1254976E-005  0.1326114E+03  0.7546771E-02  0.1236744E+00
         -2   -1    0    0    0  501 -0.00000000000E+00  0.00000000000E+00  0.34438492178E+03  0.34438492178E+03  0.00000000000E+00 0.  1.
          2   -1    0    0  501    0  0.00000000000E+00 -0.00000000000E+00 -0.53869106200E+02  0.53869106200E+02  0.00000000000E+00 0. -1.
         23    2    1    2    0    0  0.34153482662E+02 -0.28190660412E+02  0.29327469156E+02  0.10532888895E+03  0.90955487394E+02 0.  0.
          5    1    1    2  502    0  0.95692923131E+01 -0.56818335796E+01 -0.10266090017E+02  0.15853617645E+02  0.47000000000E+01 0.  1.
         -5    1    1    2    0  502 -0.43722774976E+02  0.33872493991E+02  0.27145443644E+03  0.27707152139E+03  0.47000000000E+01 0.  1.
        -11    1    3    3    0    0  0.34281821896E+02  0.16026058381E+02 -0.16824082067E+02  0.41414099014E+02  0.00000000000E+00 0.  1.
         11    1    3    3    0    0 -0.12833923327E+00 -0.44216718792E+02  0.46151551223E+02  0.63914789932E+02  0.00000000000E+00 0. -1.
<mgrwt>
<rscale>  0 0.12393436E+03</rscale>
<asrwt>0</asrwt>
<pdfrwt beam="2">  1        2 0.82875550E-02 0.13261141E+03</pdfrwt>
<pdfrwt beam="1">  1       -2 0.52982294E-01 0.13261141E+03</pdfrwt>
<totfact> 0.26635467E+03</totfact>
</mgrwt>
</event>
<event>
 7    1  0.1254976E-005  0.1324971E+03  0.7546771E-02  0.1237500E+00
          4   -1    0    0  501    0  0.00000000000E+00  0.00000000000E+00  0.49330574442E+03  0.49330574442E+03  0.00000000000E+00 0. -1.
         -4   -1    0    0    0  501 -0.00000000000E+00 -0.00000000000E+00 -0.36538634356E+02  0.36538634356E+02  0.00000000000E+00 0.  1.
         23    2    1    2    0    0 -0.38558550702E+02 -0.21058862955E+02  0.33613515634E+03  0.35065859172E+03  0.89690395688E+02 0.  0.
          5    1    1    2  502    0  0.68943218024E+02 -0.25863344359E+02  0.85759369111E+02  0.11313195518E+03  0.47000000000E+01 0.  1.
         -5    1    1    2    0  502 -0.30384667322E+02  0.46922207314E+02  0.34872584613E+02  0.66053831873E+02  0.47000000000E+01 0.  1.
        -11    1    3    3    0    0 -0.57986063113E+02 -0.41000829377E+02  0.21750599113E+03  0.22880626675E+03  0.00000000000E+00 0.  1.
         11    1    3    3    0    0  0.19427512411E+02  0.19941966422E+02  0.11862916521E+03  0.12185232497E+03  0.00000000000E+00 0. -1.
<mgrwt>
<rscale>  0 0.12345728E+03</rscale>
<asrwt>0</asrwt>
<pdfrwt beam="1">  1        4 0.75893187E-01 0.13249709E+03</pdfrwt>
<pdfrwt beam="2">  1       -4 0.56213287E-02 0.13249709E+03</pdfrwt>
<totfact> 0.52132574E+02</totfact>
</mgrwt>
</event>
<event>
 7    1  0.1254976E-005  0.1401979E+03  0.7546771E-02  0.1224554E+00
         -1   -1    0    0    0  501 -0.00000000000E+00  0.00000000000E+00  0.41951360807E+03  0.41951360807E+03  0.00000000000E+00 0.  1.
          1   -1    0    0  501    0  0.00000000000E+00 -0.00000000000E+00 -0.76093547174E+02  0.76093547174E+02  0.00000000000E+00 0. -1.
         23    2    1    2    0    0  0.45763601606E+02 -0.44013072860E+02 -0.14659468378E+02  0.11106015567E+03  0.89933310572E+02 0.  0.
          5    1    1    2  502    0 -0.57549681343E+01  0.18851532575E+02  0.32735055922E+03  0.32797710066E+03  0.47000000000E+01 0. -1.
         -5    1    1    2    0  502 -0.40008633472E+02  0.25161540285E+02  0.30728970057E+02  0.56569898909E+02  0.47000000000E+01 0. -1.
        -11    1    3    3    0    0  0.39281087323E+01  0.19038492679E+02 -0.28138661178E+02  0.34200562782E+02  0.00000000000E+00 0. -1.
         11    1    3    3    0    0  0.41835492874E+02 -0.63051565539E+02  0.13479192800E+02  0.76859592891E+02  0.00000000000E+00 0.  1.
<mgrwt>
<rscale>  0 0.13197494E+03</rscale>
<asrwt>0</asrwt>
<pdfrwt beam="2">  1        1 0.11706700E-01 0.14019788E+03</pdfrwt>
<pdfrwt beam="1">  1       -1 0.64540554E-01 0.14019788E+03</pdfrwt>
<totfact> 0.12841796E+03</totfact>
</mgrwt>
</event>
<event>
 7    1  0.1254976E-005  0.1301595E+03  0.7546771E-02  0.1241079E+00
          2   -1    0    0  501    0  0.00000000000E+00  0.00000000000E+00  0.14690555472E+03  0.14690555472E+03  0.00000000000E+00 0. -1.
         -2   -1    0    0    0  501 -0.00000000000E+00 -0.00000000000E+00 -0.11506495677E+03  0.11506495677E+03  0.00000000000E+00 0.  1.
         23    2    1    2    0    0  0.22864407270E+02  0.28175649870E+02  0.76577878464E+02  0.12433723631E+03  0.90988617404E+02 0.  0.
          5    1    1    2  502    0 -0.39573750380E+01 -0.67816547410E+02 -0.60145384968E+02  0.90853190658E+02  0.47000000000E+01 0.  1.
         -5    1    1    2    0  502 -0.18907032232E+02  0.39640897540E+02  0.15408104446E+02  0.46780084525E+02  0.47000000000E+01 0.  1.
        -11    1    3    3    0    0  0.38134474897E+02  0.40385491603E+02  0.11948669015E+02  0.56815462674E+02  0.00000000000E+00 0.  1.
         11    1    3    3    0    0 -0.15270067627E+02 -0.12209841733E+02  0.64629209449E+02  0.67521773633E+02  0.00000000000E+00 0. -1.
<mgrwt>
<rscale>  0 0.12123158E+03</rscale>
<asrwt>0</asrwt>
<pdfrwt beam="1">  1        2 0.22600855E-01 0.13015950E+03</pdfrwt>
<pdfrwt beam="2">  1       -2 0.17702301E-01 0.13015950E+03</pdfrwt>
<totfact> 0.59277514E+03</totfact>
</mgrwt>
</event>
<event>
 7    1  0.1254976E-005  0.2629512E+03  0.7546771E-02  0.1107644E+00
          2   -1    0    0  501    0  0.00000000000E+00  0.00000000000E+00  0.57402913213E+03  0.57402913213E+03  0.00000000000E+00 0. -1.
         -2   -1    0    0    0  501 -0.00000000000E+00 -0.00000000000E+00 -0.11550166855E+03  0.11550166855E+03  0.00000000000E+00 0.  1.
         23    2    1    2    0    0  0.20913848315E+03 -0.98893459751E+02  0.18044742573E+03  0.30681443409E+03  0.89749662934E+02 0.  0.
          5    1    1    2  502    0 -0.12771982736E+03  0.37730749703E+02  0.68897611251E+02  0.15001644780E+03  0.47000000000E+01 0.  1.
         -5    1    1    2    0  502 -0.81418655785E+02  0.61162710048E+02  0.20918242660E+03  0.23269991879E+03  0.47000000000E+01 0.  1.
        -11    1    3    3    0    0  0.67114348824E+02 -0.55922951953E+02  0.22729397981E+02  0.90268144468E+02  0.00000000000E+00 0.  1.
         11    1    3    3    0    0  0.14202413433E+03 -0.42970507799E+02  0.15771802775E+03  0.21654628962E+03  0.00000000000E+00 0. -1.
<mgrwt>
<rscale>  0 0.25916767E+03</rscale>
<asrwt>0</asrwt>
<pdfrwt beam="1">  1        2 0.88312172E-01 0.26295115E+03</pdfrwt>
<pdfrwt beam="2">  1       -2 0.17769488E-01 0.26295115E+03</pdfrwt>
<totfact> 0.13676407E+03</totfact>
</mgrwt>
</event>
<event>
 7    1  0.1254976E-005  0.1305540E+03  0.7546771E-02  0.1239989E+00
          1   -1    0    0  501    0  0.00000000000E+00  0.00000000000E+00  0.37341069554E+03  0.37341069554E+03  0.00000000000E+00 0. -1.
         -1   -1    0    0    0  501 -0.00000000000E+00 -0.00000000000E+00 -0.43894732194E+02  0.43894732194E+02  0.00000000000E+00 0.  1.
         23    2    1    2    0    0 -0.37546864560E+02 -0.31616313948E+01  0.23802242238E+03  0.25788330545E+03  0.91811560942E+02 0.  0.
          5    1    1    2  502    0  0.79045144891E+02 -0.36744720337E-01  0.29284852035E+02  0.84426470018E+02  0.47000000000E+01 0.  1.
         -5    1    1    2    0  502 -0.41498280330E+02  0.31983761152E+01  0.62208688929E+02  0.74995652263E+02  0.47000000000E+01 0.  1.
        -11    1    3    3    0    0 -0.21939017776E+02 -0.33261394624E+02  0.38178973997E+02  0.55184009720E+02  0.00000000000E+00 0.  1.
         11    1    3    3    0    0 -0.15607846785E+02  0.30099763229E+02  0.19984344838E+03  0.20269929573E+03  0.00000000000E+00 0. -1.
<mgrwt>
<rscale>  0 0.12190382E+03</rscale>
<asrwt>0</asrwt>
<pdfrwt beam="1">  1        1 0.57447797E-01 0.13055399E+03</pdfrwt>
<pdfrwt beam="2">  1       -1 0.67530360E-02 0.13055399E+03</pdfrwt>
<totfact> 0.70370402E+03</totfact>
</mgrwt>
</event>
<event>
 7    1  0.1254976E-005  0.1436590E+03  0.7546771E-02  0.1218786E+00
          1   -1    0    0  501    0  0.00000000000E+00  0.00000000000E+00  0.61071328014E+03  0.61071328014E+03  0.00000000000E+00 0. -1.
         -1   -1    0    0    0  501 -0.00000000000E+00 -0.00000000000E+00 -0.35459208214E+02  0.35459208214E+02  0.00000000000E+00 0.  1.
         23    2    1    2    0    0  0.68937232671E+02  0.16081190191E+02  0.41587368749E+03  0.43160311549E+03  0.91210627830E+02 0.  0.
          5    1    1    2  502    0 -0.18022487896E+02 -0.66883943360E+02  0.96737627867E+02  0.11907363518E+03  0.47000000000E+01 0.  1.
         -5    1    1    2    0  502 -0.50914744775E+02  0.50802753170E+02  0.62642756570E+02  0.95495737684E+02  0.47000000000E+01 0.  1.
        -11    1    3    3    0    0 -0.12021349349E+02  0.30071346052E+02  0.94560437527E+02  0.99952363849E+02  0.00000000000E+00 0. -1.
         11    1    3    3    0    0  0.80958582020E+02 -0.13990155862E+02  0.32131324997E+03  0.33165075165E+03  0.00000000000E+00 0.  1.
<mgrwt>
<rscale>  0 0.13602061E+03</rscale>
<asrwt>0</asrwt>
<pdfrwt beam="1">  1        1 0.93955881E-01 0.14365900E+03</pdfrwt>
<pdfrwt beam="2">  1       -1 0.54552633E-02 0.14365900E+03</pdfrwt>
<totfact> 0.51327073E+03</totfact>
</mgrwt>
</event>
<event>
 7    1  0.1254976E-005  0.1533088E+03  0.7546771E-02  0.1204969E+00
          2   -1    0    0  501    0  0.00000000000E+00  0.00000000000E+00  0.18253878083E+03  0.18253878083E+03  0.00000000000E+00 0. -1.
         -2   -1    0    0    0  501 -0.00000000000E+00 -0.00000000000E+00 -0.10998367646E+03  0.10998367646E+03  0.00000000000E+00 0.  1.
         23    2    1    2    0    0 -0.79945673879E+02  0.38580132156E+02  0.13357646619E+02  0.12818160716E+03  0.91500602850E+02 0.  0.
          5    1    1    2  502    0 -0.22364528918E+01  0.39491168289E+02  0.14083636789E+02  0.42249176555E+02  0.47000000000E+01 0.  1.
         -5    1    1    2    0  502  0.82182126771E+02 -0.78071300446E+02  0.45113820959E+02  0.12209167357E+03  0.47000000000E+01 0.  1.
        -11    1    3    3    0    0 -0.82876530964E+02 -0.37280658586E+01 -0.22509744206E+01  0.82990871459E+02  0.00000000000E+00 0.  1.
         11    1    3    3    0    0  0.29308570849E+01  0.42308198015E+02  0.15608621039E+02  0.45190735702E+02  0.00000000000E+00 0. -1.
<mgrwt>
<rscale>  0 0.14639927E+03</rscale>
<asrwt>0</asrwt>
<pdfrwt beam="1">  1        2 0.28082889E-01 0.15330876E+03</pdfrwt>
<pdfrwt beam="2">  1       -2 0.16920566E-01 0.15330876E+03</pdfrwt>
<totfact> 0.50807914E+03</totfact>
</mgrwt>
</event>
<event>
 7    1  0.1254976E-005  0.1646853E+03  0.7546771E-02  0.1189299E+00
          1   -1    0    0  501    0  0.00000000000E+00  0.00000000000E+00  0.55283456072E+02  0.55283456072E+02  0.00000000000E+00 0. -1.
         -1   -1    0    0    0  501 -0.00000000000E+00 -0.00000000000E+00 -0.70104771405E+03  0.70104771405E+03  0.00000000000E+00 0.  1.
         23    2    1    2    0    0 -0.62597340310E+02  0.93271482452E+02 -0.76559178566E+02  0.16378102758E+03  0.91350537597E+02 0.  0.
          5    1    1    2  502    0 -0.20802365698E+02  0.12833986395E+02 -0.47201933548E+02  0.53362553875E+02  0.47000000000E+01 0. -1.
         -5    1    1    2    0  502  0.83399706009E+02 -0.10610546885E+03 -0.52200314586E+03  0.53918758867E+03  0.47000000000E+01 0.  1.
        -11    1    3    3    0    0  0.10420588248E+02 -0.12470623057E+02 -0.96867891737E+01  0.18919275445E+02  0.00000000000E+00 0.  1.
         11    1    3    3    0    0 -0.73017928558E+02  0.10574210551E+03 -0.66872389392E+02  0.14486175213E+03  0.00000000000E+00 0. -1.
<mgrwt>
<rscale>  0 0.15946765E+03</rscale>
<asrwt>0</asrwt>
<pdfrwt beam="1">  1        1 0.85051473E-02 0.16468530E+03</pdfrwt>
<pdfrwt beam="2">  1       -1 0.10785349E+00 0.16468530E+03</pdfrwt>
<totfact> 0.67536152E+02</totfact>
</mgrwt>
</event>
<event>
 7    1  0.1254976E-005  0.2232764E+03  0.7546771E-02  0.1134801E+00
         -1   -1    0    0    0  501 -0.00000000000E+00  0.00000000000E+00  0.27179068837E+03  0.27179068837E+03  0.00000000000E+00 0.  1.
          1   -1    0    0  501    0  0.00000000000E+00 -0.00000000000E+00 -0.16937636313E+03  0.16937636313E+03  0.00000000000E+00 0. -1.
         23    2    1    2    0    0 -0.14954667812E+03 -0.10891419043E+03  0.52027828687E+02  0.21227590145E+03  0.90153500014E+02 0.  0.
          5    1    1    2  502    0  0.16913985501E+03  0.79781736329E+02  0.49277650851E+02  0.19345230130E+03  0.47000000000E+01 0.  1.
         -5    1    1    2    0  502 -0.19593176890E+02  0.29132454100E+02  0.11088456996E+01  0.35438848758E+02  0.47000000000E+01 0.  1.
        -11    1    3    3    0    0 -0.14863165059E+03 -0.66649629558E+02  0.47966858531E+02  0.16980683200E+03  0.00000000000E+00 0.  1.
         11    1    3    3    0    0 -0.91502752876E+00 -0.42264560871E+02  0.40609701551E+01  0.42469069446E+02  0.00000000000E+00 0. -1.
<mgrwt>
<rscale>  0 0.21877322E+03</rscale>
<asrwt>0</asrwt>
<pdfrwt beam="2">  1        1 0.26057902E-01 0.22327642E+03</pdfrwt>
<pdfrwt beam="1">  1       -1 0.41813952E-01 0.22327642E+03</pdfrwt>
<totfact> 0.10320890E+03</totfact>
</mgrwt>
</event>
<event>
 7    1  0.1254976E-005  0.1697501E+03  0.7546771E-02  0.1184657E+00
          3   -1    0    0  501    0  0.00000000000E+00  0.00000000000E+00  0.47944240952E+03  0.47944240952E+03  0.00000000000E+00 0. -1.
         -3   -1    0    0    0  501 -0.00000000000E+00 -0.00000000000E+00 -0.53384336119E+02  0.53384336119E+02  0.00000000000E+00 0.  1.
         23    2    1    2    0    0  0.30000683091E+02 -0.11064639158E+03  0.23778426026E+03  0.27932698193E+03  0.91321100789E+02 0.  0.
          5    1    1    2  502    0 -0.90607504422E+01 -0.25124948332E+02  0.58412600159E+02  0.64400947855E+02  0.47000000000E+01 0.  1.
         -5    1    1    2    0  502 -0.20939932649E+02  0.13577133991E+03  0.12986121298E+03  0.18909881585E+03  0.47000000000E+01 0.  1.
        -11    1    3    3    0    0  0.23350558131E+02 -0.48211142126E+02  0.19771321462E+03  0.20484159252E+03  0.00000000000E+00 0. -1.
         11    1    3    3    0    0  0.66501249601E+01 -0.62435249455E+02  0.40071045638E+02  0.74485389406E+02  0.00000000000E+00 0.  1.
<mgrwt>
<rscale>  0 0.16363169E+03</rscale>
<asrwt>0</asrwt>
<pdfrwt beam="1">  1        3 0.73760368E-01 0.16975011E+03</pdfrwt>
<pdfrwt beam="2">  1       -3 0.82129751E-02 0.16975011E+03</pdfrwt>
<totfact> 0.43539434E+02</totfact>
</mgrwt>
</event>
<event>
 7    1  0.1254976E-005  0.1366520E+03  0.7546771E-02  0.1229496E+00
         -2   -1    0    0    0  501 -0.00000000000E+00  0.00000000000E+00  0.10318481776E+03  0.10318481776E+03  0.00000000000E+00 0.  1.
          2   -1    0    0  501    0  0.00000000000E+00 -0.00000000000E+00 -0.16768793617E+03  0.16768793617E+03  0.00000000000E+00 0. -1.
         23    2    1    2    0    0  0.26954935630E+02 -0.48193279194E+02 -0.79303641512E+02  0.13342153656E+03  0.91994989795E+02 0.  0.
          5    1    1    2  502    0 -0.42998957673E+02  0.50236343436E+02 -0.41818387490E+02  0.78380278738E+02  0.47000000000E+01 0. -1.
         -5    1    1    2    0  502  0.16044022043E+02 -0.20430642415E+01  0.56618910588E+02  0.59070938633E+02  0.47000000000E+01 0. -1.
        -11    1    3    3    0    0 -0.30755636096E+02 -0.31535506185E+02 -0.49845037596E+02  0.66520110305E+02  0.00000000000E+00 0. -1.
         11    1    3    3    0    0  0.57710571726E+02 -0.16657773010E+02 -0.29458603916E+02  0.66901426257E+02  0.00000000000E+00 0.  1.
<mgrwt>
<rscale>  0 0.12863439E+03</rscale>
<asrwt>0</asrwt>
<pdfrwt beam="2">  1        2 0.25798144E-01 0.13665205E+03</pdfrwt>
<pdfrwt beam="1">  1       -2 0.15874588E-01 0.13665205E+03</pdfrwt>
<totfact> 0.61517877E+03</totfact>
</mgrwt>
</event>
<event>
 7    1  0.1254976E-005  0.1505455E+03  0.7546771E-02  0.1208761E+00
         -1   -1    0    0    0  501 -0.00000000000E+00  0.00000000000E+00  0.38181997048E+03  0.38181997048E+03  0.00000000000E+00 0.  1.
          1   -1    0    0  501    0  0.00000000000E+00 -0.00000000000E+00 -0.71961688885E+02  0.71961688885E+02  0.00000000000E+00 0. -1.
         23    2    1    2    0    0 -0.83720418060E+02  0.53388683713E+01  0.18027434076E+02  0.12540809245E+03  0.91458128983E+02 0.  0.
          5    1    1    2  502    0  0.11409801782E+03 -0.69865711315E+01  0.18799973021E+03  0.22007534711E+03  0.47000000000E+01 0.  1.
         -5    1    1    2    0  502 -0.30377599757E+02  0.16477027602E+01  0.10383111731E+03  0.10829821980E+03  0.47000000000E+01 0.  1.
        -11    1    3    3    0    0 -0.49343144729E+00  0.12977397392E+02 -0.27372049274E+02  0.30296623560E+02  0.00000000000E+00 0. -1.
         11    1    3    3    0    0 -0.83226986613E+02 -0.76385290203E+01  0.45399483349E+02  0.95111468891E+02  0.00000000000E+00 0.  1.
<mgrwt>
<rscale>  0 0.14344940E+03</rscale>
<asrwt>0</asrwt>
<pdfrwt beam="2">  1        1 0.11071029E-01 0.15054553E+03</pdfrwt>
<pdfrwt beam="1">  1       -1 0.58741533E-01 0.15054553E+03</pdfrwt>
<totfact> 0.16592005E+03</totfact>
</mgrwt>
</event>
<event>
 7    1  0.1254976E-005  0.1273507E+03  0.7546771E-02  0.1246667E+00
         -4   -1    0    0    0  501 -0.00000000000E+00  0.00000000000E+00  0.23206197657E+02  0.23206197657E+02  0.00000000000E+00 0.  1.
          4   -1    0    0  501    0  0.00000000000E+00 -0.00000000000E+00 -0.56038415804E+03  0.56038415804E+03  0.00000000000E+00 0. -1.
         23    2    1    2    0    0 -0.23314726659E+02  0.74854973966E+01 -0.30230404413E+03  0.31641261569E+03  0.90164289589E+02 0.  0.
          5    1    1    2  502    0 -0.67922257439E+01  0.36478254823E+02 -0.14027731055E+02  0.39945771291E+02  0.47000000000E+01 0. -1.
         -5    1    1    2    0  502  0.30106952403E+02 -0.43963752219E+02 -0.22084618520E+03  0.22723196873E+03  0.47000000000E+01 0. -1.
        -11    1    3    3    0    0 -0.50859248391E+02 -0.16349403943E+02 -0.13493102345E+03  0.14512183587E+03  0.00000000000E+00 0. -1.
         11    1    3    3    0    0  0.27544521732E+02  0.23834901339E+02 -0.16737302068E+03  0.17129077982E+03  0.00000000000E+00 0.  1.
<mgrwt>
<rscale>  0 0.11786171E+03</rscale>
<asrwt>0</asrwt>
<pdfrwt beam="2">  1        4 0.86212953E-01 0.12735065E+03</pdfrwt>
<pdfrwt beam="1">  1       -4 0.35701840E-02 0.12735065E+03</pdfrwt>
<totfact> 0.80503313E+02</totfact>
</mgrwt>
</event>
<event>
 7    1  0.1254976E-005  0.1504022E+03  0.7546771E-02  0.1204692E+00
          2   -1    0    0  501    0  0.00000000000E+00  0.00000000000E+00  0.65163042007E+03  0.65163042007E+03  0.00000000000E+00 0. -1.
         -2   -1    0    0    0  501 -0.00000000000E+00 -0.00000000000E+00 -0.34149929457E+02  0.34149929457E+02  0.00000000000E+00 0.  1.
         23    2    1    2    0    0 -0.83635872692E+02  0.34770808432E+00  0.39090363410E+03  0.41382833580E+03  0.10701943868E+03 0.  0.
          5    1    1    2  502    0  0.36282471989E+02 -0.19289051105E+02  0.17832575388E+01  0.41397527386E+02  0.47000000000E+01 0.  1.
         -5    1    1    2    0  502  0.47353400702E+02  0.18941343021E+02  0.22479359898E+03  0.23055448635E+03  0.47000000000E+01 0.  1.
        -11    1    3    3    0    0  0.19943673922E+02  0.57655342234E+01  0.20497710791E+02  0.29174435077E+02  0.00000000000E+00 0.  1.
         11    1    3    3    0    0 -0.10357954661E+03 -0.54178261390E+01  0.37040592331E+03  0.38465390072E+03  0.00000000000E+00 0. -1.
<mgrwt>
<rscale>  0 0.14661724E+03</rscale>
<asrwt>0</asrwt>
<pdfrwt beam="1">  1        2 0.10025082E+00 0.15040221E+03</pdfrwt>
<pdfrwt beam="2">  1       -2 0.52538358E-02 0.15040221E+03</pdfrwt>
<totfact> 0.80206013E+03</totfact>
</mgrwt>
</event>
<event>
 7    1  0.1254976E-005  0.1498223E+03  0.7546771E-02  0.1207834E+00
          3   -1    0    0  501    0  0.00000000000E+00  0.00000000000E+00  0.56466010505E+03  0.56466010505E+03  0.00000000000E+00 0. -1.
         -3   -1    0    0    0  501 -0.00000000000E+00 -0.00000000000E+00 -0.38491917351E+02  0.38491917351E+02  0.00000000000E+00 0.  1.
         23    2    1    2    0    0 -0.73135159471E+02  0.44409964982E+02  0.34456335479E+03  0.36772251928E+03  0.95785955011E+02 0.  0.
          5    1    1    2  502    0  0.29712677342E+02 -0.15141219897E+02  0.17968965966E+03  0.18281838946E+03  0.47000000000E+01 0. -1.
         -5    1    1    2    0  502  0.43422482129E+02 -0.29268745085E+02  0.19151732510E+01  0.52611113671E+02  0.47000000000E+01 0.  1.
        -11    1    3    3    0    0 -0.90662749946E+02  0.55577374943E+02  0.26632711806E+03  0.28677292872E+03  0.00000000000E+00 0.  1.
         11    1    3    3    0    0  0.17527590475E+02 -0.11167409962E+02  0.78236236734E+02  0.80949590558E+02  0.00000000000E+00 0. -1.
<mgrwt>
<rscale>  0 0.14416326E+03</rscale>
<asrwt>0</asrwt>
<pdfrwt beam="1">  1        3 0.86870779E-01 0.14982235E+03</pdfrwt>
<pdfrwt beam="2">  1       -3 0.59218339E-02 0.14982235E+03</pdfrwt>
<totfact> 0.50921585E+02</totfact>
</mgrwt>
</event>
<event>
 7    1  0.1254976E-005  0.1449595E+03  0.7546771E-02  0.1215442E+00
         -1   -1    0    0    0  501 -0.00000000000E+00  0.00000000000E+00  0.49763221606E+03  0.49763221606E+03  0.00000000000E+00 0.  1.
          1   -1    0    0  501    0  0.00000000000E+00 -0.00000000000E+00 -0.35859232926E+02  0.35859232926E+02  0.00000000000E+00 0. -1.
         23    2    1    2    0    0 -0.65423810444E+02  0.33314674487E+02  0.18079493749E+03  0.21732389374E+03  0.95669863904E+02 0.  0.
          5    1    1    2  502    0  0.10225066150E+03 -0.25098271132E+02  0.22546374143E+03  0.24887970928E+03  0.47000000000E+01 0.  1.
         -5    1    1    2    0  502 -0.36826851054E+02 -0.82164033547E+01  0.55514304210E+02  0.67287845965E+02  0.47000000000E+01 0.  1.
        -11    1    3    3    0    0  0.23517165872E+02 -0.44754896510E+01  0.37416452510E+02  0.44419342822E+02  0.00000000000E+00 0.  1.
         11    1    3    3    0    0 -0.88940976315E+02  0.37790164138E+02  0.14337848498E+03  0.17290455092E+03  0.00000000000E+00 0. -1.
<mgrwt>
<rscale>  0 0.13844150E+03</rscale>
<asrwt>0</asrwt>
<pdfrwt beam="2">  1        1 0.55168054E-02 0.14495951E+03</pdfrwt>
<pdfrwt beam="1">  1       -1 0.76558797E-01 0.14495951E+03</pdfrwt>
<totfact> 0.25171137E+03</totfact>
</mgrwt>
</event>
<event>
 7    1  0.1254976E-005  0.1438871E+03  0.7546771E-02  0.1218641E+00
          2   -1    0    0  501    0  0.00000000000E+00  0.00000000000E+00  0.42545116005E+02  0.42545116005E+02  0.00000000000E+00 0. -1.
         -2   -1    0    0    0  501 -0.00000000000E+00 -0.00000000000E+00 -0.39610648851E+03  0.39610648851E+03  0.00000000000E+00 0.  1.
         23    2    1    2    0    0  0.50095144308E+02 -0.50081849625E+02 -0.17066264806E+03  0.20593840657E+03  0.90923994169E+02 0.  0.
          5    1    1    2  502    0  0.31706223365E+02  0.43939142474E+02 -0.11067629873E+03  0.12331774383E+03  0.47000000000E+01 0.  1.
         -5    1    1    2    0  502 -0.81801367673E+02  0.61427071511E+01 -0.72222425716E+02  0.10939545411E+03  0.47000000000E+01 0.  1.
        -11    1    3    3    0    0 -0.21169870688E+02 -0.12913817719E+01 -0.70802389802E+02  0.73910821221E+02  0.00000000000E+00 0.  1.
         11    1    3    3    0    0  0.71265014996E+02 -0.48790467853E+02 -0.99860258255E+02  0.13202758535E+03  0.00000000000E+00 0. -1.
<mgrwt>
<rscale>  0 0.13612443E+03</rscale>
<asrwt>0</asrwt>
<pdfrwt beam="1">  1        2 0.65454025E-02 0.14388707E+03</pdfrwt>
<pdfrwt beam="2">  1       -2 0.60939459E-01 0.14388707E+03</pdfrwt>
<totfact> 0.27155563E+03</totfact>
</mgrwt>
</event>
<event>
 7    1  0.1254976E-005  0.3378958E+03  0.7546771E-02  0.1115541E+00
         -2   -1    0    0    0  501 -0.00000000000E+00  0.00000000000E+00  0.76448686215E+02  0.76448686215E+02  0.00000000000E+00 0.  1.
          2   -1    0    0  501    0  0.00000000000E+00 -0.00000000000E+00 -0.65983708432E+03  0.65983708432E+03  0.00000000000E+00 0. -1.
         23    2    1    2    0    0 -0.21806959917E+02  0.18951476595E+02 -0.22088924156E+03  0.24072630910E+03  0.91227171908E+02 0.  0.
          5    1    1    2  502    0  0.11142106328E+03  0.54069379016E+02 -0.35902481883E+03  0.37981450950E+03  0.47000000000E+01 0. -1.
         -5    1    1    2    0  502 -0.89614103367E+02 -0.73020855612E+02 -0.34743377283E+01  0.11574495194E+03  0.47000000000E+01 0.  1.
        -11    1    3    3    0    0 -0.26995036633E+02  0.50966607088E+02 -0.17696219940E+03  0.18612347261E+03  0.00000000000E+00 0.  1.
         11    1    3    3    0    0  0.51880767160E+01 -0.32015130493E+02 -0.43927042157E+02  0.54602836494E+02  0.00000000000E+00 0. -1.
<mgrwt>
<rscale>  0 0.24649425E+03</rscale>
<asrwt>0</asrwt>
<pdfrwt beam="2">  1        2 0.10151340E+00 0.33789576E+03</pdfrwt>
<pdfrwt beam="1">  1       -2 0.11761336E-01 0.33789576E+03</pdfrwt>
<totfact> 0.23055503E+03</totfact>
</mgrwt>
</event>
<event>
 7    1  0.1254976E-005  0.1300504E+03  0.7546771E-02  0.1241330E+00
         -2   -1    0    0    0  501 -0.00000000000E+00  0.00000000000E+00  0.23118940302E+02  0.23118940302E+02  0.00000000000E+00 0.  1.
          2   -1    0    0  501    0  0.00000000000E+00 -0.00000000000E+00 -0.57710365511E+03  0.57710365511E+03  0.00000000000E+00 0. -1.
         23    2    1    2    0    0  0.34533814658E+02 -0.97127503300E+01 -0.28849731218E+03  0.30459333062E+03  0.90881659568E+02 0.  0.
          5    1    1    2  502    0  0.36611658118E+02  0.36030481437E+02 -0.13642812450E+03  0.14585380440E+03  0.47000000000E+01 0. -1.
         -5    1    1    2    0  502 -0.71145472776E+02 -0.26317731107E+02 -0.12905927813E+03  0.14977546040E+03  0.47000000000E+01 0. -1.
        -11    1    3    3    0    0 -0.17568133600E+02 -0.18752051730E+02 -0.25030248892E+02  0.35871884839E+02  0.00000000000E+00 0.  1.
         11    1    3    3    0    0  0.52101948259E+02  0.90393013999E+01 -0.26346706329E+03  0.26872144578E+03  0.00000000000E+00 0. -1.
<mgrwt>
<rscale>  0 0.12107756E+03</rscale>
<asrwt>0</asrwt>
<pdfrwt beam="2">  1        2 0.88785172E-01 0.13005038E+03</pdfrwt>
<pdfrwt beam="1">  1       -2 0.35567603E-02 0.13005038E+03</pdfrwt>
<totfact> 0.16338497E+04</totfact>
</mgrwt>
</event>
<event>
 7    1  0.1254976E-005  0.3247654E+03  0.7546771E-02  0.1074761E+00
         -2   -1    0    0    0  501 -0.00000000000E+00  0.00000000000E+00  0.78837834354E+02  0.78837834354E+02  0.00000000000E+00 0. -1.
          2   -1    0    0  501    0  0.00000000000E+00 -0.00000000000E+00 -0.13051916633E+04  0.13051916633E+04  0.00000000000E+00 0.  1.
         23    2    1    2    0    0  0.26665745633E+03 -0.13690139651E+03 -0.67149305402E+03  0.74111189608E+03  0.92172281793E+02 0.  0.
          5    1    1    2  502    0 -0.23371050417E+03  0.13481610387E+03 -0.54499536850E+03  0.60814309444E+03  0.47000000000E+01 0.  1.
         -5    1    1    2    0  502 -0.32946952163E+02  0.20852926317E+01 -0.98654064171E+01  0.34774507127E+02  0.47000000000E+01 0.  1.
        -11    1    3    3    0    0  0.24464621066E+03 -0.11107579130E+03 -0.64272961610E+03  0.69662827908E+03  0.00000000000E+00 0.  1.
         11    1    3    3    0    0  0.22011245671E+02 -0.25825605207E+02 -0.28763437920E+02  0.44483616999E+02  0.00000000000E+00 0. -1.
<mgrwt>
<rscale>  0 0.32193690E+03</rscale>
<asrwt>0</asrwt>
<pdfrwt beam="2">  1        2 0.20079870E+00 0.32476540E+03</pdfrwt>
<pdfrwt beam="1">  1       -2 0.12128899E-01 0.32476540E+03</pdfrwt>
<totfact> 0.84563927E+02</totfact>
</mgrwt>
</event>
<event>
 7    1  0.1254976E-005  0.1385427E+03  0.7546771E-02  0.1227370E+00
          1   -1    0    0  501    0  0.00000000000E+00  0.00000000000E+00  0.24001826226E+03  0.24001826226E+03  0.00000000000E+00 0. -1.
         -1   -1    0    0    0  501 -0.00000000000E+00 -0.00000000000E+00 -0.13546368656E+03  0.13546368656E+03  0.00000000000E+00 0.  1.
         23    2    1    2    0    0  0.43375110775E+02  0.41005281611E+02  0.18592278134E+03  0.21481192726E+03  0.89521227178E+02 0.  0.
          5    1    1    2  502    0  0.23946489861E+02 -0.36030734844E+02  0.12201853793E+02  0.45195392089E+02  0.47000000000E+01 0. -1.
         -5    1    1    2    0  502 -0.67321600636E+02 -0.49745467662E+01 -0.93570059437E+02  0.11547462947E+03  0.47000000000E+01 0. -1.
        -11    1    3    3    0    0  0.37760513546E+02  0.51923373048E+02  0.19101860301E+03  0.20151922922E+03  0.00000000000E+00 0. -1.
         11    1    3    3    0    0  0.56145972296E+01 -0.10918091437E+02 -0.50958216629E+01  0.13292698037E+02  0.00000000000E+00 0.  1.
<mgrwt>
<rscale>  0 0.13005786E+03</rscale>
<asrwt>0</asrwt>
<pdfrwt beam="1">  1        1 0.36925886E-01 0.13854267E+03</pdfrwt>
<pdfrwt beam="2">  1       -1 0.20840567E-01 0.13854267E+03</pdfrwt>
<totfact> 0.21393253E+03</totfact>
</mgrwt>
</event>
<event>
 7    1  0.1254976E-005  0.1683173E+03  0.7546771E-02  0.1183687E+00
          2   -1    0    0  501    0  0.00000000000E+00  0.00000000000E+00  0.13057802239E+03  0.13057802239E+03  0.00000000000E+00 0. -1.
         -2   -1    0    0    0  501 -0.00000000000E+00 -0.00000000000E+00 -0.21530490186E+03  0.21530490186E+03  0.00000000000E+00 0.  1.
         23    2    1    2    0    0 -0.60425498172E+02  0.95159601667E+02  0.77606566658E+01  0.15382910972E+03  0.10438666863E+03 0.  0.
          5    1    1    2  502    0  0.91449266365E+02 -0.10092915489E+03 -0.77916937854E+02  0.15698025937E+03  0.47000000000E+01 0. -1.
         -5    1    1    2    0  502 -0.31023768193E+02  0.57695532257E+01 -0.14570598285E+02  0.35073555161E+02  0.47000000000E+01 0. -1.
        -11    1    3    3    0    0  0.12325349310E+02  0.56778135152E+02  0.34213225642E+02  0.67425630704E+02  0.00000000000E+00 0. -1.
         11    1    3    3    0    0 -0.72750847482E+02  0.38381466515E+02 -0.26452568977E+02  0.86403479019E+02  0.00000000000E+00 0.  1.
<mgrwt>
<rscale>  0 0.16451970E+03</rscale>
<asrwt>0</asrwt>
<pdfrwt beam="1">  1        2 0.20088927E-01 0.16831733E+03</pdfrwt>
<pdfrwt beam="2">  1       -2 0.33123831E-01 0.16831733E+03</pdfrwt>
<totfact> 0.23011450E+03</totfact>
</mgrwt>
</event>
<event>
 7    1  0.1254976E-005  0.2926876E+03  0.7546771E-02  0.1090558E+00
         -1   -1    0    0    0  501 -0.00000000000E+00  0.00000000000E+00  0.61626722953E+03  0.61626722953E+03  0.00000000000E+00 0.  1.
          1   -1    0    0  501    0  0.00000000000E+00 -0.00000000000E+00 -0.13386193860E+03  0.13386193860E+03  0.00000000000E+00 0. -1.
         23    2    1    2    0    0  0.11931690117E+03 -0.23623097714E+03  0.21171385577E+03  0.35145649204E+03  0.93044675326E+02 0.  0.
          5    1    1    2  502    0 -0.11704567155E+03  0.14997145045E+03  0.12003935937E+03  0.22499480655E+03  0.47000000000E+01 0. -1.
         -5    1    1    2    0  502 -0.22712296237E+01  0.86259526689E+02  0.15065207578E+03  0.17367786954E+03  0.47000000000E+01 0. -1.
        -11    1    3    3    0    0  0.50730249527E+02 -0.21566016742E+02  0.38902516055E+02  0.67468933966E+02  0.00000000000E+00 0.  1.
         11    1    3    3    0    0  0.68586651642E+02 -0.21466496039E+03  0.17281133971E+03  0.28398755807E+03  0.00000000000E+00 0. -1.
<mgrwt>
<rscale>  0 0.28960054E+03</rscale>
<asrwt>0</asrwt>
<pdfrwt beam="2">  1        1 0.20594145E-01 0.29268763E+03</pdfrwt>
<pdfrwt beam="1">  1       -1 0.94810341E-01 0.29268763E+03</pdfrwt>
<totfact> 0.27964501E+02</totfact>
</mgrwt>
</event>
<event>
 7    1  0.1254976E-005  0.1615828E+03  0.7546771E-02  0.1194874E+00
          1   -1    0    0  501    0  0.00000000000E+00  0.00000000000E+00  0.89277724452E+03  0.89277724452E+03  0.00000000000E+00 0. -1.
         -1   -1    0    0    0  501 -0.00000000000E+00 -0.00000000000E+00 -0.25335190631E+02  0.25335190631E+02  0.00000000000E+00 0.  1.
         23    2    1    2    0    0 -0.10234726719E+03 -0.30414829374E+01  0.46746371729E+03  0.48672899055E+03  0.88873896823E+02 0.  0.
          5    1    1    2  502    0  0.12595070050E+03  0.22376614615E+02  0.28681622644E+03  0.31408586340E+03  0.47000000000E+01 0.  1.
         -5    1    1    2    0  502 -0.23603433305E+02 -0.19335131678E+02  0.11316211016E+03  0.11729758121E+03  0.47000000000E+01 0.  1.
        -11    1    3    3    0    0 -0.11647298996E+02  0.78193867817E+01  0.43432912800E+01  0.14685590308E+02  0.00000000000E+00 0.  1.
         11    1    3    3    0    0 -0.90699968196E+02 -0.10860869719E+02  0.46312042601E+03  0.47204340024E+03  0.00000000000E+00 0. -1.
<mgrwt>
<rscale>  0 0.15464924E+03</rscale>
<asrwt>0</asrwt>
<pdfrwt beam="1">  1        1 0.13735032E+00 0.16158282E+03</pdfrwt>
<pdfrwt beam="2">  1       -1 0.38977223E-02 0.16158282E+03</pdfrwt>
<totfact> 0.48537749E+03</totfact>
</mgrwt>
</event>
<event>
 7    1  0.1254976E-005  0.1268218E+03  0.7546771E-02  0.1247599E+00
         -4   -1    0    0    0  501 -0.00000000000E+00  0.00000000000E+00  0.40913635280E+02  0.40913635280E+02  0.00000000000E+00 0.  1.
          4   -1    0    0  501    0  0.00000000000E+00 -0.00000000000E+00 -0.31934010726E+03  0.31934010726E+03  0.00000000000E+00 0. -1.
         23    2    1    2    0    0  0.18264257379E+02  0.49289762423E+01 -0.16864999181E+03  0.19251991208E+03  0.90902249184E+02 0.  0.
          5    1    1    2  502    0  0.17151519882E+02 -0.18772032237E+02 -0.12414824841E+03  0.12681262324E+03  0.47000000000E+01 0. -1.
         -5    1    1    2    0  502 -0.35415777260E+02  0.13843055995E+02  0.14371768239E+02  0.40921207223E+02  0.47000000000E+01 0.  1.
        -11    1    3    3    0    0 -0.23581352215E+02  0.10592902637E+02 -0.13785127421E+03  0.14025428179E+03  0.00000000000E+00 0.  1.
         11    1    3    3    0    0  0.41845609594E+02 -0.56639263946E+01 -0.30798717604E+02  0.52265630299E+02  0.00000000000E+00 0. -1.
<mgrwt>
<rscale>  0 0.11731153E+03</rscale>
<asrwt>0</asrwt>
<pdfrwt beam="2">  1        4 0.49129249E-01 0.12682177E+03</pdfrwt>
<pdfrwt beam="1">  1       -4 0.62944052E-02 0.12682177E+03</pdfrwt>
<totfact> 0.10741202E+03</totfact>
</mgrwt>
</event>
<event>
 7    1  0.1254976E-005  0.1287104E+03  0.7546771E-02  0.1245210E+00
         -1   -1    0    0    0  501 -0.00000000000E+00  0.00000000000E+00  0.28077497237E+03  0.28077497237E+03  0.00000000000E+00 0.  1.
          1   -1    0    0  501    0  0.00000000000E+00 -0.00000000000E+00 -0.46774994993E+02  0.46774994993E+02  0.00000000000E+00 0. -1.
         23    2    1    2    0    0 -0.23816129156E+02 -0.19335791061E+02  0.58936965018E+02  0.11026343290E+03  0.87996465644E+02 0.  0.
          5    1    1    2  502    0  0.10096797838E+02  0.69377704862E+02  0.65926316370E+02  0.96351338593E+02  0.47000000000E+01 0.  1.
         -5    1    1    2    0  502  0.13719331318E+02 -0.50041913800E+02  0.10913669599E+03  0.12093519587E+03  0.47000000000E+01 0.  1.
        -11    1    3    3    0    0 -0.25556111377E+02 -0.45663823355E+01  0.80210540914E+02  0.84307161914E+02  0.00000000000E+00 0.  1.
         11    1    3    3    0    0  0.17399822209E+01 -0.14769408726E+02 -0.21273575895E+02  0.25956270988E+02  0.00000000000E+00 0. -1.
<mgrwt>
<rscale>  0 0.11872801E+03</rscale>
<asrwt>0</asrwt>
<pdfrwt beam="2">  1        1 0.71961532E-02 0.12871045E+03</pdfrwt>
<pdfrwt beam="1">  1       -1 0.43196149E-01 0.12871045E+03</pdfrwt>
<totfact> 0.51336021E+03</totfact>
</mgrwt>
</event>
<event>
 7    1  0.1254976E-005  0.1524340E+03  0.7546771E-02  0.1206122E+00
          1   -1    0    0  501    0  0.00000000000E+00  0.00000000000E+00  0.53034699130E+03  0.53034699130E+03  0.00000000000E+00 0. -1.
         -1   -1    0    0    0  501 -0.00000000000E+00 -0.00000000000E+00 -0.37153030962E+02  0.37153030962E+02  0.00000000000E+00 0.  1.
         23    2    1    2    0    0  0.38564729116E+02  0.78273427342E+02  0.19206604034E+03  0.22998832417E+03  0.91604026334E+02 0.  0.
          5    1    1    2  502    0 -0.34926154095E+02 -0.69077612996E+02  0.65157646470E+02  0.10128752021E+03  0.47000000000E+01 0.  1.
         -5    1    1    2    0  502 -0.36385750212E+01 -0.91958143460E+01  0.23597027353E+03  0.23622417789E+03  0.47000000000E+01 0.  1.
        -11    1    3    3    0    0  0.50939156884E+01  0.67610847941E+02  0.51621000347E+02  0.85216796543E+02  0.00000000000E+00 0.  1.
         11    1    3    3    0    0  0.33470813427E+02  0.10662579401E+02  0.14044503999E+03  0.14477152762E+03  0.00000000000E+00 0. -1.
<mgrwt>
<rscale>  0 0.14549371E+03</rscale>
<asrwt>0</asrwt>
<pdfrwt beam="1">  1        1 0.81591839E-01 0.15243399E+03</pdfrwt>
<pdfrwt beam="2">  1       -1 0.57158513E-02 0.15243399E+03</pdfrwt>
<totfact> 0.58081523E+03</totfact>
</mgrwt>
</event>
<event>
 7    1  0.1254976E-005  0.1923786E+03  0.7546771E-02  0.1161289E+00
          2   -1    0    0  501    0  0.00000000000E+00  0.00000000000E+00  0.32434262088E+03  0.32434262088E+03  0.00000000000E+00 0. -1.
         -2   -1    0    0    0  501 -0.00000000000E+00 -0.00000000000E+00 -0.12623166126E+03  0.12623166126E+03  0.00000000000E+00 0.  1.
         23    2    1    2    0    0 -0.94409092205E+02  0.11167601732E+03  0.19303020513E+03  0.25812857397E+03  0.89359336795E+02 0.  0.
          5    1    1    2  502    0  0.13950912202E+02 -0.81801819237E+01 -0.48052125196E+02  0.50917973874E+02  0.47000000000E+01 0. -1.
         -5    1    1    2    0  502  0.80458180003E+02 -0.10349583539E+03  0.53132879691E+02  0.14152773430E+03  0.47000000000E+01 0. -1.
        -11    1    3    3    0    0 -0.52593123052E+02  0.11041085546E+03  0.10713394830E+03  0.16258621243E+03  0.00000000000E+00 0.  1.
         11    1    3    3    0    0 -0.41815969153E+02  0.12651618607E+01  0.85896256826E+02  0.95542361534E+02  0.00000000000E+00 0. -1.
<mgrwt>
<rscale>  0 0.18689817E+03</rscale>
<asrwt>0</asrwt>
<pdfrwt beam="1">  1        2 0.49898864E-01 0.19237863E+03</pdfrwt>
<pdfrwt beam="2">  1       -2 0.19420256E-01 0.19237863E+03</pdfrwt>
<totfact> 0.21928569E+03</totfact>
</mgrwt>
</event>
<event>
 7    1  0.1254976E-005  0.1774383E+03  0.7546771E-02  0.1176093E+00
         -2   -1    0    0    0  501 -0.00000000000E+00  0.00000000000E+00  0.36307146122E+02  0.36307146122E+02  0.00000000000E+00 0.  1.
          2   -1    0    0  501    0  0.00000000000E+00 -0.00000000000E+00 -0.78718004538E+03  0.78718004538E+03  0.00000000000E+00 0. -1.
         23    2    1    2    0    0 -0.12574298545E+03  0.70232786823E+01 -0.42275477518E+03  0.45046461869E+03  0.91302507783E+02 0.  0.
          5    1    1    2  502    0  0.19365135182E+02  0.45545298047E+02 -0.15740291984E+03  0.16506711304E+03  0.47000000000E+01 0. -1.
         -5    1    1    2    0  502  0.10637785027E+03 -0.52568576729E+02 -0.17071520424E+03  0.20795545976E+03  0.47000000000E+01 0. -1.
        -11    1    3    3    0    0 -0.33059084457E+02  0.35943449200E+02 -0.75703377458E+02  0.90087934620E+02  0.00000000000E+00 0.  1.
         11    1    3    3    0    0 -0.92683900991E+02 -0.28920170518E+02 -0.34705139772E+03  0.36037668407E+03  0.00000000000E+00 0. -1.
<mgrwt>
<rscale>  0 0.17169401E+03</rscale>
<asrwt>0</asrwt>
<pdfrwt beam="2">  1        2 0.12110462E+00 0.17743826E+03</pdfrwt>
<pdfrwt beam="1">  1       -2 0.55857147E-02 0.17743826E+03</pdfrwt>
<totfact> 0.58675112E+03</totfact>
</mgrwt>
</event>
<event>
 7    1  0.1254976E-005  0.1515568E+03  0.7546771E-02  0.1208934E+00
         -1   -1    0    0    0  501 -0.00000000000E+00  0.00000000000E+00  0.77934007784E+02  0.77934007784E+02  0.00000000000E+00 0.  1.
          1   -1    0    0  501    0  0.00000000000E+00 -0.00000000000E+00 -0.24522644086E+03  0.24522644086E+03  0.00000000000E+00 0. -1.
         23    2    1    2    0    0 -0.76822823481E+02 -0.37987168136E+02 -0.10091768521E+03  0.15770635735E+03  0.85686316363E+02 0.  0.
          5    1    1    2  502    0  0.50517150106E+02  0.83154071378E+02 -0.31231132427E+02  0.10229396695E+03  0.47000000000E+01 0.  1.
         -5    1    1    2    0  502  0.26305673375E+02 -0.45166903243E+02 -0.35143615442E+02  0.63160124340E+02  0.47000000000E+01 0.  1.
        -11    1    3    3    0    0 -0.58260706253E+02 -0.51798713985E+01 -0.10072725487E+02  0.59351501747E+02  0.00000000000E+00 0.  1.
         11    1    3    3    0    0 -0.18562117228E+02 -0.32807296737E+02 -0.90844959720E+02  0.98354855608E+02  0.00000000000E+00 0. -1.
<mgrwt>
<rscale>  0 0.14331703E+03</rscale>
<asrwt>0</asrwt>
<pdfrwt beam="2">  1        1 0.37727144E-01 0.15155675E+03</pdfrwt>
<pdfrwt beam="1">  1       -1 0.11989848E-01 0.15155675E+03</pdfrwt>
<totfact> 0.50030515E+03</totfact>
</mgrwt>
</event>
<event>
 7    1  0.1254976E-005  0.1326337E+03  0.7546771E-02  0.1237112E+00
          2   -1    0    0  501    0  0.00000000000E+00  0.00000000000E+00  0.50840476170E+02  0.50840476170E+02  0.00000000000E+00 0. -1.
         -2   -1    0    0    0  501 -0.00000000000E+00 -0.00000000000E+00 -0.30881062860E+03  0.30881062860E+03  0.00000000000E+00 0.  1.
         23    2    1    2    0    0 -0.43620623357E+02  0.80064463097E+01 -0.47868836507E+02  0.11118728778E+03  0.90024027291E+02 0.  0.
          5    1    1    2  502    0 -0.24572019688E+02 -0.38815998762E+02 -0.34870311002E+02  0.57866177521E+02  0.47000000000E+01 0.  1.
         -5    1    1    2    0  502  0.68192643045E+02  0.30809552453E+02 -0.17523100492E+03  0.19059763948E+03  0.47000000000E+01 0.  1.
        -11    1    3    3    0    0 -0.33905551218E+01 -0.16115504836E+02  0.21724760791E+02  0.27261155360E+02  0.00000000000E+00 0. -1.
         11    1    3    3    0    0 -0.40230068235E+02  0.24121951146E+02 -0.69593597298E+02  0.83926132415E+02  0.00000000000E+00 0.  1.
<mgrwt>
<rscale>  0 0.12370167E+03</rscale>
<asrwt>0</asrwt>
<pdfrwt beam="1">  1        2 0.78216118E-02 0.13263373E+03</pdfrwt>
<pdfrwt beam="2">  1       -2 0.47509327E-01 0.13263373E+03</pdfrwt>
<totfact> 0.35533546E+03</totfact>
</mgrwt>
</event>
<event>
 7    1  0.1254976E-005  0.1898572E+03  0.7546771E-02  0.1162549E+00
          1   -1    0    0  501    0  0.00000000000E+00  0.00000000000E+00  0.44733075870E+03  0.44733075870E+03  0.00000000000E+00 0. -1.
         -1   -1    0    0    0  501 -0.00000000000E+00 -0.00000000000E+00 -0.75203273121E+02  0.75203273121E+02  0.00000000000E+00 0.  1.
         23    2    1    2    0    0 -0.14407835057E+02  0.14606548946E+03  0.21521237991E+03  0.27622504783E+03  0.91875979796E+02 0.  0.
          5    1    1    2  502    0 -0.19174918490E+01 -0.87841724639E+01 -0.19587670379E+02  0.22059131709E+02  0.47000000000E+01 0. -1.
         -5    1    1    2    0  502  0.16325326906E+02 -0.13728131699E+03  0.17650277605E+03  0.22424985228E+03  0.47000000000E+01 0.  1.
        -11    1    3    3    0    0 -0.35313658041E+02  0.14678281043E+03  0.17681119469E+03  0.23249612136E+03  0.00000000000E+00 0. -1.
         11    1    3    3    0    0  0.20905822984E+02 -0.71732097117E+00  0.38401185218E+02  0.43728926470E+02  0.00000000000E+00 0.  1.
<mgrwt>
<rscale>  0 0.18553736E+03</rscale>
<asrwt>0</asrwt>
<pdfrwt beam="1">  1        1 0.68820115E-01 0.18985722E+03</pdfrwt>
<pdfrwt beam="2">  1       -1 0.11569735E-01 0.18985722E+03</pdfrwt>
<totfact> 0.25083013E+03</totfact>
</mgrwt>
</event>
<event>
 7    1  0.1254976E-005  0.1276069E+03  0.7546771E-02  0.1246292E+00
         -1   -1    0    0    0  501 -0.00000000000E+00  0.00000000000E+00  0.52603788364E+02  0.52603788364E+02  0.00000000000E+00 0. -1.
          1   -1    0    0  501    0  0.00000000000E+00 -0.00000000000E+00 -0.23257844517E+03  0.23257844517E+03  0.00000000000E+00 0.  1.
         23    2    1    2    0    0  0.70206143723E+01 -0.24694861165E+02 -0.78912352980E+02  0.12240291523E+03  0.89978825338E+02 0.  0.
          5    1    1    2  502    0 -0.54543918664E+02  0.17574677541E+02 -0.98959177273E+02  0.11445050074E+03  0.47000000000E+01 0. -1.
         -5    1    1    2    0  502  0.47523304292E+02  0.71201836241E+01 -0.21031265524E+01  0.48328817562E+02  0.47000000000E+01 0. -1.
        -11    1    3    3    0    0  0.29523945650E+02 -0.14772726611E+01  0.71959575453E+01  0.30424127042E+02  0.00000000000E+00 0. -1.
         11    1    3    3    0    0 -0.22503331278E+02 -0.23217588504E+02 -0.86108310525E+02  0.91978788186E+02  0.00000000000E+00 0.  1.
<mgrwt>
<rscale>  0 0.11808359E+03</rscale>
<asrwt>0</asrwt>
<pdfrwt beam="2">  1        1 0.35781300E-01 0.12760689E+03</pdfrwt>
<pdfrwt beam="1">  1       -1 0.80928904E-02 0.12760689E+03</pdfrwt>
<totfact> 0.96217674E+03</totfact>
</mgrwt>
</event>
<event>
 7    1  0.1254976E-005  0.1318256E+03  0.7546771E-02  0.1239174E+00
         -1   -1    0    0    0  501 -0.00000000000E+00  0.00000000000E+00  0.32147144816E+02  0.32147144816E+02  0.00000000000E+00 0.  1.
          1   -1    0    0  501    0  0.00000000000E+00 -0.00000000000E+00 -0.42184330216E+03  0.42184330216E+03  0.00000000000E+00 0. -1.
         23    2    1    2    0    0 -0.39179370256E+02  0.14828862811E+02 -0.20327447033E+03  0.22566824941E+03  0.88604346836E+02 0.  0.
          5    1    1    2  502    0  0.45016047544E+02 -0.32786358255E+02 -0.19796144154E+03  0.20569932465E+03  0.47000000000E+01 0. -1.
         -5    1    1    2    0  502 -0.58366772880E+01  0.17957495443E+02  0.11539754528E+02  0.22622872915E+02  0.47000000000E+01 0. -1.
        -11    1    3    3    0    0 -0.50561531557E+02  0.27733432945E+02 -0.20000566426E+03  0.20815349508E+03  0.00000000000E+00 0. -1.
         11    1    3    3    0    0  0.11382161301E+02 -0.12904570133E+02 -0.32688060682E+01  0.17514754333E+02  0.00000000000E+00 0.  1.
<mgrwt>
<rscale>  0 0.12240963E+03</rscale>
<asrwt>0</asrwt>
<pdfrwt beam="2">  1        1 0.64898964E-01 0.13182557E+03</pdfrwt>
<pdfrwt beam="1">  1       -1 0.49457150E-02 0.13182557E+03</pdfrwt>
<totfact> 0.95955157E+03</totfact>
</mgrwt>
</event>
<event>
 7    1  0.1254976E-005  0.2204472E+03  0.7546771E-02  0.1133550E+00
         -4   -1    0    0    0  501 -0.00000000000E+00  0.00000000000E+00  0.75011976536E+02  0.75011976536E+02  0.00000000000E+00 0. -1.
          4   -1    0    0  501    0  0.00000000000E+00 -0.00000000000E+00 -0.16196402897E+03  0.16196402897E+03  0.00000000000E+00 0.  1.
         23    2    1    2    0    0 -0.10287614333E+02  0.16445834552E+02 -0.34022195936E+02  0.99854222714E+02  0.91853445743E+02 0.  0.
          5    1    1    2  502    0 -0.30977338400E+02  0.41964948345E+02 -0.92279553292E+01  0.53177979874E+02  0.47000000000E+01 0. -1.
         -5    1    1    2    0  502  0.41264952733E+02 -0.58410782897E+02 -0.43701901170E+02  0.83943802919E+02  0.47000000000E+01 0. -1.
        -11    1    3    3    0    0  0.95382499633E+01 -0.36095380035E+02 -0.91731472725E+01  0.38444782521E+02  0.00000000000E+00 0.  1.
         11    1    3    3    0    0 -0.19825864296E+02  0.52541214587E+02 -0.24849048663E+02  0.61409440193E+02  0.00000000000E+00 0. -1.
<mgrwt>
<rscale>  0 0.22044720E+03</rscale>
<asrwt>0</asrwt>
<pdfrwt beam="2">  1        4 0.24917543E-01 0.22044720E+03</pdfrwt>
<pdfrwt beam="1">  1       -4 0.11540304E-01 0.22044720E+03</pdfrwt>
<totfact> 0.16248121E+03</totfact>
</mgrwt>
</event>
<event>
 7    1  0.1254976E-005  0.1357526E+03  0.7546771E-02  0.1231437E+00
          3   -1    0    0  501    0  0.00000000000E+00  0.00000000000E+00  0.18495272199E+03  0.18495272199E+03  0.00000000000E+00 0. -1.
         -3   -1    0    0    0  501 -0.00000000000E+00 -0.00000000000E+00 -0.95842332955E+02  0.95842332955E+02  0.00000000000E+00 0.  1.
         23    2    1    2    0    0 -0.11342684901E+02 -0.67033771390E+02  0.99348614739E+02  0.14465688375E+03  0.80207753722E+02 0.  0.
          5    1    1    2  502    0  0.41814733057E+02  0.53043564382E+02  0.37664607862E+02  0.77477766542E+02  0.47000000000E+01 0. -1.
         -5    1    1    2    0  502 -0.30472048156E+02  0.13990207008E+02 -0.47902833565E+02  0.58660404657E+02  0.47000000000E+01 0.  1.
        -11    1    3    3    0    0 -0.36359835578E+02 -0.65707374284E+02  0.52818471839E+02  0.91811152078E+02  0.00000000000E+00 0. -1.
         11    1    3    3    0    0  0.25017150677E+02 -0.13263971068E+01  0.46530142900E+02  0.52845731669E+02  0.00000000000E+00 0.  1.
<mgrwt>
<rscale>  0 0.12735276E+03</rscale>
<asrwt>0</asrwt>
<pdfrwt beam="1">  1        3 0.28454265E-01 0.13575264E+03</pdfrwt>
<pdfrwt beam="2">  1       -3 0.14744974E-01 0.13575264E+03</pdfrwt>
<totfact> 0.10440503E+03</totfact>
</mgrwt>
</event>
<event>
 7    1  0.1254976E-005  0.2126771E+03  0.7546771E-02  0.1143234E+00
          2   -1    0    0  501    0  0.00000000000E+00  0.00000000000E+00  0.10086708899E+04  0.10086708899E+04  0.00000000000E+00 0. -1.
         -2   -1    0    0    0  501 -0.00000000000E+00 -0.00000000000E+00 -0.50168215333E+02  0.50168215333E+02  0.00000000000E+00 0.  1.
         23    2    1    2    0    0 -0.16389023646E+03 -0.52324103991E+02  0.68714982168E+03  0.71407262228E+03  0.90149936197E+02 0.  0.
          5    1    1    2  502    0  0.54662025007E+02  0.15429671757E+02  0.20256910545E+03  0.21043370507E+03  0.47000000000E+01 0. -1.
         -5    1    1    2    0  502  0.10922821145E+03  0.36894432234E+02  0.68783747484E+02  0.13433277792E+03  0.47000000000E+01 0.  1.
        -11    1    3    3    0    0 -0.14690263126E+03 -0.35925360274E+02  0.66400519633E+03  0.68100948256E+03  0.00000000000E+00 0. -1.
         11    1    3    3    0    0 -0.16987605199E+02 -0.16398743717E+02  0.23144625349E+02  0.33063139724E+02  0.00000000000E+00 0.  1.
<mgrwt>
<rscale>  0 0.20790694E+03</rscale>
<asrwt>0</asrwt>
<pdfrwt beam="1">  1        2 0.15518012E+00 0.21267712E+03</pdfrwt>
<pdfrwt beam="2">  1       -2 0.77181877E-02 0.21267712E+03</pdfrwt>
<totfact> 0.25831335E+03</totfact>
</mgrwt>
</event>
<event>
 7    1  0.1254976E-005  0.2679688E+03  0.7546771E-02  0.1104480E+00
         -2   -1    0    0    0  501 -0.00000000000E+00  0.00000000000E+00  0.32413570736E+02  0.32413570736E+02  0.00000000000E+00 0.  1.
          2   -1    0    0  501    0  0.00000000000E+00 -0.00000000000E+00 -0.21228206941E+04  0.21228206941E+04  0.00000000000E+00 0. -1.
         23    2    1    2    0    0 -0.23410034048E+03 -0.37164497632E+02 -0.91591151121E+03  0.95055704516E+03  0.92090338421E+02 0.  0.
          5    1    1    2  502    0  0.22781911986E+03  0.99189900774E+00 -0.93671215863E+03  0.96403023467E+03  0.47000000000E+01 0. -1.
         -5    1    1    2    0  502  0.62812206189E+01  0.36172598624E+02 -0.23778345349E+03  0.24064698497E+03  0.47000000000E+01 0. -1.
        -11    1    3    3    0    0 -0.58736288611E+02 -0.46999035280E+02 -0.20810419947E+03  0.22128311900E+03  0.00000000000E+00 0.  1.
         11    1    3    3    0    0 -0.17536405187E+03  0.98345376476E+01 -0.70780731174E+03  0.72927392615E+03  0.00000000000E+00 0. -1.
<mgrwt>
<rscale>  0 0.26448231E+03</rscale>
<asrwt>0</asrwt>
<pdfrwt beam="2">  1        2 0.32658787E+00 0.26796877E+03</pdfrwt>
<pdfrwt beam="1">  1       -2 0.49867021E-02 0.26796877E+03</pdfrwt>
<totfact> 0.12582854E+03</totfact>
</mgrwt>
</event>
<event>
 7    1  0.1254976E-005  0.1625821E+03  0.7546771E-02  0.1200247E+00
          1   -1    0    0  501    0  0.00000000000E+00  0.00000000000E+00  0.24080946347E+03  0.24080946347E+03  0.00000000000E+00 0. -1.
         -1   -1    0    0    0  501 -0.00000000000E+00 -0.00000000000E+00 -0.11175821301E+03  0.11175821301E+03  0.00000000000E+00 0.  1.
         23    2    1    2    0    0 -0.98711916863E+02  0.32635476041E+02  0.14728972888E+03  0.18896577602E+03  0.56609923565E+02 0.  0.
          5    1    1    2  502    0  0.31246635461E+02 -0.64200265720E+02 -0.44755322711E+02  0.84398787060E+02  0.47000000000E+01 0. -1.
         -5    1    1    2    0  502  0.67465281401E+02  0.31564789679E+02  0.26516844293E+02  0.79203113407E+02  0.47000000000E+01 0. -1.
        -11    1    3    3    0    0 -0.10874563586E+02  0.27174453104E+02  0.26270534227E+02  0.39329988600E+02  0.00000000000E+00 0. -1.
         11    1    3    3    0    0 -0.87837353277E+02  0.54610229367E+01  0.12101919465E+03  0.14963578742E+03  0.00000000000E+00 0.  1.
<mgrwt>
<rscale>  0 0.15018413E+03</rscale>
<asrwt>0</asrwt>
<pdfrwt beam="1">  1        1 0.37047610E-01 0.16258210E+03</pdfrwt>
<pdfrwt beam="2">  1       -1 0.17193571E-01 0.16258210E+03</pdfrwt>
<totfact> 0.29177870E+03</totfact>
</mgrwt>
</event>
<event>
 7    1  0.1254976E-005  0.1359301E+03  0.7546771E-02  0.1231189E+00
          1   -1    0    0  501    0  0.00000000000E+00  0.00000000000E+00  0.81433887478E+02  0.81433887478E+02  0.00000000000E+00 0. -1.
         -1   -1    0    0    0  501 -0.00000000000E+00 -0.00000000000E+00 -0.22397251716E+03  0.22397251716E+03  0.00000000000E+00 0.  1.
         23    2    1    2    0    0  0.21609074490E+02 -0.48397162533E+02  0.42356857412E+01  0.10535718633E+03  0.90955803747E+02 0.  0.
          5    1    1    2  502    0 -0.38431958121E+02  0.28089626319E+02  0.29714237781E+01  0.47926630082E+02  0.47000000000E+01 0.  1.
         -5    1    1    2    0  502  0.16822883631E+02  0.20307536214E+02 -0.14974573920E+03  0.15212258823E+03  0.47000000000E+01 0.  1.
        -11    1    3    3    0    0 -0.32261859431E+02 -0.25671047602E+02 -0.14897299613E+02  0.43837880819E+02  0.00000000000E+00 0. -1.
         11    1    3    3    0    0  0.53870933922E+02 -0.22726114932E+02  0.19132985355E+02  0.61519305507E+02  0.00000000000E+00 0.  1.
<mgrwt>
<rscale>  0 0.12751607E+03</rscale>
<asrwt>0</asrwt>
<pdfrwt beam="1">  1        1 0.12528291E-01 0.13593009E+03</pdfrwt>
<pdfrwt beam="2">  1       -1 0.34457310E-01 0.13593009E+03</pdfrwt>
<totfact> 0.36568734E+03</totfact>
</mgrwt>
</event>
<event>
 7    1  0.1254976E-005  0.1645795E+03  0.7546771E-02  0.1191176E+00
         -1   -1    0    0    0  501 -0.00000000000E+00  0.00000000000E+00  0.60362612580E+02  0.60362612580E+02  0.00000000000E+00 0.  1.
          1   -1    0    0  501    0  0.00000000000E+00 -0.00000000000E+00 -0.47904218473E+03  0.47904218473E+03  0.00000000000E+00 0. -1.
         23    2    1    2    0    0 -0.62196576185E+02  0.87205515654E+02 -0.31633697218E+03  0.34559967850E+03  0.88864175904E+02 0.  0.
          5    1    1    2  502    0  0.77906770694E+02 -0.87463495225E+02 -0.12133509763E+03  0.16871165886E+03  0.47000000000E+01 0. -1.
         -5    1    1    2    0  502 -0.15710194509E+02  0.25797957081E+00  0.18992497664E+02  0.25093459955E+02  0.47000000000E+01 0. -1.
        -11    1    3    3    0    0 -0.38633020584E+02  0.99317530665E+02 -0.20373376292E+03  0.22992156995E+03  0.00000000000E+00 0.  1.
         11    1    3    3    0    0 -0.23563555601E+02 -0.12112015010E+02 -0.11260320926E+03  0.11567810854E+03  0.00000000000E+00 0. -1.
<mgrwt>
<rscale>  0 0.15782405E+03</rscale>
<asrwt>0</asrwt>
<pdfrwt beam="2">  1        1 0.73698797E-01 0.16457951E+03</pdfrwt>
<pdfrwt beam="1">  1       -1 0.92865558E-02 0.16457951E+03</pdfrwt>
<totfact> 0.32038040E+03</totfact>
</mgrwt>
</event>
<event>
 7    1  0.1254976E-005  0.1965008E+03  0.7546771E-02  0.1156777E+00
          1   -1    0    0  501    0  0.00000000000E+00  0.00000000000E+00  0.32883236911E+03  0.32883236911E+03  0.00000000000E+00 0. -1.
         -1   -1    0    0    0  501 -0.00000000000E+00 -0.00000000000E+00 -0.15227306511E+03  0.15227306511E+03  0.00000000000E+00 0.  1.
         23    2    1    2    0    0  0.11999511837E+03  0.92674337582E+02 -0.45729366421E+02  0.18441564764E+03  0.94501824656E+02 0.  0.
          5    1    1    2  502    0  0.10021738027E+01 -0.24522869945E+02  0.12399448899E+03  0.12648754406E+03  0.47000000000E+01 0.  1.
         -5    1    1    2    0  502 -0.12099729217E+03 -0.68151467637E+02  0.98294181432E+02  0.17020224251E+03  0.47000000000E+01 0.  1.
        -11    1    3    3    0    0  0.21225686903E+02  0.75158716713E+02 -0.15216000146E+02  0.79566884712E+02  0.00000000000E+00 0.  1.
         11    1    3    3    0    0  0.98769431463E+02  0.17515620869E+02 -0.30513366276E+02  0.10484876293E+03  0.00000000000E+00 0. -1.
<mgrwt>
<rscale>  0 0.19187910E+03</rscale>
<asrwt>0</asrwt>
<pdfrwt beam="1">  1        1 0.50589595E-01 0.19650083E+03</pdfrwt>
<pdfrwt beam="2">  1       -1 0.23426625E-01 0.19650083E+03</pdfrwt>
<totfact> 0.12055805E+03</totfact>
</mgrwt>
</event>
<event>
 7    1  0.1254976E-005  0.1823900E+03  0.7546771E-02  0.1170834E+00
          1   -1    0    0  501    0  0.00000000000E+00  0.00000000000E+00  0.11476512784E+03  0.11476512784E+03  0.00000000000E+00 0. -1.
         -1   -1    0    0    0  501 -0.00000000000E+00 -0.00000000000E+00 -0.30120787816E+03  0.30120787816E+03  0.00000000000E+00 0.  1.
         23    2    1    2    0    0  0.87620232682E+02 -0.99831567098E+02 -0.92426509881E+01  0.16167793350E+03  0.91709762951E+02 0.  0.
          5    1    1    2  502    0 -0.10919916053E+03  0.10970595395E+03 -0.16780530370E+03  0.22834308166E+03  0.47000000000E+01 0.  1.
         -5    1    1    2    0  502  0.21578927848E+02 -0.98743868548E+01 -0.93947956334E+01  0.25951990826E+02  0.47000000000E+01 0.  1.
        -11    1    3    3    0    0  0.19214050901E+02 -0.57152341396E+01  0.32400429413E+02  0.38100281882E+02  0.00000000000E+00 0. -1.
         11    1    3    3    0    0  0.68406181780E+02 -0.94116332959E+02 -0.41643080401E+02  0.12357765162E+03  0.00000000000E+00 0.  1.
<mgrwt>
<rscale>  0 0.17690322E+03</rscale>
<asrwt>0</asrwt>
<pdfrwt beam="1">  1        1 0.17656173E-01 0.18238999E+03</pdfrwt>
<pdfrwt beam="2">  1       -1 0.46339674E-01 0.18238999E+03</pdfrwt>
<totfact> 0.14063872E+03</totfact>
</mgrwt>
</event>
<event>
 7    1  0.1254976E-005  0.1332074E+03  0.7546771E-02  0.1235300E+00
         -1   -1    0    0    0  501 -0.00000000000E+00  0.00000000000E+00  0.67144106292E+02  0.67144106292E+02  0.00000000000E+00 0.  1.
          1   -1    0    0  501    0  0.00000000000E+00 -0.00000000000E+00 -0.29324860710E+03  0.29324860710E+03  0.00000000000E+00 0. -1.
         23    2    1    2    0    0  0.46980065061E+02 -0.60416963897E+01 -0.19967994953E+03  0.22458970817E+03  0.91240485318E+02 0.  0.
          5    1    1    2  502    0  0.37528768609E+02  0.27564422627E+01 -0.33773879863E+02  0.50781605018E+02  0.47000000000E+01 0. -1.
         -5    1    1    2    0  502 -0.84508833670E+02  0.32852541270E+01  0.73493285843E+01  0.85021400210E+02  0.47000000000E+01 0.  1.
        -11    1    3    3    0    0  0.80049176725E+01  0.35472567141E+02 -0.35517551527E+02  0.50831861986E+02  0.00000000000E+00 0.  1.
         11    1    3    3    0    0  0.38975147389E+02 -0.41514263531E+02 -0.16416239800E+03  0.17375784618E+03  0.00000000000E+00 0. -1.
<mgrwt>
<rscale>  0 0.12485260E+03</rscale>
<asrwt>0</asrwt>
<pdfrwt beam="2">  1        1 0.45115170E-01 0.13320735E+03</pdfrwt>
<pdfrwt beam="1">  1       -1 0.10329863E-01 0.13320735E+03</pdfrwt>
<totfact> 0.50052423E+03</totfact>
</mgrwt>
</event>
<event>
 7    1  0.2279644E-005  0.1401337E+03  0.7546771E-02  0.1229110E+00
         -1   -1    0    0    0  501 -0.00000000000E+00  0.00000000000E+00  0.16096037977E+03  0.16096037977E+03  0.00000000000E+00 0.  1.
          1   -1    0    0  501    0  0.00000000000E+00 -0.00000000000E+00 -0.90411874486E+02  0.90411874486E+02  0.00000000000E+00 0. -1.
         23    2    1    2    0    0 -0.10356027261E+02  0.62491991097E+02  0.19110296589E+02  0.10209621494E+03  0.77755626271E+02 0.  0.
          5    1    1    2  502    0  0.27052891602E+02 -0.10622204885E+02  0.81648223833E+02  0.86794081801E+02  0.47000000000E+01 0.  1.
         -5    1    1    2    0  502 -0.16696864341E+02 -0.51869786212E+02 -0.30210015139E+02  0.62481957517E+02  0.47000000000E+01 0.  1.
        -11    1    3    3    0    0 -0.37193369067E+02  0.23312070755E+02  0.30260030336E+02  0.53314808275E+02  0.00000000000E+00 0. -1.
         11    1    3    3    0    0  0.26837341806E+02  0.39179920342E+02 -0.11149733747E+02  0.48781406662E+02  0.00000000000E+00 0.  1.
<mgrwt>
<rscale>  0 0.12889117E+03</rscale>
<asrwt>0</asrwt>
<pdfrwt beam="2">  1        1 0.13909519E-01 0.14013367E+03</pdfrwt>
<pdfrwt beam="1">  1       -1 0.24763135E-01 0.14013367E+03</pdfrwt>
<totfact> 0.55592975E+03</totfact>
</mgrwt>
</event>
<event>
 7    1  0.1254976E-005  0.1409497E+03  0.7546771E-02  0.1224876E+00
         -1   -1    0    0    0  501 -0.00000000000E+00  0.00000000000E+00  0.56569725723E+03  0.56569725723E+03  0.00000000000E+00 0.  1.
          1   -1    0    0  501    0  0.00000000000E+00 -0.00000000000E+00 -0.29081808540E+02  0.29081808540E+02  0.00000000000E+00 0. -1.
         23    2    1    2    0    0 -0.58812159930E+02 -0.27972867880E+02  0.16161458296E+03  0.19416395866E+03  0.85668068286E+02 0.  0.
          5    1    1    2  502    0  0.78058670121E+02  0.61349234233E+02  0.30202646475E+03  0.31796062639E+03  0.47000000000E+01 0.  1.
         -5    1    1    2    0  502 -0.19246510191E+02 -0.33376366353E+02  0.72974400983E+02  0.82654480727E+02  0.47000000000E+01 0.  1.
        -11    1    3    3    0    0 -0.49948137663E+02 -0.80071085000E+01  0.16452484917E+03  0.17212598943E+03  0.00000000000E+00 0.  1.
         11    1    3    3    0    0 -0.88640222673E+01 -0.19965759380E+02 -0.29102662107E+01  0.22037969230E+02  0.00000000000E+00 0. -1.
<mgrwt>
<rscale>  0 0.13175387E+03</rscale>
<asrwt>0</asrwt>
<pdfrwt beam="2">  1        1 0.44741248E-02 0.14094969E+03</pdfrwt>
<pdfrwt beam="1">  1       -1 0.87030339E-01 0.14094969E+03</pdfrwt>
<totfact> 0.25706641E+03</totfact>
</mgrwt>
</event>
<event>
 7    1  0.1254976E-005  0.1345867E+03  0.7546771E-02  0.1237266E+00
          1   -1    0    0  501    0  0.00000000000E+00  0.00000000000E+00  0.18564482454E+03  0.18564482454E+03  0.00000000000E+00 0. -1.
         -1   -1    0    0    0  501 -0.00000000000E+00 -0.00000000000E+00 -0.10657242147E+03  0.10657242147E+03  0.00000000000E+00 0.  1.
         23    2    1    2    0    0 -0.90074274237E+01  0.48989461048E+02  0.11814604450E+03  0.15207331634E+03  0.81772273225E+02 0.  0.
          5    1    1    2  502    0  0.62867270975E+02 -0.44961501958E+02 -0.84883686748E+01  0.77897193922E+02  0.47000000000E+01 0. -1.
         -5    1    1    2    0  502 -0.53859843551E+02 -0.40279590894E+01 -0.30585272753E+02  0.62246735747E+02  0.47000000000E+01 0. -1.
        -11    1    3    3    0    0 -0.22332143487E+02  0.26205488158E+02  0.37063847467E+01  0.34629316052E+02  0.00000000000E+00 0.  1.
         11    1    3    3    0    0  0.13324716063E+02  0.22783972889E+02  0.11443965975E+03  0.11744400028E+03  0.00000000000E+00 0. -1.
<mgrwt>
<rscale>  0 0.12360462E+03</rscale>
<asrwt>0</asrwt>
<pdfrwt beam="1">  1        1 0.28560742E-01 0.13458667E+03</pdfrwt>
<pdfrwt beam="2">  1       -1 0.16395757E-01 0.13458667E+03</pdfrwt>
<totfact> 0.43080516E+03</totfact>
</mgrwt>
</event>
<event>
 7    1  0.1254976E-005  0.1494646E+03  0.7546771E-02  0.1210564E+00
          1   -1    0    0  501    0  0.00000000000E+00  0.00000000000E+00  0.92524558528E+03  0.92524558528E+03  0.00000000000E+00 0. -1.
         -1   -1    0    0    0  501 -0.00000000000E+00 -0.00000000000E+00 -0.21264774052E+02  0.21264774052E+02  0.00000000000E+00 0.  1.
         23    2    1    2    0    0 -0.81712062707E+02 -0.61528849378E+01  0.52784685853E+03  0.54176794733E+03  0.90418380386E+02 0.  0.
          5    1    1    2  502    0  0.26563797821E+02  0.63528127621E+02  0.15479873818E+03  0.16948804588E+03  0.47000000000E+01 0.  1.
         -5    1    1    2    0  502  0.55148264887E+02 -0.57375242684E+02  0.22133521452E+03  0.23525436612E+03  0.47000000000E+01 0.  1.
        -11    1    3    3    0    0 -0.50170503712E+02  0.41328801080E+02  0.28622509603E+03  0.29351312550E+03  0.00000000000E+00 0.  1.
         11    1    3    3    0    0 -0.31541558995E+02 -0.47481686018E+02  0.24162176250E+03  0.24825482183E+03  0.00000000000E+00 0. -1.
<mgrwt>
<rscale>  0 0.14207457E+03</rscale>
<asrwt>0</asrwt>
<pdfrwt beam="1">  1        1 0.14234544E+00 0.14946461E+03</pdfrwt>
<pdfrwt beam="2">  1       -1 0.32715044E-02 0.14946461E+03</pdfrwt>
<totfact> 0.59076648E+03</totfact>
</mgrwt>
</event>
<event>
 7    1  0.1254976E-005  0.1806716E+03  0.7546771E-02  0.1172817E+00
          3   -1    0    0  501    0  0.00000000000E+00  0.00000000000E+00  0.17126825428E+03  0.17126825428E+03  0.00000000000E+00 0. -1.
         -3   -1    0    0    0  501 -0.00000000000E+00 -0.00000000000E+00 -0.16826337720E+03  0.16826337720E+03  0.00000000000E+00 0.  1.
         23    2    1    2    0    0 -0.39317458380E+02 -0.12438647208E+03 -0.32010916513E+01  0.15875344294E+03  0.90413227389E+02 0.  0.
          5    1    1    2  502    0 -0.27879682178E+02  0.22354621331E+02  0.40087380827E+02  0.53908198586E+02  0.47000000000E+01 0. -1.
         -5    1    1    2    0  502  0.67197140559E+02  0.10203185075E+03 -0.33881412095E+02  0.12686998996E+03  0.47000000000E+01 0. -1.
        -11    1    3    3    0    0  0.12097900052E+02 -0.63591294439E+02 -0.34319495734E+02  0.73266907274E+02  0.00000000000E+00 0.  1.
         11    1    3    3    0    0 -0.51415358432E+02 -0.60795177640E+02  0.31118404083E+02  0.85486535663E+02  0.00000000000E+00 0. -1.
<mgrwt>
<rscale>  0 0.17491465E+03</rscale>
<asrwt>0</asrwt>
<pdfrwt beam="1">  1        3 0.26348962E-01 0.18067163E+03</pdfrwt>
<pdfrwt beam="2">  1       -3 0.25886673E-01 0.18067163E+03</pdfrwt>
<totfact> 0.46391505E+02</totfact>
</mgrwt>
</event>
<event>
 7    1  0.1254976E-005  0.1262975E+03  0.7546771E-02  0.1246896E+00
         -1   -1    0    0    0  501 -0.00000000000E+00  0.00000000000E+00  0.50500889636E+02  0.50500889636E+02  0.00000000000E+00 0.  1.
          1   -1    0    0  501    0  0.00000000000E+00 -0.00000000000E+00 -0.25126801909E+03  0.25126801909E+03  0.00000000000E+00 0. -1.
         23    2    1    2    0    0  0.37005935667E+00 -0.18065497244E+02 -0.11360341389E+03  0.14831345101E+03  0.93619682600E+02 0.  0.
          5    1    1    2  502    0 -0.40447232897E+02  0.26919032233E+02 -0.99086749288E+02  0.11045762459E+03  0.47000000000E+01 0. -1.
         -5    1    1    2    0  502  0.40077173540E+02 -0.88535349895E+01  0.11923033716E+02  0.42997833129E+02  0.47000000000E+01 0. -1.
        -11    1    3    3    0    0 -0.38650680308E+02 -0.34955318183E+02 -0.53452856906E+02  0.74652242223E+02  0.00000000000E+00 0.  1.
         11    1    3    3    0    0  0.39020739665E+02  0.16889820939E+02 -0.60150556980E+02  0.73661208790E+02  0.00000000000E+00 0. -1.
<mgrwt>
<rscale>  0 0.11772629E+03</rscale>
<asrwt>0</asrwt>
<pdfrwt beam="2">  1        1 0.38656618E-01 0.12629752E+03</pdfrwt>
<pdfrwt beam="1">  1       -1 0.77693676E-02 0.12629752E+03</pdfrwt>
<totfact> 0.92924180E+03</totfact>
</mgrwt>
</event>
<event>
 7    1  0.1254976E-005  0.1305818E+03  0.7546771E-02  0.1240626E+00
         -1   -1    0    0    0  501 -0.00000000000E+00  0.00000000000E+00  0.48020532942E+03  0.48020532942E+03  0.00000000000E+00 0.  1.
          1   -1    0    0  501    0  0.00000000000E+00 -0.00000000000E+00 -0.27539760395E+02  0.27539760395E+02  0.00000000000E+00 0. -1.
         23    2    1    2    0    0  0.27210988307E+02 -0.26194035632E+02  0.16562544070E+03  0.19239822133E+03  0.90325652929E+02 0.  0.
          5    1    1    2  502    0 -0.54015035157E+02  0.57267595378E+02  0.24060277602E+03  0.25319752632E+03  0.47000000000E+01 0.  1.
         -5    1    1    2    0  502  0.26804046850E+02 -0.31073559747E+02  0.46437352303E+02  0.62149342167E+02  0.47000000000E+01 0.  1.
        -11    1    3    3    0    0  0.46994119269E+02 -0.14106556220E+00  0.14791084791E+03  0.15519692676E+03  0.00000000000E+00 0.  1.
         11    1    3    3    0    0 -0.19783130962E+02 -0.26052970069E+02  0.17714592784E+02  0.37201294569E+02  0.00000000000E+00 0. -1.
<mgrwt>
<rscale>  0 0.12151019E+03</rscale>
<asrwt>0</asrwt>
<pdfrwt beam="2">  1        1 0.42368865E-02 0.13058182E+03</pdfrwt>
<pdfrwt beam="1">  1       -1 0.73877737E-01 0.13058182E+03</pdfrwt>
<totfact> 0.38582132E+03</totfact>
</mgrwt>
</event>
<event>
 7    1  0.1254976E-005  0.1403277E+03  0.7546771E-02  0.1222690E+00
         -4   -1    0    0    0  501 -0.00000000000E+00  0.00000000000E+00  0.50431288547E+03  0.50431288547E+03  0.00000000000E+00 0.  1.
          4   -1    0    0  501    0  0.00000000000E+00 -0.00000000000E+00 -0.37447117635E+02  0.37447117635E+02  0.00000000000E+00 0. -1.
         23    2    1    2    0    0 -0.55340473975E+02 -0.31683065724E+02  0.11094340482E+03  0.15917329114E+03  0.94664210897E+02 0.  0.
          5    1    1    2  502    0 -0.24447443998E+02 -0.15541878838E+02  0.23956854143E+02  0.37884672049E+02  0.47000000000E+01 0.  1.
         -5    1    1    2    0  502  0.79787917973E+02  0.47224944562E+02  0.33196550887E+03  0.34470203992E+03  0.47000000000E+01 0.  1.
        -11    1    3    3    0    0 -0.17234314666E+02  0.25428077637E+02  0.24954605031E+01  0.30819410401E+02  0.00000000000E+00 0. -1.
         11    1    3    3    0    0 -0.38106159309E+02 -0.57111143362E+02  0.10844794432E+03  0.12835388073E+03  0.00000000000E+00 0.  1.
<mgrwt>
<rscale>  0 0.13326497E+03</rscale>
<asrwt>0</asrwt>
<pdfrwt beam="2">  1        4 0.57610954E-02 0.14032770E+03</pdfrwt>
<pdfrwt beam="1">  1       -4 0.77586593E-01 0.14032770E+03</pdfrwt>
<totfact> 0.48256630E+02</totfact>
</mgrwt>
</event>
<event>
 7    1  0.1254976E-005  0.1392926E+03  0.7546771E-02  0.1236117E+00
         -1   -1    0    0    0  501 -0.00000000000E+00  0.00000000000E+00  0.16826250287E+03  0.16826250287E+03  0.00000000000E+00 0.  1.
          1   -1    0    0  501    0  0.00000000000E+00 -0.00000000000E+00 -0.86864498012E+02  0.86864498012E+02  0.00000000000E+00 0. -1.
         23    2    1    2    0    0 -0.14891827447E+02 -0.59623711472E+02 -0.93016430068E+01  0.88907728797E+02  0.63571299993E+02 0.  0.
          5    1    1    2  502    0 -0.52573117857E+02  0.43778464734E+02  0.33923195882E+02  0.76507253999E+02  0.47000000000E+01 0. -1.
         -5    1    1    2    0  502  0.67464945304E+02  0.15845246737E+02  0.56776451978E+02  0.89712018081E+02  0.47000000000E+01 0. -1.
        -11    1    3    3    0    0 -0.25321613022E+02 -0.47710210402E+02  0.18348503343E+02  0.57044858116E+02  0.00000000000E+00 0.  1.
         11    1    3    3    0    0  0.10429785574E+02 -0.11913501070E+02 -0.27650146349E+02  0.31862870681E+02  0.00000000000E+00 0. -1.
<mgrwt>
<rscale>  0 0.12433213E+03</rscale>
<asrwt>0</asrwt>
<pdfrwt beam="2">  1        1 0.13363769E-01 0.13929257E+03</pdfrwt>
<pdfrwt beam="1">  1       -1 0.25886539E-01 0.13929257E+03</pdfrwt>
<totfact> 0.54422785E+03</totfact>
</mgrwt>
</event>
<event>
 7    1  0.1254976E-005  0.1410160E+03  0.7546771E-02  0.1223565E+00
          3   -1    0    0  501    0  0.00000000000E+00  0.00000000000E+00  0.26701712038E+03  0.26701712038E+03  0.00000000000E+00 0. -1.
         -3   -1    0    0    0  501 -0.00000000000E+00 -0.00000000000E+00 -0.59583492061E+02  0.59583492061E+02  0.00000000000E+00 0.  1.
         23    2    1    2    0    0  0.59389603152E+02  0.27104151630E+02  0.10419694727E+03  0.15183414101E+03  0.89077733243E+02 0.  0.
          5    1    1    2  502    0 -0.63804091157E+02 -0.65429823277E+02  0.38541597778E+02  0.99295360323E+02  0.47000000000E+01 0.  1.
         -5    1    1    2    0  502  0.44144880051E+01  0.38325671647E+02  0.64695083277E+02  0.75471111107E+02  0.47000000000E+01 0.  1.
        -11    1    3    3    0    0  0.33755275898E+02  0.59892357611E+01  0.11249463174E+03  0.11760243096E+03  0.00000000000E+00 0. -1.
         11    1    3    3    0    0  0.25634327254E+02  0.21114915869E+02 -0.82976844747E+01  0.34231710059E+02  0.00000000000E+00 0.  1.
<mgrwt>
<rscale>  0 0.13265729E+03</rscale>
<asrwt>0</asrwt>
<pdfrwt beam="1">  1        3 0.41079556E-01 0.14101598E+03</pdfrwt>
<pdfrwt beam="2">  1       -3 0.91666912E-02 0.14101598E+03</pdfrwt>
<totfact> 0.11652619E+03</totfact>
</mgrwt>
</event>
<event>
 7    1  0.1254976E-005  0.1276564E+03  0.7546771E-02  0.1245378E+00
          2   -1    0    0  501    0  0.00000000000E+00  0.00000000000E+00  0.10761105822E+03  0.10761105822E+03  0.00000000000E+00 0. -1.
         -2   -1    0    0    0  501 -0.00000000000E+00 -0.00000000000E+00 -0.19508231250E+03  0.19508231250E+03  0.00000000000E+00 0.  1.
         23    2    1    2    0    0 -0.17880274718E+02  0.18765378430E+02  0.56163531305E+02  0.11052909776E+03  0.91599648201E+02 0.  0.
          5    1    1    2  502    0  0.71008922826E+02 -0.14765676811E+02 -0.96962856719E+02  0.12117828979E+03  0.47000000000E+01 0.  1.
         -5    1    1    2    0  502 -0.53128648108E+02 -0.39997016193E+01 -0.46671928866E+02  0.70985983172E+02  0.47000000000E+01 0.  1.
        -11    1    3    3    0    0 -0.55491381442E+02  0.13955555167E+02  0.35686517446E+02  0.67435735792E+02  0.00000000000E+00 0. -1.
         11    1    3    3    0    0  0.37611106724E+02  0.48098232636E+01  0.20477013859E+02  0.43093361965E+02  0.00000000000E+00 0.  1.
<mgrwt>
<rscale>  0 0.11862794E+03</rscale>
<asrwt>0</asrwt>
<pdfrwt beam="1">  1        2 0.16555548E-01 0.12765640E+03</pdfrwt>
<pdfrwt beam="2">  1       -2 0.30012663E-01 0.12765640E+03</pdfrwt>
<totfact> 0.33879559E+03</totfact>
</mgrwt>
</event>
<event>
 7    1  0.1254976E-005  0.1371574E+03  0.7546771E-02  0.1229849E+00
         -2   -1    0    0    0  501 -0.00000000000E+00  0.00000000000E+00  0.34619443997E+03  0.34619443997E+03  0.00000000000E+00 0.  1.
          2   -1    0    0  501    0  0.00000000000E+00 -0.00000000000E+00 -0.47060838547E+02  0.47060838547E+02  0.00000000000E+00 0. -1.
         23    2    1    2    0    0  0.14583347878E+02 -0.54561471366E+02  0.70901998985E+02  0.12698130384E+03  0.88924292921E+02 0.  0.
          5    1    1    2  502    0 -0.31492435743E+02  0.15263567637E+02  0.21954614537E+03  0.22236760095E+03  0.47000000000E+01 0.  1.
         -5    1    1    2    0  502  0.16909087865E+02  0.39297903729E+02  0.86854570736E+01  0.43906373734E+02  0.47000000000E+01 0.  1.
        -11    1    3    3    0    0 -0.34471463390E+02 -0.41528333511E+02  0.29677664625E+02  0.61592597364E+02  0.00000000000E+00 0. -1.
         11    1    3    3    0    0  0.49054811268E+02 -0.13033137855E+02  0.41224334361E+02  0.65388706474E+02  0.00000000000E+00 0.  1.
<mgrwt>
<rscale>  0 0.12840029E+03</rscale>
<asrwt>0</asrwt>
<pdfrwt beam="2">  1        2 0.72401293E-02 0.13715745E+03</pdfrwt>
<pdfrwt beam="1">  1       -2 0.53260681E-01 0.13715745E+03</pdfrwt>
<totfact> 0.31308603E+03</totfact>
</mgrwt>
</event>
<event>
 7    1  0.1254976E-005  0.1257598E+03  0.7546771E-02  0.1249684E+00
          1   -1    0    0  501    0  0.00000000000E+00  0.00000000000E+00  0.14035176999E+03  0.14035176999E+03  0.00000000000E+00 0. -1.
         -1   -1    0    0    0  501 -0.00000000000E+00 -0.00000000000E+00 -0.85837068693E+02  0.85837068693E+02  0.00000000000E+00 0.  1.
         23    2    1    2    0    0  0.13627110018E+02 -0.19273737948E+01  0.39611393995E+02  0.99549013725E+02  0.90285827804E+02 0.  0.
          5    1    1    2  502    0 -0.56347101506E+02 -0.62281892701E+01  0.45844217058E+02  0.73058664287E+02  0.47000000000E+01 0.  1.
         -5    1    1    2    0  502  0.42719991488E+02  0.81555630649E+01 -0.30940909759E+02  0.53581160666E+02  0.47000000000E+01 0.  1.
        -11    1    3    3    0    0  0.36502306157E+02  0.15853573242E+02  0.54095617105E+02  0.67157203108E+02  0.00000000000E+00 0. -1.
         11    1    3    3    0    0 -0.22875196139E+02 -0.17780947037E+02 -0.14484223110E+02  0.32391810617E+02  0.00000000000E+00 0.  1.
<mgrwt>
<rscale>  0 0.11609363E+03</rscale>
<asrwt>0</asrwt>
<pdfrwt beam="1">  1        1 0.21592580E-01 0.12575984E+03</pdfrwt>
<pdfrwt beam="2">  1       -1 0.13205703E-01 0.12575984E+03</pdfrwt>
<totfact> 0.85406921E+03</totfact>
</mgrwt>
</event>
<event>
 7    1  0.1254976E-005  0.1327854E+03  0.7546771E-02  0.1236260E+00
          3   -1    0    0  501    0  0.00000000000E+00  0.00000000000E+00  0.20904389175E+03  0.20904389175E+03  0.00000000000E+00 0. -1.
         -3   -1    0    0    0  501 -0.00000000000E+00 -0.00000000000E+00 -0.66155509987E+02  0.66155509987E+02  0.00000000000E+00 0.  1.
         23    2    1    2    0    0  0.31753300596E+02  0.31601309627E+02  0.51956023959E+02  0.11426256920E+03  0.91376098768E+02 0.  0.
          5    1    1    2  502    0  0.12078304383E+02 -0.44567608771E+02  0.10338796004E+03  0.11332836128E+03  0.47000000000E+01 0.  1.
         -5    1    1    2    0  502 -0.43831604979E+02  0.12966299144E+02 -0.12455602236E+02  0.47608471259E+02  0.47000000000E+01 0.  1.
        -11    1    3    3    0    0  0.40851724719E+02  0.19744110294E+02 -0.13327811591E+02  0.47289786061E+02  0.00000000000E+00 0.  1.
         11    1    3    3    0    0 -0.90984241229E+01  0.11857199333E+02  0.65283835550E+02  0.66972783141E+02  0.00000000000E+00 0. -1.
<mgrwt>
<rscale>  0 0.12424087E+03</rscale>
<asrwt>0</asrwt>
<pdfrwt beam="1">  1        3 0.32160598E-01 0.13278543E+03</pdfrwt>
<pdfrwt beam="2">  1       -3 0.10177771E-01 0.13278543E+03</pdfrwt>
<totfact> 0.15459154E+03</totfact>
</mgrwt>
</event>
<event>
 7    1  0.1254976E-005  0.1551598E+03  0.7546771E-02  0.1199117E+00
         -4   -1    0    0    0  501 -0.00000000000E+00  0.00000000000E+00  0.17185779947E+03  0.17185779947E+03  0.00000000000E+00 0.  1.
          4   -1    0    0  501    0  0.00000000000E+00 -0.00000000000E+00 -0.24304040774E+03  0.24304040774E+03  0.00000000000E+00 0. -1.
         23    2    1    2    0    0  0.80271501468E+02 -0.67821618581E+02 -0.17823921894E+03  0.22638913169E+03  0.91866935755E+02 0.  0.
          5    1    1    2  502    0 -0.13932991313E+02  0.30305028696E+02 -0.20799099066E+02  0.39588073117E+02  0.47000000000E+01 0. -1.
         -5    1    1    2    0  502 -0.66338510155E+02  0.37516589885E+02  0.12785570973E+03  0.14892100240E+03  0.47000000000E+01 0.  1.
        -11    1    3    3    0    0  0.29758826161E+02  0.12990835764E+01 -0.12866553221E+01  0.29814943142E+02  0.00000000000E+00 0.  1.
         11    1    3    3    0    0  0.50512675307E+02 -0.69120702157E+02 -0.17695256361E+03  0.19657418855E+03  0.00000000000E+00 0. -1.
<mgrwt>
<rscale>  0 0.15110917E+03</rscale>
<asrwt>0</asrwt>
<pdfrwt beam="2">  1        4 0.37390832E-01 0.15515977E+03</pdfrwt>
<pdfrwt beam="1">  1       -4 0.26439662E-01 0.15515977E+03</pdfrwt>
<totfact> 0.16032335E+02</totfact>
</mgrwt>
</event>
<event>
 7    1  0.1254976E-005  0.1354696E+03  0.7546771E-02  0.1232161E+00
          2   -1    0    0  501    0  0.00000000000E+00  0.00000000000E+00  0.37279451110E+03  0.37279451110E+03  0.00000000000E+00 0. -1.
         -2   -1    0    0    0  501 -0.00000000000E+00 -0.00000000000E+00 -0.38544872911E+02  0.38544872911E+02  0.00000000000E+00 0.  1.
         23    2    1    2    0    0 -0.25605344639E+02 -0.45448319109E+02  0.14198150585E+03  0.17613939285E+03  0.90250508731E+02 0.  0.
          5    1    1    2  502    0  0.69334443924E+01  0.81561902440E+02  0.75461988799E+02  0.11143167563E+03  0.47000000000E+01 0.  1.
         -5    1    1    2    0  502  0.18671900247E+02 -0.36113583330E+02  0.11680614354E+03  0.12376831553E+03  0.47000000000E+01 0.  1.
        -11    1    3    3    0    0  0.17527836674E+02 -0.40935105054E+02  0.11899839988E+03  0.12705718027E+03  0.00000000000E+00 0. -1.
         11    1    3    3    0    0 -0.43133181314E+02 -0.45132140551E+01  0.22983105961E+02  0.49082212572E+02  0.00000000000E+00 0.  1.
<mgrwt>
<rscale>  0 0.12687957E+03</rscale>
<asrwt>0</asrwt>
<pdfrwt beam="1">  1        2 0.57352999E-01 0.13546956E+03</pdfrwt>
<pdfrwt beam="2">  1       -2 0.59299807E-02 0.13546956E+03</pdfrwt>
<totfact> 0.12281563E+04</totfact>
</mgrwt>
</event>
<event>
 7    1  0.1254976E-005  0.1284130E+03  0.7546771E-02  0.1236824E+00
          4   -1    0    0  501    0  0.00000000000E+00  0.00000000000E+00  0.52744939497E+03  0.52744939497E+03  0.00000000000E+00 0. -1.
         -4   -1    0    0    0  501 -0.00000000000E+00 -0.00000000000E+00 -0.27250815338E+02  0.27250815338E+02  0.00000000000E+00 0.  1.
         23    2    1    2    0    0 -0.60595010929E+02  0.28704543472E+01  0.22296739361E+03  0.24917274940E+03  0.93234143804E+02 0.  0.
          5    1    1    2  502    0 -0.21279196135E+02  0.54966305594E+01  0.16364102659E+03  0.16517715556E+03  0.47000000000E+01 0. -1.
         -5    1    1    2    0  502  0.81874207064E+02 -0.83670849065E+01  0.11359015942E+03  0.14035030534E+03  0.47000000000E+01 0.  1.
        -11    1    3    3    0    0 -0.35535054135E+02  0.37985070125E+02  0.54780931064E+02  0.75541750265E+02  0.00000000000E+00 0. -1.
         11    1    3    3    0    0 -0.25059956794E+02 -0.35114615778E+02  0.16818646255E+03  0.17363099913E+03  0.00000000000E+00 0.  1.
<mgrwt>
<rscale>  0 0.12388376E+03</rscale>
<asrwt>0</asrwt>
<pdfrwt beam="1">  1        4 0.81146053E-01 0.12841300E+03</pdfrwt>
<pdfrwt beam="2">  1       -4 0.41924335E-02 0.12841300E+03</pdfrwt>
<totfact> 0.71551891E+02</totfact>
</mgrwt>
</event>
<event>
 7    1  0.1254976E-005  0.3330152E+03  0.7546771E-02  0.1071060E+00
         -4   -1    0    0    0  501 -0.00000000000E+00  0.00000000000E+00  0.13089242317E+03  0.13089242317E+03  0.00000000000E+00 0.  1.
          4   -1    0    0  501    0  0.00000000000E+00 -0.00000000000E+00 -0.11772369506E+04  0.11772369506E+04  0.00000000000E+00 0. -1.
         23    2    1    2    0    0  0.30580765360E+03 -0.41892193581E+02 -0.87773243954E+03  0.93486113000E+03  0.90982526198E+02 0.  0.
          5    1    1    2  502    0 -0.99766700858E+02 -0.48452903506E+01  0.44889873666E+01  0.10009551661E+03  0.47000000000E+01 0.  1.
         -5    1    1    2    0  502 -0.20604095274E+03  0.46737483932E+02 -0.17310107524E+03  0.27317272715E+03  0.47000000000E+01 0.  1.
        -11    1    3    3    0    0  0.67682828107E+02 -0.24725674504E+02 -0.11568971980E+03  0.13629539783E+03  0.00000000000E+00 0.  1.
         11    1    3    3    0    0  0.23812482549E+03 -0.17166519077E+02 -0.76204271974E+03  0.79856573217E+03  0.00000000000E+00 0. -1.
<mgrwt>
<rscale>  0 0.33017365E+03</rscale>
<asrwt>0</asrwt>
<pdfrwt beam="2">  1        4 0.18111338E+00 0.33301523E+03</pdfrwt>
<pdfrwt beam="1">  1       -4 0.20137295E-01 0.33301523E+03</pdfrwt>
<totfact> 0.78288626E+00</totfact>
</mgrwt>
</event>
<event>
 7    1  0.1254976E-005  0.1969736E+03  0.7546771E-02  0.1156737E+00
          1   -1    0    0  501    0  0.00000000000E+00  0.00000000000E+00  0.10507437576E+03  0.10507437576E+03  0.00000000000E+00 0. -1.
         -1   -1    0    0    0  501 -0.00000000000E+00 -0.00000000000E+00 -0.38302297015E+03  0.38302297015E+03  0.00000000000E+00 0.  1.
         23    2    1    2    0    0 -0.55117009786E+02  0.14189886067E+03 -0.45235943994E+02  0.18321411523E+03  0.91367116412E+02 0.  0.
          5    1    1    2  502    0 -0.44667603741E+01  0.21515219475E+02 -0.34015682338E+02  0.40767796877E+02  0.47000000000E+01 0. -1.
         -5    1    1    2    0  502  0.59583770160E+02 -0.16341408015E+03 -0.19869696806E+03  0.26411543380E+03  0.47000000000E+01 0. -1.
        -11    1    3    3    0    0 -0.14374119907E+02  0.87525970731E+02 -0.67776028976E+02  0.11162885370E+03  0.00000000000E+00 0.  1.
         11    1    3    3    0    0 -0.40742889879E+02  0.54372889939E+02  0.22540084982E+02  0.71585261521E+02  0.00000000000E+00 0. -1.
<mgrwt>
<rscale>  0 0.19192487E+03</rscale>
<asrwt>0</asrwt>
<pdfrwt beam="1">  1        1 0.16165289E-01 0.19697362E+03</pdfrwt>
<pdfrwt beam="2">  1       -1 0.58926610E-01 0.19697362E+03</pdfrwt>
<totfact> 0.10107705E+03</totfact>
</mgrwt>
</event>
<event>
 7    1  0.1254976E-005  0.1739945E+03  0.7546771E-02  0.1179840E+00
          2   -1    0    0  501    0  0.00000000000E+00  0.00000000000E+00  0.22422740745E+03  0.22422740745E+03  0.00000000000E+00 0. -1.
         -2   -1    0    0    0  501 -0.00000000000E+00 -0.00000000000E+00 -0.11876256089E+03  0.11876256089E+03  0.00000000000E+00 0.  1.
         23    2    1    2    0    0 -0.69511215884E+01  0.12083592368E+03  0.60924754624E+02  0.16338506796E+03  0.91286451136E+02 0.  0.
          5    1    1    2  502    0  0.57164920317E+02 -0.56372197183E+02 -0.10305901826E+02  0.81079925645E+02  0.47000000000E+01 0. -1.
         -5    1    1    2    0  502 -0.50213798729E+02 -0.64463726501E+02  0.54845993761E+02  0.98524974747E+02  0.47000000000E+01 0. -1.
        -11    1    3    3    0    0  0.15215693069E+02  0.40004787677E+02  0.66830991629E+02  0.79361714918E+02  0.00000000000E+00 0. -1.
         11    1    3    3    0    0 -0.22166814657E+02  0.80831136007E+02 -0.59062370043E+01  0.84023353038E+02  0.00000000000E+00 0.  1.
<mgrwt>
<rscale>  0 0.16810368E+03</rscale>
<asrwt>0</asrwt>
<pdfrwt beam="1">  1        2 0.34496524E-01 0.17399454E+03</pdfrwt>
<pdfrwt beam="2">  1       -2 0.18271163E-01 0.17399454E+03</pdfrwt>
<totfact> 0.35981897E+03</totfact>
</mgrwt>
</event>
<event>
 7    1  0.1254976E-005  0.1614461E+03  0.7546771E-02  0.1194434E+00
          2   -1    0    0  501    0  0.00000000000E+00  0.00000000000E+00  0.34571063828E+03  0.34571063828E+03  0.00000000000E+00 0. -1.
         -2   -1    0    0    0  501 -0.00000000000E+00 -0.00000000000E+00 -0.64541764072E+02  0.64541764072E+02  0.00000000000E+00 0.  1.
         23    2    1    2    0    0  0.13231202972E+02 -0.10130877063E+03  0.12516750952E+03  0.18575010817E+03  0.91638777313E+02 0.  0.
          5    1    1    2  502    0 -0.35108496103E+02  0.10441141029E+03  0.16641616198E+03  0.19962659659E+03  0.47000000000E+01 0. -1.
         -5    1    1    2    0  502  0.21877293131E+02 -0.31026396615E+01 -0.10414797298E+02  0.24875697586E+02  0.47000000000E+01 0. -1.
        -11    1    3    3    0    0 -0.14586452876E+02 -0.64873757003E+02  0.12304318170E+03  0.13986062176E+03  0.00000000000E+00 0. -1.
         11    1    3    3    0    0  0.27817655848E+02 -0.36435013627E+02  0.21243278234E+01  0.45889486417E+02  0.00000000000E+00 0.  1.
<mgrwt>
<rscale>  0 0.15502256E+03</rscale>
<asrwt>0</asrwt>
<pdfrwt beam="1">  1        2 0.53186251E-01 0.16144613E+03</pdfrwt>
<pdfrwt beam="2">  1       -2 0.99295024E-02 0.16144613E+03</pdfrwt>
<totfact> 0.60763054E+03</totfact>
</mgrwt>
</event>
<event>
 7    1  0.1254976E-005  0.1419118E+03  0.7546771E-02  0.1221291E+00
         -4   -1    0    0    0  501 -0.00000000000E+00  0.00000000000E+00  0.53400365249E+02  0.53400365249E+02  0.00000000000E+00 0.  1.
          4   -1    0    0  501    0  0.00000000000E+00 -0.00000000000E+00 -0.40218380149E+03  0.40218380149E+03  0.00000000000E+00 0. -1.
         23    2    1    2    0    0  0.95309979389E+01 -0.66499399231E+02 -0.27075451332E+03  0.29363522231E+03  0.91654935894E+02 0.  0.
          5    1    1    2  502    0 -0.19625765170E+02  0.75909667530E+02  0.39868031880E+01  0.78647523055E+02  0.47000000000E+01 0.  1.
         -5    1    1    2    0  502  0.10094767231E+02 -0.94102682995E+01 -0.82015726104E+02  0.83301421376E+02  0.47000000000E+01 0.  1.
        -11    1    3    3    0    0 -0.31680301113E+02 -0.15116227256E+01 -0.44452652924E+02  0.54607369776E+02  0.00000000000E+00 0.  1.
         11    1    3    3    0    0  0.41211299052E+02 -0.64987776505E+02 -0.22630186040E+03  0.23902785253E+03  0.00000000000E+00 0. -1.
<mgrwt>
<rscale>  0 0.13424399E+03</rscale>
<asrwt>0</asrwt>
<pdfrwt beam="2">  1        4 0.61874430E-01 0.14191176E+03</pdfrwt>
<pdfrwt beam="1">  1       -4 0.82154410E-02 0.14191176E+03</pdfrwt>
<totfact> 0.43992457E+02</totfact>
</mgrwt>
</event>
<event>
 7    1  0.1254976E-005  0.2534653E+03  0.7546771E-02  0.1113312E+00
         -1   -1    0    0    0  501 -0.00000000000E+00  0.00000000000E+00  0.16256273741E+03  0.16256273741E+03  0.00000000000E+00 0.  1.
          1   -1    0    0  501    0  0.00000000000E+00 -0.00000000000E+00 -0.37441458395E+03  0.37441458395E+03  0.00000000000E+00 0. -1.
         23    2    1    2    0    0  0.12360291660E+03  0.18309827585E+03 -0.10880896295E+03  0.26336718806E+03  0.93382148823E+02 0.  0.
          5    1    1    2  502    0 -0.10526062620E+03 -0.11943482117E+03 -0.12626584735E+03  0.20324770636E+03  0.47000000000E+01 0. -1.
         -5    1    1    2    0  502 -0.18342290399E+02 -0.63663454681E+02  0.23222963757E+02  0.70362426938E+02  0.47000000000E+01 0. -1.
        -11    1    3    3    0    0  0.11939505998E+03  0.10852462596E+03 -0.95521134636E+02  0.18750216518E+03  0.00000000000E+00 0. -1.
         11    1    3    3    0    0  0.42078566222E+01  0.74573649888E+02 -0.13287828316E+02  0.75865022878E+02  0.00000000000E+00 0.  1.
<mgrwt>
<rscale>  0 0.24998790E+03</rscale>
<asrwt>0</asrwt>
<pdfrwt beam="2">  1        1 0.57602244E-01 0.25346532E+03</pdfrwt>
<pdfrwt beam="1">  1       -1 0.25009652E-01 0.25346532E+03</pdfrwt>
<totfact> 0.91984059E+02</totfact>
</mgrwt>
</event>
<event>
 7    1  0.1254976E-005  0.1278603E+03  0.7546771E-02  0.1241820E+00
         -2   -1    0    0    0  501 -0.00000000000E+00  0.00000000000E+00  0.51650314954E+02  0.51650314954E+02  0.00000000000E+00 0.  1.
          2   -1    0    0  501    0  0.00000000000E+00 -0.00000000000E+00 -0.25769180728E+03  0.25769180728E+03  0.00000000000E+00 0. -1.
         23    2    1    2    0    0  0.49571319012E+01  0.26435125871E+02 -0.10628879202E+03  0.14717290545E+03  0.98179263353E+02 0.  0.
          5    1    1    2  502    0  0.53020419004E+02  0.10958997351E+02 -0.23433719035E+02  0.59181869201E+02  0.47000000000E+01 0. -1.
         -5    1    1    2    0  502 -0.57977550906E+02 -0.37394123222E+02 -0.76318981277E+02  0.10298734759E+03  0.47000000000E+01 0. -1.
        -11    1    3    3    0    0 -0.31409990664E+02 -0.42501193996E+01 -0.10919864476E+01  0.31715035281E+02  0.00000000000E+00 0.  1.
         11    1    3    3    0    0  0.36367122566E+02  0.30685245270E+02 -0.10519680557E+03  0.11545787017E+03  0.00000000000E+00 0. -1.
<mgrwt>
<rscale>  0 0.12077725E+03</rscale>
<asrwt>0</asrwt>
<pdfrwt beam="2">  1        2 0.39644893E-01 0.12786029E+03</pdfrwt>
<pdfrwt beam="1">  1       -2 0.79462024E-02 0.12786029E+03</pdfrwt>
<totfact> 0.11562340E+04</totfact>
</mgrwt>
</event>
<event>
 7    1  0.1254976E-005  0.1377287E+03  0.7546771E-02  0.1228191E+00
          2   -1    0    0  501    0  0.00000000000E+00  0.00000000000E+00  0.85807265719E+02  0.85807265719E+02  0.00000000000E+00 0.  1.
         -2   -1    0    0    0  501 -0.00000000000E+00 -0.00000000000E+00 -0.18930912284E+03  0.18930912284E+03  0.00000000000E+00 0. -1.
         23    2    1    2    0    0  0.13152949231E+02 -0.56312937255E+02 -0.89138692657E+01  0.10803535009E+03  0.90818681049E+02 0.  0.
          5    1    1    2  502    0 -0.64567338792E+01  0.35629404429E+02 -0.12453494255E+03  0.12977744715E+03  0.47000000000E+01 0. -1.
         -5    1    1    2    0  502 -0.66962153521E+01  0.20683532826E+02  0.29946954694E+02  0.37303591324E+02  0.47000000000E+01 0. -1.
        -11    1    3    3    0    0  0.44407709671E+02 -0.41393916860E+02  0.18936822859E+02  0.63593272374E+02  0.00000000000E+00 0.  1.
         11    1    3    3    0    0 -0.31254760440E+02 -0.14919020395E+02 -0.27850692124E+02  0.44442077714E+02  0.00000000000E+00 0. -1.
<mgrwt>
<rscale>  0 0.12950570E+03</rscale>
<asrwt>0</asrwt>
<pdfrwt beam="1">  1        2 0.13201118E-01 0.13772867E+03</pdfrwt>
<pdfrwt beam="2">  1       -2 0.29124480E-01 0.13772867E+03</pdfrwt>
<totfact> 0.46840070E+03</totfact>
</mgrwt>
</event>
<event>
 7    1  0.1254976E-005  0.2652223E+03  0.7546771E-02  0.1116645E+00
          1   -1    0    0  501    0  0.00000000000E+00  0.00000000000E+00  0.13814838478E+04  0.13814838478E+04  0.00000000000E+00 0. -1.
         -1   -1    0    0    0  501 -0.00000000000E+00 -0.00000000000E+00 -0.39943879699E+02  0.39943879699E+02  0.00000000000E+00 0.  1.
         23    2    1    2    0    0 -0.98748492551E+02  0.13764119894E+03  0.72815746039E+03  0.75316059775E+03  0.91330358875E+02 0.  0.
          5    1    1    2  502    0  0.46971548013E+02 -0.24595601662E+02  0.49053162166E+03  0.49341121977E+03  0.47000000000E+01 0. -1.
         -5    1    1    2    0  502  0.51776944538E+02 -0.11304559728E+03  0.12285088602E+03  0.17485590996E+03  0.47000000000E+01 0.  1.
        -11    1    3    3    0    0 -0.99395350523E+02  0.62826756830E+02  0.43680505360E+03  0.45235527181E+03  0.00000000000E+00 0. -1.
         11    1    3    3    0    0  0.64685797279E+00  0.74814442109E+02  0.29135240679E+03  0.30080532594E+03  0.00000000000E+00 0.  1.
<mgrwt>
<rscale>  0 0.24478672E+03</rscale>
<asrwt>0</asrwt>
<pdfrwt beam="1">  1        1 0.21253594E+00 0.26522228E+03</pdfrwt>
<pdfrwt beam="2">  1       -1 0.61452133E-02 0.26522228E+03</pdfrwt>
<totfact> 0.11077456E+03</totfact>
</mgrwt>
</event>
<event>
 7    1  0.1254976E-005  0.1438497E+03  0.7546771E-02  0.1218391E+00
         -2   -1    0    0    0  501 -0.00000000000E+00  0.00000000000E+00  0.38937964462E+03  0.38937964462E+03  0.00000000000E+00 0.  1.
          2   -1    0    0  501    0  0.00000000000E+00 -0.00000000000E+00 -0.64228487942E+02  0.64228487942E+02  0.00000000000E+00 0. -1.
         23    2    1    2    0    0 -0.18018966789E+02  0.68890931562E+02  0.21955524027E+02  0.11801862419E+03  0.91518888781E+02 0.  0.
          5    1    1    2  502    0 -0.45046455088E+02 -0.59889272988E+02  0.20623509087E+03  0.21947872525E+03  0.47000000000E+01 0. -1.
         -5    1    1    2    0  502  0.63065421877E+02 -0.90016585736E+01  0.96960541782E+02  0.11611078312E+03  0.47000000000E+01 0. -1.
        -11    1    3    3    0    0  0.24439539531E+02  0.19554122657E+02 -0.23060866402E+02  0.38877478887E+02  0.00000000000E+00 0. -1.
         11    1    3    3    0    0 -0.42458506320E+02  0.49336808905E+02  0.45016390430E+02  0.79141145299E+02  0.00000000000E+00 0.  1.
<mgrwt>
<rscale>  0 0.13630356E+03</rscale>
<asrwt>0</asrwt>
<pdfrwt beam="2">  1        2 0.98813061E-02 0.14384967E+03</pdfrwt>
<pdfrwt beam="1">  1       -2 0.59904559E-01 0.14384967E+03</pdfrwt>
<totfact> 0.16766693E+03</totfact>
</mgrwt>
</event>
<event>
 7    1  0.1254976E-005  0.2029224E+03  0.7546771E-02  0.1151479E+00
         -2   -1    0    0    0  501 -0.00000000000E+00  0.00000000000E+00  0.29480863541E+03  0.29480863541E+03  0.00000000000E+00 0.  1.
          2   -1    0    0  501    0  0.00000000000E+00 -0.00000000000E+00 -0.13049014995E+03  0.13049014995E+03  0.00000000000E+00 0. -1.
         23    2    1    2    0    0 -0.11051154126E+03 -0.11549939253E+03  0.42455476400E+02  0.18859621675E+03  0.90626458986E+02 0.  0.
          5    1    1    2  502    0  0.10311315919E+03  0.14124314973E+03  0.11226250614E+03  0.20786272208E+03  0.47000000000E+01 0. -1.
         -5    1    1    2    0  502  0.73983820686E+01 -0.25743757194E+02  0.96005029187E+01  0.28839846532E+02  0.47000000000E+01 0. -1.
        -11    1    3    3    0    0 -0.17762729708E+02  0.14220480603E+02 -0.25609617582E+01  0.22897492448E+02  0.00000000000E+00 0.  1.
         11    1    3    3    0    0 -0.92748811555E+02 -0.12971987313E+03  0.45016438158E+02  0.16569872430E+03  0.00000000000E+00 0. -1.
<mgrwt>
<rscale>  0 0.19795095E+03</rscale>
<asrwt>0</asrwt>
<pdfrwt beam="2">  1        2 0.20075408E-01 0.20292243E+03</pdfrwt>
<pdfrwt beam="1">  1       -2 0.45355175E-01 0.20292243E+03</pdfrwt>
<totfact> 0.12785619E+03</totfact>
</mgrwt>
</event>
<event>
 6    1  0.1254976E-005  0.1292173E+03  0.7546771E-02  0.1273413E+00
         -2   -1    0    0    0  501 -0.00000000000E+00  0.00000000000E+00  0.96636602584E+03  0.96636602584E+03  0.00000000000E+00 0.  1.
          2   -1    0    0  501    0  0.00000000000E+00 -0.00000000000E+00 -0.87998354262E+01  0.87998354262E+01  0.00000000000E+00 0. -1.
          5    1    1    2  502    0  0.32640693685E+02 -0.20394924747E+02  0.73114691088E+02  0.82759989684E+02  0.47000000000E+01 0. -1.
         -5    1    1    2    0  502 -0.43031881642E+02 -0.10673079582E+02  0.67189875480E+03  0.67337633176E+03  0.47000000000E+01 0. -1.
        -11    1    1    2    0    0 -0.15874044830E+02  0.15020313788E+02  0.98616328765E+02  0.10100878885E+03  0.00000000000E+00 0. -1.
         11    1    1    2    0    0  0.26265232786E+02  0.16047690541E+02  0.11393641575E+03  0.11802075097E+03  0.00000000000E+00 0.  1.
<mgrwt>
<rscale>  0 0.10334593E+03</rscale>
<asrwt>0</asrwt>
<pdfrwt beam="2">  1        2 0.13538216E-02 0.12921727E+03</pdfrwt>
<pdfrwt beam="1">  1       -2 0.14867161E+00 0.12921727E+03</pdfrwt>
<totfact> 0.28996377E+03</totfact>
</mgrwt>
</event>
<event>
 7    1  0.1254976E-005  0.1784896E+03  0.7546771E-02  0.1175069E+00
         -1   -1    0    0    0  501 -0.00000000000E+00  0.00000000000E+00  0.30390208973E+02  0.30390208973E+02  0.00000000000E+00 0.  1.
          1   -1    0    0  501    0  0.00000000000E+00 -0.00000000000E+00 -0.97050127450E+03  0.97050127450E+03  0.00000000000E+00 0. -1.
         23    2    1    2    0    0 -0.12349308162E+03  0.31386302435E+02 -0.32966517938E+03  0.36488620827E+03  0.90703766721E+02 0.  0.
          5    1    1    2  502    0  0.54961588176E+02  0.47435131154E+02 -0.28717251379E+03  0.29624484894E+03  0.47000000000E+01 0. -1.
         -5    1    1    2    0  502  0.68531493448E+02 -0.78821433590E+02 -0.32327337235E+03  0.33976042627E+03  0.47000000000E+01 0. -1.
        -11    1    3    3    0    0 -0.60433864275E+02  0.36879472234E+02 -0.26540816655E+03  0.27468862789E+03  0.00000000000E+00 0. -1.
         11    1    3    3    0    0 -0.63059217348E+02 -0.54931697986E+01 -0.64257012834E+02  0.90197580375E+02  0.00000000000E+00 0.  1.
<mgrwt>
<rscale>  0 0.17269229E+03</rscale>
<asrwt>0</asrwt>
<pdfrwt beam="2">  1        1 0.14930786E+00 0.17848958E+03</pdfrwt>
<pdfrwt beam="1">  1       -1 0.46754176E-02 0.17848958E+03</pdfrwt>
<totfact> 0.32451577E+03</totfact>
</mgrwt>
</event>
<event>
 7    1  0.1254976E-005  0.1557295E+03  0.7546771E-02  0.1203162E+00
          2   -1    0    0  501    0  0.00000000000E+00  0.00000000000E+00  0.14956996840E+03  0.14956996840E+03  0.00000000000E+00 0.  1.
         -2   -1    0    0    0  501 -0.00000000000E+00 -0.00000000000E+00 -0.13350781339E+03  0.13350781339E+03  0.00000000000E+00 0. -1.
         23    2    1    2    0    0 -0.77034135743E+02  0.51888432589E+02  0.14938843498E+02  0.12734423619E+03  0.85829586616E+02 0.  0.
          5    1    1    2  502    0  0.23588115104E+02 -0.14242329345E+02 -0.59950440858E+02  0.66146719332E+02  0.47000000000E+01 0. -1.
         -5    1    1    2    0  502  0.53446020640E+02 -0.37646103243E+02  0.61073752369E+02  0.89586826264E+02  0.47000000000E+01 0. -1.
        -11    1    3    3    0    0 -0.37279586399E+02  0.17722810390E+02 -0.35615748108E+02  0.54519235904E+02  0.00000000000E+00 0. -1.
         11    1    3    3    0    0 -0.39754549344E+02  0.34165622198E+02  0.50554591606E+02  0.72825000283E+02  0.00000000000E+00 0.  1.
<mgrwt>
<rscale>  0 0.14783277E+03</rscale>
<asrwt>0</asrwt>
<pdfrwt beam="1">  1        2 0.23010764E-01 0.15572949E+03</pdfrwt>
<pdfrwt beam="2">  1       -2 0.20539664E-01 0.15572949E+03</pdfrwt>
<totfact> 0.45751306E+03</totfact>
</mgrwt>
</event>
<event>
 7    1  0.1254976E-005  0.1657737E+03  0.7546771E-02  0.1189792E+00
         -2   -1    0    0    0  501 -0.00000000000E+00  0.00000000000E+00  0.88810970239E+02  0.88810970239E+02  0.00000000000E+00 0.  1.
          2   -1    0    0  501    0  0.00000000000E+00 -0.00000000000E+00 -0.26546444572E+03  0.26546444572E+03  0.00000000000E+00 0. -1.
         23    2    1    2    0    0  0.24592888378E+01 -0.10887162364E+03 -0.94575329438E+02  0.16929506999E+03  0.88641126173E+02 0.  0.
          5    1    1    2  502    0  0.14338631538E+00 -0.22962174100E+02  0.85067056135E+01  0.24934635338E+02  0.47000000000E+01 0.  1.
         -5    1    1    2    0  502 -0.26026751532E+01  0.13183379774E+03 -0.90584851661E+02  0.16004571064E+03  0.47000000000E+01 0.  1.
        -11    1    3    3    0    0 -0.23061718448E+02 -0.69510741447E+02 -0.97905557981E+02  0.12226644805E+03  0.00000000000E+00 0. -1.
         11    1    3    3    0    0  0.25521007286E+02 -0.39360882189E+02  0.33302285428E+01  0.47028621942E+02  0.00000000000E+00 0.  1.
<mgrwt>
<rscale>  0 0.15903397E+03</rscale>
<asrwt>0</asrwt>
<pdfrwt beam="2">  1        2 0.40840683E-01 0.16577366E+03</pdfrwt>
<pdfrwt beam="1">  1       -2 0.13663226E-01 0.16577366E+03</pdfrwt>
<totfact> 0.48396870E+03</totfact>
</mgrwt>
</event>
<event>
 7    1  0.1254976E-005  0.1219318E+03  0.7546771E-02  0.1248014E+00
          1   -1    0    0  501    0  0.00000000000E+00  0.00000000000E+00  0.14302650707E+03  0.14302650707E+03  0.00000000000E+00 0. -1.
         -1   -1    0    0    0  501 -0.00000000000E+00 -0.00000000000E+00 -0.33216932802E+03  0.33216932802E+03  0.00000000000E+00 0.  1.
         23    2    1    2    0    0  0.64824879444E+01 -0.49816395727E+02  0.11063175836E+03  0.15157235834E+03  0.90615108675E+02 0.  0.
          5    1    1    2  502    0  0.47902442520E+02  0.45870957165E+02 -0.14687846917E+03  0.16122705547E+03  0.47000000000E+01 0. -1.
         -5    1    1    2    0  502 -0.54384930464E+02  0.39454385622E+01 -0.15289611015E+03  0.16239642128E+03  0.47000000000E+01 0.  1.
        -11    1    3    3    0    0  0.35453359563E+02  0.20181395302E+01  0.73251989272E+02  0.81405574279E+02  0.00000000000E+00 0.  1.
         11    1    3    3    0    0 -0.28970871618E+02 -0.51834535258E+02  0.37379769088E+02  0.70166784056E+02  0.00000000000E+00 0. -1.
<mgrwt>
<rscale>  0 0.11706764E+03</rscale>
<asrwt>0</asrwt>
<pdfrwt beam="1">  1        1 0.22004078E-01 0.12193177E+03</pdfrwt>
<pdfrwt beam="2">  1       -1 0.51102973E-01 0.12193177E+03</pdfrwt>
<totfact> 0.88064335E+02</totfact>
</mgrwt>
</event>
<event>
 7    1  0.1254976E-005  0.1269516E+03  0.7546771E-02  0.1247278E+00
         -2   -1    0    0    0  501 -0.00000000000E+00  0.00000000000E+00  0.27489290747E+02  0.27489290747E+02  0.00000000000E+00 0.  1.
          2   -1    0    0  501    0  0.00000000000E+00 -0.00000000000E+00 -0.46567122505E+03  0.46567122505E+03  0.00000000000E+00 0. -1.
         23    2    1    2    0    0  0.90698042230E+01 -0.20219332541E+02 -0.24380360717E+03  0.26099753682E+03  0.90489958556E+02 0.  0.
          5    1    1    2  502    0  0.26976765032E+02  0.20654931748E+02 -0.19274386555E+03  0.19577195857E+03  0.47000000000E+01 0.  1.
         -5    1    1    2    0  502 -0.36046569255E+02 -0.43559920741E+00 -0.16344615887E+01  0.36391020409E+02  0.47000000000E+01 0.  1.
        -11    1    3    3    0    0 -0.37016631854E+02 -0.28008195814E+02 -0.12287262450E+03  0.13134828479E+03  0.00000000000E+00 0.  1.
         11    1    3    3    0    0  0.46086436077E+02  0.77888632732E+01 -0.12093098267E+03  0.12964925203E+03  0.00000000000E+00 0. -1.
<mgrwt>
<rscale>  0 0.11750075E+03</rscale>
<asrwt>0</asrwt>
<pdfrwt beam="2">  1        2 0.71641724E-01 0.12695162E+03</pdfrwt>
<pdfrwt beam="1">  1       -2 0.42291218E-02 0.12695162E+03</pdfrwt>
<totfact> 0.15983779E+04</totfact>
</mgrwt>
</event>
<event>
 7    1  0.1254976E-005  0.1293063E+03  0.7546771E-02  0.1242608E+00
         -3   -1    0    0    0  501 -0.00000000000E+00  0.00000000000E+00  0.23204895109E+03  0.23204895109E+03  0.00000000000E+00 0.  1.
          3   -1    0    0  501    0  0.00000000000E+00 -0.00000000000E+00 -0.81622811986E+02  0.81622811986E+02  0.00000000000E+00 0. -1.
         23    2    1    2    0    0  0.61796624565E+01 -0.32490788145E+02 -0.20833512520E+02  0.99079158912E+02  0.91042874211E+02 0.  0.
          5    1    1    2  502    0  0.35964303234E+01  0.69866117776E+02  0.15902603752E+03  0.17379752395E+03  0.47000000000E+01 0. -1.
         -5    1    1    2    0  502 -0.97760927799E+01 -0.37375329631E+02  0.12233614104E+02  0.40795080207E+02  0.47000000000E+01 0. -1.
        -11    1    3    3    0    0  0.24603586885E+02 -0.54166198054E+02  0.62265376670E+01  0.59817081762E+02  0.00000000000E+00 0.  1.
         11    1    3    3    0    0 -0.18423924428E+02  0.21675409909E+02 -0.27060050187E+02  0.39262077151E+02  0.00000000000E+00 0. -1.
<mgrwt>
<rscale>  0 0.12029717E+03</rscale>
<asrwt>0</asrwt>
<pdfrwt beam="2">  1        3 0.12557356E-01 0.12930629E+03</pdfrwt>
<pdfrwt beam="1">  1       -3 0.35699838E-01 0.12930629E+03</pdfrwt>
<totfact> 0.89097186E+02</totfact>
</mgrwt>
</event>
<event>
 7    1  0.1254976E-005  0.1314360E+03  0.7546771E-02  0.1240862E+00
          2   -1    0    0  501    0  0.00000000000E+00  0.00000000000E+00  0.47526780653E+03  0.47526780653E+03  0.00000000000E+00 0. -1.
         -2   -1    0    0    0  501 -0.00000000000E+00 -0.00000000000E+00 -0.27108123998E+02  0.27108123998E+02  0.00000000000E+00 0.  1.
         23    2    1    2    0    0 -0.34376039190E+02 -0.21657038103E+02  0.19243772601E+03  0.21485351578E+03  0.86481301330E+02 0.  0.
          5    1    1    2  502    0  0.47757617601E+02 -0.41264787967E+02  0.16033728089E+03  0.17237664114E+03  0.47000000000E+01 0. -1.
         -5    1    1    2    0  502 -0.13381578411E+02  0.62921826071E+02  0.95384675632E+02  0.11514577362E+03  0.47000000000E+01 0. -1.
        -11    1    3    3    0    0 -0.36047603631E+02  0.27839661646E+02  0.81505208709E+02  0.93367957752E+02  0.00000000000E+00 0.  1.
         11    1    3    3    0    0  0.16715644412E+01 -0.49496699749E+02  0.11093251730E+03  0.12148555802E+03  0.00000000000E+00 0. -1.
<mgrwt>
<rscale>  0 0.12136490E+03</rscale>
<asrwt>0</asrwt>
<pdfrwt beam="1">  1        2 0.73118118E-01 0.13143599E+03</pdfrwt>
<pdfrwt beam="2">  1       -2 0.41704810E-02 0.13143599E+03</pdfrwt>
<totfact> 0.16008300E+04</totfact>
</mgrwt>
</event>
<event>
 7    1  0.1254976E-005  0.1392187E+03  0.7546771E-02  0.1226129E+00
         -1   -1    0    0    0  501 -0.00000000000E+00  0.00000000000E+00  0.18162669193E+02  0.18162669193E+02  0.00000000000E+00 0.  1.
          1   -1    0    0  501    0  0.00000000000E+00 -0.00000000000E+00 -0.85905037393E+03  0.85905037393E+03  0.00000000000E+00 0. -1.
         23    2    1    2    0    0 -0.56335773481E+02 -0.24345743120E+02 -0.42177209274E+03  0.43557999328E+03  0.89843184211E+02 0.  0.
          5    1    1    2  502    0  0.39839586379E+02  0.10949761127E+02 -0.28502301557E+02  0.50413897942E+02  0.47000000000E+01 0.  1.
         -5    1    1    2    0  502  0.16496187102E+02  0.13395981992E+02 -0.39061331044E+03  0.39121915191E+03  0.47000000000E+01 0.  1.
        -11    1    3    3    0    0  0.24265672244E+02 -0.29814718535E+00 -0.11138378899E+03  0.11399675518E+03  0.00000000000E+00 0. -1.
         11    1    3    3    0    0 -0.80601445725E+02 -0.24047595934E+02 -0.31038830375E+03  0.32158323810E+03  0.00000000000E+00 0.  1.
<mgrwt>
<rscale>  0 0.13089833E+03</rscale>
<asrwt>0</asrwt>
<pdfrwt beam="2">  1        1 0.13216163E+00 0.13921873E+03</pdfrwt>
<pdfrwt beam="1">  1       -1 0.27942561E-02 0.13921873E+03</pdfrwt>
<totfact> 0.83369923E+03</totfact>
</mgrwt>
</event>
<event>
 7    1  0.1254976E-005  0.2276619E+03  0.7546771E-02  0.1128296E+00
          2   -1    0    0  501    0  0.00000000000E+00  0.00000000000E+00  0.35336932356E+02  0.35336932356E+02  0.00000000000E+00 0. -1.
         -2   -1    0    0    0  501 -0.00000000000E+00 -0.00000000000E+00 -0.36668399076E+03  0.36668399076E+03  0.00000000000E+00 0.  1.
         23    2    1    2    0    0  0.17899584121E+02  0.10617550120E+02 -0.94311458766E+02  0.13324020074E+03  0.91788737628E+02 0.  0.
          5    1    1    2  502    0 -0.43521480487E+02 -0.37341962960E+02 -0.22063871293E+03  0.22801770349E+03  0.47000000000E+01 0.  1.
         -5    1    1    2    0  502  0.25621896366E+02  0.26724412840E+02 -0.16396886704E+02  0.40763018885E+02  0.47000000000E+01 0.  1.
        -11    1    3    3    0    0 -0.11888639897E+02  0.26191707375E+02 -0.95366459109E+02  0.99609772698E+02  0.00000000000E+00 0.  1.
         11    1    3    3    0    0  0.29788224017E+02 -0.15574157256E+02  0.10550003431E+01  0.33630428039E+02  0.00000000000E+00 0. -1.
<mgrwt>
<rscale>  0 0.22766192E+03</rscale>
<asrwt>0</asrwt>
<pdfrwt beam="1">  1        2 0.54364510E-02 0.22766192E+03</pdfrwt>
<pdfrwt beam="2">  1       -2 0.56412923E-01 0.22766192E+03</pdfrwt>
<totfact> 0.41654156E+03</totfact>
</mgrwt>
</event>
<event>
 7    1  0.1254976E-005  0.1302368E+03  0.7546771E-02  0.1243398E+00
         -2   -1    0    0    0  501 -0.00000000000E+00  0.00000000000E+00  0.24475949515E+02  0.24475949515E+02  0.00000000000E+00 0.  1.
          2   -1    0    0  501    0  0.00000000000E+00 -0.00000000000E+00 -0.51208256429E+03  0.51208256429E+03  0.00000000000E+00 0. -1.
         23    2    1    2    0    0  0.28582163116E+01 -0.36450374004E+02 -0.21886003460E+03  0.23791768245E+03  0.85838858979E+02 0.  0.
          5    1    1    2  502    0  0.56258374532E+02 -0.14951409155E+01 -0.86872634726E+02  0.10361556261E+03  0.47000000000E+01 0. -1.
         -5    1    1    2    0  502 -0.59116590844E+02  0.37945514920E+02 -0.18187394544E+03  0.19502526874E+03  0.47000000000E+01 0. -1.
        -11    1    3    3    0    0  0.25935138367E+02  0.18262548044E+02 -0.53222871364E+02  0.61958260945E+02  0.00000000000E+00 0.  1.
         11    1    3    3    0    0 -0.23076922055E+02 -0.54712922048E+02 -0.16563716324E+03  0.17595942150E+03  0.00000000000E+00 0. -1.
<mgrwt>
<rscale>  0 0.11981799E+03</rscale>
<asrwt>0</asrwt>
<pdfrwt beam="2">  1        2 0.78781931E-01 0.13023679E+03</pdfrwt>
<pdfrwt beam="1">  1       -2 0.37655308E-02 0.13023679E+03</pdfrwt>
<totfact> 0.17154638E+04</totfact>
</mgrwt>
</event>
<event>
 7    1  0.1254976E-005  0.1316136E+03  0.7546771E-02  0.1237500E+00
         -3   -1    0    0    0  501 -0.00000000000E+00  0.00000000000E+00  0.32754608874E+03  0.32754608874E+03  0.00000000000E+00 0.  1.
          3   -1    0    0  501    0  0.00000000000E+00 -0.00000000000E+00 -0.51297690514E+02  0.51297690514E+02  0.00000000000E+00 0. -1.
         23    2    1    2    0    0 -0.13743659965E+02  0.38849731503E+02  0.42122505330E+02  0.11026034630E+03  0.93192535556E+02 0.  0.
          5    1    1    2  502    0 -0.25925020835E+02  0.50650494519E+01 -0.22436576336E+00  0.26830985282E+02  0.47000000000E+01 0.  1.
         -5    1    1    2    0  502  0.39668680799E+02 -0.43914780955E+02  0.23435025866E+03  0.24175244767E+03  0.47000000000E+01 0.  1.
        -11    1    3    3    0    0 -0.45210349176E+02  0.18268411729E+02  0.52100177753E+02  0.71359225484E+02  0.00000000000E+00 0.  1.
         11    1    3    3    0    0  0.31466689212E+02  0.20581319774E+02 -0.99776724231E+01  0.38901120814E+02  0.00000000000E+00 0. -1.
<mgrwt>
<rscale>  0 0.12345708E+03</rscale>
<asrwt>0</asrwt>
<pdfrwt beam="2">  1        3 0.78919526E-02 0.13161355E+03</pdfrwt>
<pdfrwt beam="1">  1       -3 0.50391705E-01 0.13161355E+03</pdfrwt>
<totfact> 0.98476774E+02</totfact>
</mgrwt>
</event>
<event>
 7    1  0.1254976E-005  0.2169846E+03  0.7546771E-02  0.1139317E+00
          3   -1    0    0  501    0  0.00000000000E+00  0.00000000000E+00  0.16778114267E+03  0.16778114267E+03  0.00000000000E+00 0. -1.
         -3   -1    0    0    0  501 -0.00000000000E+00 -0.00000000000E+00 -0.30145833079E+03  0.30145833079E+03  0.00000000000E+00 0.  1.
         23    2    1    2    0    0 -0.94033855783E+02 -0.15037634305E+03  0.22018624447E+02  0.20217487579E+03  0.94522219589E+02 0.  0.
          5    1    1    2  502    0  0.41060479653E+00 -0.10760079275E+02 -0.52884242920E+02  0.54173619517E+02  0.47000000000E+01 0. -1.
         -5    1    1    2    0  502  0.93623250986E+02  0.16113642233E+03 -0.10281156964E+03  0.21289097815E+03  0.47000000000E+01 0. -1.
        -11    1    3    3    0    0 -0.17288493709E+02  0.75791430627E+01 -0.13240710406E+02  0.23057576550E+02  0.00000000000E+00 0.  1.
         11    1    3    3    0    0 -0.76745362073E+02 -0.15795548612E+03  0.35259334854E+02  0.17911729924E+03  0.00000000000E+00 0. -1.
<mgrwt>
<rscale>  0 0.21286571E+03</rscale>
<asrwt>0</asrwt>
<pdfrwt beam="1">  1        3 0.25812484E-01 0.21698459E+03</pdfrwt>
<pdfrwt beam="2">  1       -3 0.46378204E-01 0.21698459E+03</pdfrwt>
<totfact> 0.16198478E+02</totfact>
</mgrwt>
</event>
<event>
 7    1  0.1254976E-005  0.2421849E+03  0.7546771E-02  0.1120903E+00
         -2   -1    0    0    0  501 -0.00000000000E+00  0.00000000000E+00  0.28454184606E+03  0.28454184606E+03  0.00000000000E+00 0.  1.
          2   -1    0    0  501    0  0.00000000000E+00 -0.00000000000E+00 -0.21278312802E+03  0.21278312802E+03  0.00000000000E+00 0. -1.
         23    2    1    2    0    0 -0.12744125863E+03  0.16368242650E+03 -0.39884824477E+02  0.23064572902E+03  0.92592882812E+02 0.  0.
          5    1    1    2  502    0  0.14252246822E+03 -0.98121825554E+02  0.66024323008E+02  0.18526156597E+03  0.47000000000E+01 0.  1.
         -5    1    1    2    0  502 -0.15081209592E+02 -0.65560600941E+02  0.45619219519E+02  0.81417679088E+02  0.47000000000E+01 0.  1.
        -11    1    3    3    0    0 -0.29011747072E+02  0.10305714982E+03 -0.42047333766E+02  0.11502363181E+03  0.00000000000E+00 0.  1.
         11    1    3    3    0    0 -0.98429511557E+02  0.60625276671E+02  0.21625092894E+01  0.11562209721E+03  0.00000000000E+00 0. -1.
<mgrwt>
<rscale>  0 0.23834088E+03</rscale>
<asrwt>0</asrwt>
<pdfrwt beam="2">  1        2 0.32735866E-01 0.24218493E+03</pdfrwt>
<pdfrwt beam="1">  1       -2 0.43775669E-01 0.24218493E+03</pdfrwt>
<totfact> 0.79655402E+02</totfact>
</mgrwt>
</event>
<event>
 7    1  0.1254976E-005  0.1285239E+03  0.7546771E-02  0.1243940E+00
         -1   -1    0    0    0  501 -0.00000000000E+00  0.00000000000E+00  0.18426802851E+03  0.18426802851E+03  0.00000000000E+00 0. -1.
          1   -1    0    0  501    0  0.00000000000E+00 -0.00000000000E+00 -0.73307983567E+02  0.73307983567E+02  0.00000000000E+00 0.  1.
         23    2    1    2    0    0 -0.12867710736E+02  0.27025823615E+02  0.15018173549E+02  0.97191365931E+02  0.91239481329E+02 0.  0.
          5    1    1    2  502    0 -0.34210741363E+02 -0.61106928665E+02  0.53987116465E+02  0.88550156972E+02  0.47000000000E+01 0.  1.
         -5    1    1    2    0  502  0.47078452100E+02  0.34081105050E+02  0.41954754927E+02  0.71834489172E+02  0.47000000000E+01 0.  1.
        -11    1    3    3    0    0  0.26130690529E+02 -0.21414776370E+02  0.68046181186E+01  0.34463146436E+02  0.00000000000E+00 0. -1.
         11    1    3    3    0    0 -0.38998401266E+02  0.48440599985E+02  0.82135554299E+01  0.62728219495E+02  0.00000000000E+00 0.  1.
<mgrwt>
<rscale>  0 0.11949037E+03</rscale>
<asrwt>0</asrwt>
<pdfrwt beam="2">  1        1 0.11278151E-01 0.12852390E+03</pdfrwt>
<pdfrwt beam="1">  1       -1 0.28348927E-01 0.12852390E+03</pdfrwt>
<totfact> 0.58144406E+03</totfact>
</mgrwt>
</event>
<event>
 7    1  0.1254976E-005  0.1291850E+03  0.7546771E-02  0.1243390E+00
          1   -1    0    0  501    0  0.00000000000E+00  0.00000000000E+00  0.51071565387E+03  0.51071565387E+03  0.00000000000E+00 0. -1.
         -1   -1    0    0    0  501 -0.00000000000E+00 -0.00000000000E+00 -0.26056274171E+02  0.26056274171E+02  0.00000000000E+00 0.  1.
         23    2    1    2    0    0 -0.20454058317E+02 -0.25384475276E+02  0.26772131180E+03  0.28428255788E+03  0.89883990984E+02 0.  0.
          5    1    1    2  502    0 -0.25183165730E+02  0.30432430323E+02  0.19905444263E+03  0.20299035884E+03  0.47000000000E+01 0.  1.
         -5    1    1    2    0  502  0.45637224048E+02 -0.50479550465E+01  0.17883625267E+02  0.49499011320E+02  0.47000000000E+01 0.  1.
        -11    1    3    3    0    0 -0.44216169155E+02  0.15557707740E+02  0.10897067812E+03  0.11862428325E+03  0.00000000000E+00 0.  1.
         11    1    3    3    0    0  0.23762110838E+02 -0.40942183016E+02  0.15875063368E+03  0.16565827463E+03  0.00000000000E+00 0. -1.
<mgrwt>
<rscale>  0 0.11982250E+03</rscale>
<asrwt>0</asrwt>
<pdfrwt beam="1">  1        1 0.78571632E-01 0.12918497E+03</pdfrwt>
<pdfrwt beam="2">  1       -1 0.40086579E-02 0.12918497E+03</pdfrwt>
<totfact> 0.10208486E+04</totfact>
</mgrwt>
</event>
<event>
 7    1  0.1254976E-005  0.2316284E+03  0.7546771E-02  0.1125499E+00
          1   -1    0    0  501    0  0.00000000000E+00  0.00000000000E+00  0.19841792807E+03  0.19841792807E+03  0.00000000000E+00 0. -1.
         -1   -1    0    0    0  501 -0.00000000000E+00 -0.00000000000E+00 -0.67599363447E+02  0.67599363447E+02  0.00000000000E+00 0.  1.
         23    2    1    2    0    0  0.48589330239E+01  0.17488668108E+02  0.99119095009E+02  0.13577744827E+03  0.91002514913E+02 0.  0.
          5    1    1    2  502    0 -0.27129130289E+02 -0.45978858387E+02 -0.27861916382E+02  0.60402164807E+02  0.47000000000E+01 0. -1.
         -5    1    1    2    0  502  0.22270197265E+02  0.28490190280E+02  0.59561385997E+02  0.69837678443E+02  0.47000000000E+01 0. -1.
        -11    1    3    3    0    0 -0.15843761822E+02  0.45242471824E+02  0.25213333812E+02  0.54162886254E+02  0.00000000000E+00 0. -1.
         11    1    3    3    0    0  0.20702694846E+02 -0.27753803717E+02  0.73905761197E+02  0.81614562014E+02  0.00000000000E+00 0.  1.
<mgrwt>
<rscale>  0 0.23162837E+03</rscale>
<asrwt>0</asrwt>
<pdfrwt beam="1">  1        1 0.30525835E-01 0.23162837E+03</pdfrwt>
<pdfrwt beam="2">  1       -1 0.10399902E-01 0.23162837E+03</pdfrwt>
<totfact> 0.83333800E+03</totfact>
</mgrwt>
</event>
<event>
 7    1  0.1254976E-005  0.1303897E+03  0.7546771E-02  0.1240866E+00
         -1   -1    0    0    0  501 -0.00000000000E+00  0.00000000000E+00  0.22296321871E+03  0.22296321871E+03  0.00000000000E+00 0.  1.
          1   -1    0    0  501    0  0.00000000000E+00 -0.00000000000E+00 -0.61509726743E+02  0.61509726743E+02  0.00000000000E+00 0. -1.
         23    2    1    2    0    0 -0.23914881849E+01 -0.37004520165E+02  0.38211031938E+02  0.10505675418E+03  0.90563706355E+02 0.  0.
          5    1    1    2  502    0  0.50632514841E+02  0.45508763220E+02  0.31179032025E+02  0.75026136292E+02  0.47000000000E+01 0. -1.
         -5    1    1    2    0  502 -0.48241026656E+02 -0.85042430550E+01  0.92063428001E+02  0.10439005498E+03  0.47000000000E+01 0. -1.
        -11    1    3    3    0    0  0.40692491466E+02 -0.13145167041E+02  0.35763264109E+02  0.55746617278E+02  0.00000000000E+00 0. -1.
         11    1    3    3    0    0 -0.43083979651E+02 -0.23859353124E+02  0.24477678296E+01  0.49310136903E+02  0.00000000000E+00 0.  1.
<mgrwt>
<rscale>  0 0.12136268E+03</rscale>
<asrwt>0</asrwt>
<pdfrwt beam="2">  1        1 0.94630349E-02 0.13038967E+03</pdfrwt>
<pdfrwt beam="1">  1       -1 0.34302033E-01 0.13038967E+03</pdfrwt>
<totfact> 0.53215179E+03</totfact>
</mgrwt>
</event>
<event>
 7    1  0.1254976E-005  0.1549279E+03  0.7546771E-02  0.1202960E+00
         -2   -1    0    0    0  501 -0.00000000000E+00  0.00000000000E+00  0.43486950945E+03  0.43486950945E+03  0.00000000000E+00 0.  1.
          2   -1    0    0  501    0  0.00000000000E+00 -0.00000000000E+00 -0.57550160310E+02  0.57550160310E+02  0.00000000000E+00 0. -1.
         23    2    1    2    0    0 -0.38871366534E+02 -0.83116233704E+02  0.66507696090E+02  0.14513512769E+03  0.90673260723E+02 0.  0.
          5    1    1    2  502    0  0.74031632539E+02  0.27047745931E+02  0.22731111693E+03  0.24063394826E+03  0.47000000000E+01 0.  1.
         -5    1    1    2    0  502 -0.35160266005E+02  0.56068487772E+02  0.83500536126E+02  0.10665059381E+03  0.47000000000E+01 0.  1.
        -11    1    3    3    0    0 -0.15942435018E+02 -0.97244073257E+02  0.65224122722E+02  0.11817257382E+03  0.00000000000E+00 0.  1.
         11    1    3    3    0    0 -0.22928931516E+02  0.14127839553E+02  0.12835733684E+01  0.26962553876E+02  0.00000000000E+00 0. -1.
<mgrwt>
<rscale>  0 0.14799414E+03</rscale>
<asrwt>0</asrwt>
<pdfrwt beam="2">  1        2 0.88538711E-02 0.15492795E+03</pdfrwt>
<pdfrwt beam="1">  1       -2 0.66902999E-01 0.15492795E+03</pdfrwt>
<totfact> 0.15316789E+03</totfact>
</mgrwt>
</event>
<event>
 7    1  0.1254976E-005  0.1574478E+03  0.7546771E-02  0.1198103E+00
         -1   -1    0    0    0  501 -0.00000000000E+00  0.00000000000E+00  0.23912240083E+02  0.23912240083E+02  0.00000000000E+00 0.  1.
          1   -1    0    0  501    0  0.00000000000E+00 -0.00000000000E+00 -0.95231942983E+03  0.95231942983E+03  0.00000000000E+00 0. -1.
         23    2    1    2    0    0  0.83909859622E+02 -0.52176415643E+02 -0.54288427973E+03  0.55979711628E+03  0.94266788011E+02 0.  0.
          5    1    1    2  502    0 -0.65649757878E+01 -0.35234848403E+02 -0.54431820910E+02  0.65341461391E+02  0.47000000000E+01 0. -1.
         -5    1    1    2    0  502 -0.77344883834E+02  0.87411264046E+02 -0.33109108911E+03  0.35109309225E+03  0.47000000000E+01 0.  1.
        -11    1    3    3    0    0  0.61911154254E+02 -0.69340067440E+02 -0.50045821982E+03  0.50901813893E+03  0.00000000000E+00 0. -1.
         11    1    3    3    0    0  0.21998705368E+02  0.17163651797E+02 -0.42426059908E+02  0.50778977345E+02  0.00000000000E+00 0.  1.
<mgrwt>
<rscale>  0 0.15194480E+03</rscale>
<asrwt>0</asrwt>
<pdfrwt beam="2">  1        1 0.14651066E+00 0.15744784E+03</pdfrwt>
<pdfrwt beam="1">  1       -1 0.36788066E-02 0.15744784E+03</pdfrwt>
<totfact> 0.47545256E+03</totfact>
</mgrwt>
</event>
<event>
 7    1  0.1254976E-005  0.1883344E+03  0.7546771E-02  0.1165040E+00
          2   -1    0    0  501    0  0.00000000000E+00  0.00000000000E+00  0.67985128352E+03  0.67985128352E+03  0.00000000000E+00 0. -1.
         -2   -1    0    0    0  501 -0.00000000000E+00 -0.00000000000E+00 -0.81748506093E+02  0.81748506093E+02  0.00000000000E+00 0.  1.
         23    2    1    2    0    0  0.11017320235E+03  0.87790505818E+02  0.53868467850E+03  0.56411467916E+03  0.90547672360E+02 0.  0.
          5    1    1    2  502    0 -0.92272064194E+02 -0.57904515559E+02  0.97061930488E+02  0.14598005036E+03  0.47000000000E+01 0.  1.
         -5    1    1    2    0  502 -0.17901138151E+02 -0.29885990259E+02 -0.37643831559E+02  0.51505060094E+02  0.47000000000E+01 0.  1.
        -11    1    3    3    0    0  0.65330070557E+02  0.35182586821E+02  0.13051889544E+03  0.15013665309E+03  0.00000000000E+00 0.  1.
         11    1    3    3    0    0  0.44843131789E+02  0.52607918997E+02  0.40816578306E+03  0.41397802607E+03  0.00000000000E+00 0. -1.
<mgrwt>
<rscale>  0 0.18288482E+03</rscale>
<asrwt>0</asrwt>
<pdfrwt beam="1">  1        2 0.10459250E+00 0.18833443E+03</pdfrwt>
<pdfrwt beam="2">  1       -2 0.12576694E-01 0.18833443E+03</pdfrwt>
<totfact> 0.19764288E+03</totfact>
</mgrwt>
</event>
<event>
 7    1  0.1254976E-005  0.1312272E+03  0.7546771E-02  0.1240898E+00
         -1   -1    0    0    0  501 -0.00000000000E+00  0.00000000000E+00  0.17398293903E+03  0.17398293903E+03  0.00000000000E+00 0.  1.
          1   -1    0    0  501    0  0.00000000000E+00 -0.00000000000E+00 -0.83317141236E+02  0.83317141236E+02  0.00000000000E+00 0. -1.
         23    2    1    2    0    0 -0.29619430402E+02 -0.26806632997E+02 -0.31470613352E+01  0.95988468407E+02  0.87223711467E+02 0.  0.
          5    1    1    2  502    0 -0.33539243162E+02 -0.30414561925E+02  0.38342325827E+02  0.59515967259E+02  0.47000000000E+01 0. -1.
         -5    1    1    2    0  502  0.63158673565E+02  0.57221194922E+02  0.55470533305E+02  0.10179564460E+03  0.47000000000E+01 0. -1.
        -11    1    3    3    0    0  0.15984693721E+02  0.11723460684E+02 -0.25447942101E+02  0.32257521928E+02  0.00000000000E+00 0. -1.
         11    1    3    3    0    0 -0.45604124123E+02 -0.38530093682E+02  0.22300880766E+02  0.63730946479E+02  0.00000000000E+00 0.  1.
<mgrwt>
<rscale>  0 0.12134289E+03</rscale>
<asrwt>0</asrwt>
<pdfrwt beam="2">  1        1 0.12818022E-01 0.13122722E+03</pdfrwt>
<pdfrwt beam="1">  1       -1 0.26766606E-01 0.13122722E+03</pdfrwt>
<totfact> 0.54165003E+03</totfact>
</mgrwt>
</event>
<event>
 7    1  0.1254976E-005  0.2047456E+03  0.7546771E-02  0.1149558E+00
          1   -1    0    0  501    0  0.00000000000E+00  0.00000000000E+00  0.68275158287E+03  0.68275158287E+03  0.00000000000E+00 0. -1.
         -1   -1    0    0    0  501 -0.00000000000E+00 -0.00000000000E+00 -0.56410420769E+02  0.56410420769E+02  0.00000000000E+00 0.  1.
         23    2    1    2    0    0  0.89070853959E+02  0.13846728947E+03  0.31855543740E+03  0.36949621241E+03  0.89123941837E+02 0.  0.
          5    1    1    2  502    0  0.92139202631E+01  0.13397870924E+02  0.63137908910E+02  0.65367306916E+02  0.47000000000E+01 0. -1.
         -5    1    1    2    0  502 -0.98284774222E+02 -0.15186516039E+03  0.24464781579E+03  0.30429848431E+03  0.47000000000E+01 0.  1.
        -11    1    3    3    0    0  0.16861151276E+02 -0.94035482303E+01  0.15960388451E+02  0.25049134539E+02  0.00000000000E+00 0. -1.
         11    1    3    3    0    0  0.72209702683E+02  0.14787083770E+03  0.30259504895E+03  0.34444707787E+03  0.00000000000E+00 0.  1.
<mgrwt>
<rscale>  0 0.20021504E+03</rscale>
<asrwt>0</asrwt>
<pdfrwt beam="1">  1        1 0.10503870E+00 0.20474556E+03</pdfrwt>
<pdfrwt beam="2">  1       -1 0.86785267E-02 0.20474556E+03</pdfrwt>
<totfact> 0.22061675E+03</totfact>
</mgrwt>
</event>
<event>
 7    1  0.1254976E-005  0.1340586E+03  0.7546771E-02  0.1234146E+00
          1   -1    0    0  501    0  0.00000000000E+00  0.00000000000E+00  0.16309625654E+03  0.16309625654E+03  0.00000000000E+00 0. -1.
         -1   -1    0    0    0  501 -0.00000000000E+00 -0.00000000000E+00 -0.13338723074E+03  0.13338723074E+03  0.00000000000E+00 0.  1.
         23    2    1    2    0    0  0.17643736774E+02 -0.45205229525E+02  0.10116994552E+03  0.14456784842E+03  0.91157504883E+02 0.  0.
          5    1    1    2  502    0 -0.67053619206E+02  0.41315225522E+01 -0.50470092146E+02  0.84158050883E+02  0.47000000000E+01 0. -1.
         -5    1    1    2    0  502  0.49409882432E+02  0.41073706973E+02 -0.20990827566E+02  0.67757587976E+02  0.47000000000E+01 0. -1.
        -11    1    3    3    0    0 -0.29477919018E+02 -0.47582291246E+02  0.58271591638E+02  0.80799755828E+02  0.00000000000E+00 0. -1.
         11    1    3    3    0    0  0.47121655792E+02  0.23770617203E+01  0.42898353879E+02  0.63768092589E+02  0.00000000000E+00 0.  1.
<mgrwt>
<rscale>  0 0.12559244E+03</rscale>
<asrwt>0</asrwt>
<pdfrwt beam="1">  1        1 0.25091732E-01 0.13405856E+03</pdfrwt>
<pdfrwt beam="2">  1       -1 0.20521112E-01 0.13405856E+03</pdfrwt>
<totfact> 0.35420801E+03</totfact>
</mgrwt>
</event>
<event>
 7    1  0.1254976E-005  0.1415802E+03  0.7546771E-02  0.1222437E+00
         -3   -1    0    0    0  501 -0.00000000000E+00  0.00000000000E+00  0.16973754951E+02  0.16973754951E+02  0.00000000000E+00 0.  1.
          3   -1    0    0  501    0  0.00000000000E+00 -0.00000000000E+00 -0.99001487944E+03  0.99001487944E+03  0.00000000000E+00 0. -1.
         23    2    1    2    0    0  0.61303101672E+02 -0.25789658026E+02 -0.53837730478E+03  0.54984795558E+03  0.89774580014E+02 0.  0.
          5    1    1    2  502    0 -0.87834064095E+02  0.29984867191E+02 -0.40991067660E+03  0.42031270248E+03  0.47000000000E+01 0.  1.
         -5    1    1    2    0  502  0.26530962423E+02 -0.41952091646E+01 -0.24753143111E+02  0.36827976334E+02  0.47000000000E+01 0.  1.
        -11    1    3    3    0    0  0.72761939779E+02  0.92104265456E+01 -0.39914095028E+03  0.40582339759E+03  0.00000000000E+00 0.  1.
         11    1    3    3    0    0 -0.11458838106E+02 -0.35000084572E+02 -0.13923635450E+03  0.14402455799E+03  0.00000000000E+00 0. -1.
<mgrwt>
<rscale>  0 0.13344132E+03</rscale>
<asrwt>0</asrwt>
<pdfrwt beam="2">  1        3 0.15230997E+00 0.14158024E+03</pdfrwt>
<pdfrwt beam="1">  1       -3 0.26113471E-02 0.14158024E+03</pdfrwt>
<totfact> 0.48941111E+02</totfact>
</mgrwt>
</event>
<event>
 7    1  0.1254976E-005  0.1597306E+03  0.7546771E-02  0.1196299E+00
          2   -1    0    0  501    0  0.00000000000E+00  0.00000000000E+00  0.40258758742E+03  0.40258758742E+03  0.00000000000E+00 0. -1.
         -2   -1    0    0    0  501 -0.00000000000E+00 -0.00000000000E+00 -0.56151907772E+02  0.56151907772E+02  0.00000000000E+00 0.  1.
         23    2    1    2    0    0  0.49329594653E+02  0.86349665137E+02  0.20103891259E+03  0.24274395423E+03  0.92834849929E+02 0.  0.
          5    1    1    2  502    0 -0.70911861925E+01  0.32008497215E+02  0.21677215142E+02  0.39583083153E+02  0.47000000000E+01 0.  1.
         -5    1    1    2    0  502 -0.42238408460E+02 -0.11835816235E+03  0.12371955191E+03  0.17641245781E+03  0.47000000000E+01 0.  1.
        -11    1    3    3    0    0  0.65972685043E+02  0.96070814211E+02  0.17717905670E+03  0.21207172053E+03  0.00000000000E+00 0.  1.
         11    1    3    3    0    0 -0.16643090390E+02 -0.97211490742E+01  0.23859855894E+02  0.30672233703E+02  0.00000000000E+00 0. -1.
<mgrwt>
<rscale>  0 0.15344789E+03</rscale>
<asrwt>0</asrwt>
<pdfrwt beam="1">  1        2 0.61936550E-01 0.15973057E+03</pdfrwt>
<pdfrwt beam="2">  1       -2 0.86387553E-02 0.15973057E+03</pdfrwt>
<totfact> 0.64172360E+03</totfact>
</mgrwt>
</event>
<event>
 7    1  0.1254976E-005  0.1356467E+03  0.7546771E-02  0.1231283E+00
          1   -1    0    0  501    0  0.00000000000E+00  0.00000000000E+00  0.55730285576E+02  0.55730285576E+02  0.00000000000E+00 0.  1.
         -1   -1    0    0    0  501 -0.00000000000E+00 -0.00000000000E+00 -0.35980844624E+03  0.35980844624E+03  0.00000000000E+00 0. -1.
         23    2    1    2    0    0 -0.73905601350E+01 -0.52146032590E+02 -0.30274421015E+02  0.10997613003E+03  0.91675402994E+02 0.  0.
          5    1    1    2  502    0  0.26427873104E+02 -0.35039616015E+02 -0.66474700210E+02  0.79794629739E+02  0.47000000000E+01 0.  1.
         -5    1    1    2    0  502 -0.19037312969E+02  0.87185648605E+02 -0.20732903944E+03  0.22576797204E+03  0.47000000000E+01 0.  1.
        -11    1    3    3    0    0  0.30184957740E+02 -0.51085596387E+02 -0.39485034415E+02  0.71273682202E+02  0.00000000000E+00 0. -1.
         11    1    3    3    0    0 -0.37575517875E+02 -0.10604362035E+01  0.92106133995E+01  0.38702447826E+02  0.00000000000E+00 0.  1.
<mgrwt>
<rscale>  0 0.12745396E+03</rscale>
<asrwt>0</asrwt>
<pdfrwt beam="1">  1        1 0.85738903E-02 0.13564666E+03</pdfrwt>
<pdfrwt beam="2">  1       -1 0.55355144E-01 0.13564666E+03</pdfrwt>
<totfact> 0.25943905E+03</totfact>
</mgrwt>
</event>
<event>
 7    1  0.1254976E-005  0.1332318E+03  0.7546771E-02  0.1234610E+00
          2   -1    0    0  501    0  0.00000000000E+00  0.00000000000E+00  0.51218288601E+03  0.51218288601E+03  0.00000000000E+00 0. -1.
         -2   -1    0    0    0  501 -0.00000000000E+00 -0.00000000000E+00 -0.30091791170E+02  0.30091791170E+02  0.00000000000E+00 0.  1.
         23    2    1    2    0    0  0.14045979590E+02  0.43908360457E+02  0.29284598557E+03  0.31083480791E+03  0.93457331887E+02 0.  0.
          5    1    1    2  502    0  0.11878548195E+02 -0.75327904087E+02  0.16951071972E+03  0.18593377085E+03  0.47000000000E+01 0.  1.
         -5    1    1    2    0  502 -0.25924527784E+02  0.31419543630E+02  0.19734389548E+02  0.45506098422E+02  0.47000000000E+01 0.  1.
        -11    1    3    3    0    0 -0.34649686947E+02  0.17466931949E+02  0.19089163485E+03  0.19479556148E+03  0.00000000000E+00 0.  1.
         11    1    3    3    0    0  0.48695666536E+02  0.26441428508E+02  0.10195435072E+03  0.11603924643E+03  0.00000000000E+00 0. -1.
<mgrwt>
<rscale>  0 0.12529452E+03</rscale>
<asrwt>0</asrwt>
<pdfrwt beam="1">  1        2 0.78797360E-01 0.13323176E+03</pdfrwt>
<pdfrwt beam="2">  1       -2 0.46295067E-02 0.13323176E+03</pdfrwt>
<totfact> 0.12636110E+04</totfact>
</mgrwt>
</event>
<event>
 7    1  0.1254976E-005  0.2060252E+03  0.7546771E-02  0.1177972E+00
         -2   -1    0    0    0  501 -0.00000000000E+00  0.00000000000E+00  0.45976005028E+02  0.45976005028E+02  0.00000000000E+00 0.  1.
          2   -1    0    0  501    0  0.00000000000E+00 -0.00000000000E+00 -0.54446697862E+03  0.54446697862E+03  0.00000000000E+00 0. -1.
         23    2    1    2    0    0  0.77607035842E+01 -0.26063532633E+02 -0.25075688960E+03  0.26823408057E+03  0.91274136788E+02 0.  0.
          5    1    1    2  502    0  0.60484753626E+02  0.66405342093E+02 -0.22068742766E+03  0.23831304120E+03  0.47000000000E+01 0. -1.
         -5    1    1    2    0  502 -0.68245457210E+02 -0.40341809460E+02 -0.27046656330E+02  0.83895861870E+02  0.47000000000E+01 0.  1.
        -11    1    3    3    0    0  0.58911848412E+00 -0.59304790156E+02 -0.13214621373E+03  0.14484483767E+03  0.00000000000E+00 0. -1.
         11    1    3    3    0    0  0.71715851000E+01  0.33241257523E+02 -0.11861067586E+03  0.12338924290E+03  0.00000000000E+00 0.  1.
<mgrwt>
<rscale>  0 0.16988078E+03</rscale>
<asrwt>0</asrwt>
<pdfrwt beam="2">  1        2 0.83764148E-01 0.20602524E+03</pdfrwt>
<pdfrwt beam="1">  1       -2 0.70732318E-02 0.20602524E+03</pdfrwt>
<totfact> 0.63624885E+03</totfact>
</mgrwt>
</event>
<event>
 7    1  0.1254976E-005  0.1407787E+03  0.7546771E-02  0.1223451E+00
         -2   -1    0    0    0  501 -0.00000000000E+00  0.00000000000E+00  0.23327288704E+02  0.23327288704E+02  0.00000000000E+00 0.  1.
          2   -1    0    0  501    0  0.00000000000E+00 -0.00000000000E+00 -0.75477854050E+03  0.75477854050E+03  0.00000000000E+00 0. -1.
         23    2    1    2    0    0 -0.21102993903E+02  0.61647767296E+02 -0.44814117662E+03  0.46174647225E+03  0.90185957252E+02 0.  0.
          5    1    1    2  502    0  0.44958004900E+01 -0.93645007226E+02 -0.14034604484E+03  0.16884520100E+03  0.47000000000E+01 0.  1.
         -5    1    1    2    0  502  0.16607193413E+02  0.31997239930E+02 -0.14296403034E+03  0.14751415596E+03  0.47000000000E+01 0.  1.
        -11    1    3    3    0    0 -0.42316035973E+02 -0.10804326831E+01 -0.12763170585E+03  0.13446808756E+03  0.00000000000E+00 0.  1.
         11    1    3    3    0    0  0.21213042069E+02  0.62728199979E+02 -0.32050947077E+03  0.32727838468E+03  0.00000000000E+00 0. -1.
<mgrwt>
<rscale>  0 0.13273630E+03</rscale>
<asrwt>0</asrwt>
<pdfrwt beam="2">  1        2 0.11611977E+00 0.14077871E+03</pdfrwt>
<pdfrwt beam="1">  1       -2 0.35888139E-02 0.14077871E+03</pdfrwt>
<totfact> 0.11850768E+04</totfact>
</mgrwt>
</event>
<event>
 7    1  0.1254976E-005  0.1317936E+03  0.7546771E-02  0.1236374E+00
          3   -1    0    0  501    0  0.00000000000E+00  0.00000000000E+00  0.59515165365E+03  0.59515165365E+03  0.00000000000E+00 0. -1.
         -3   -1    0    0    0  501 -0.00000000000E+00 -0.00000000000E+00 -0.23655693185E+02  0.23655693185E+02  0.00000000000E+00 0.  1.
         23    2    1    2    0    0 -0.37633077161E+02 -0.18149712585E+02  0.28874706707E+03  0.30685144929E+03  0.95064623451E+02 0.  0.
          5    1    1    2  502    0  0.48061148671E+02 -0.29231587258E+02  0.24178179861E+03  0.24828388559E+03  0.47000000000E+01 0.  1.
         -5    1    1    2    0  502 -0.10428071510E+02  0.47381299843E+02  0.40967094794E+02  0.63672011953E+02  0.47000000000E+01 0.  1.
        -11    1    3    3    0    0 -0.42491143486E+02 -0.29077513822E+02  0.29026531756E+03  0.29479646141E+03  0.00000000000E+00 0. -1.
         11    1    3    3    0    0  0.48580663247E+01  0.10927801237E+02 -0.15182504914E+01  0.12054987882E+02  0.00000000000E+00 0.  1.
<mgrwt>
<rscale>  0 0.12416890E+03</rscale>
<asrwt>0</asrwt>
<pdfrwt beam="1">  1        3 0.91561782E-01 0.13179357E+03</pdfrwt>
<pdfrwt beam="2">  1       -3 0.36393379E-02 0.13179357E+03</pdfrwt>
<totfact> 0.95861246E+02</totfact>
</mgrwt>
</event>
<event>
 7    1  0.1254976E-005  0.1667781E+03  0.7546771E-02  0.1187020E+00
          2   -1    0    0  501    0  0.00000000000E+00  0.00000000000E+00  0.11426906432E+04  0.11426906432E+04  0.00000000000E+00 0. -1.
         -2   -1    0    0    0  501 -0.00000000000E+00 -0.00000000000E+00 -0.22293030582E+02  0.22293030582E+02  0.00000000000E+00 0.  1.
         23    2    1    2    0    0 -0.10832714763E+03  0.21394515227E+02  0.63585942962E+03  0.65254618532E+03  0.96471827706E+02 0.  0.
          5    1    1    2  502    0  0.87386070692E+02 -0.57835242398E+02  0.43420386706E+03  0.44669489451E+03  0.47000000000E+01 0. -1.
         -5    1    1    2    0  502  0.20941076936E+02  0.36440727171E+02  0.50334315987E+02  0.65742594000E+02  0.47000000000E+01 0. -1.
        -11    1    3    3    0    0 -0.57932828848E+02 -0.33349068176E+02  0.21473461178E+03  0.22489848044E+03  0.00000000000E+00 0.  1.
         11    1    3    3    0    0 -0.50394318780E+02  0.54743583402E+02  0.42112481784E+03  0.42764770488E+03  0.00000000000E+00 0. -1.
<mgrwt>
<rscale>  0 0.16149434E+03</rscale>
<asrwt>0</asrwt>
<pdfrwt beam="1">  1        2 0.17579852E+00 0.16677808E+03</pdfrwt>
<pdfrwt beam="2">  1       -2 0.34296979E-02 0.16677808E+03</pdfrwt>
<totfact> 0.73328315E+03</totfact>
</mgrwt>
</event>
<event>
 7    1  0.1254976E-005  0.1306649E+03  0.7546771E-02  0.1234635E+00
         -2   -1    0    0    0  501 -0.00000000000E+00  0.00000000000E+00  0.13356510782E+02  0.13356510782E+02  0.00000000000E+00 0.  1.
          2   -1    0    0  501    0  0.00000000000E+00 -0.00000000000E+00 -0.10891020144E+04  0.10891020144E+04  0.00000000000E+00 0. -1.
         23    2    1    2    0    0 -0.73441257490E+01  0.61576325218E+02 -0.51133506869E+03  0.52312057102E+03  0.91356441150E+02 0.  0.
          5    1    1    2  502    0  0.91493786130E+00 -0.88408194279E+02 -0.51496310026E+03  0.52251883273E+03  0.47000000000E+01 0. -1.
         -5    1    1    2    0  502  0.64291878877E+01  0.26831869061E+02 -0.49447334620E+02  0.56819121387E+02  0.47000000000E+01 0.  1.
        -11    1    3    3    0    0 -0.28112845287E+02  0.78468275137E+02 -0.40266961085E+03  0.41120605270E+03  0.00000000000E+00 0.  1.
         11    1    3    3    0    0  0.20768719538E+02 -0.16891949918E+02 -0.10866545784E+03  0.11191451832E+03  0.00000000000E+00 0. -1.
<mgrwt>
<rscale>  0 0.12527857E+03</rscale>
<asrwt>0</asrwt>
<pdfrwt beam="2">  1        2 0.16755425E+00 0.13066494E+03</pdfrwt>
<pdfrwt beam="1">  1       -2 0.20548466E-02 0.13066494E+03</pdfrwt>
<totfact> 0.16471261E+04</totfact>
</mgrwt>
</event>
<event>
 7    1  0.1254976E-005  0.1658576E+03  0.7546771E-02  0.1189393E+00
          1   -1    0    0  501    0  0.00000000000E+00  0.00000000000E+00  0.36190289835E+03  0.36190289835E+03  0.00000000000E+00 0. -1.
         -1   -1    0    0    0  501 -0.00000000000E+00 -0.00000000000E+00 -0.65871955917E+02  0.65871955917E+02  0.00000000000E+00 0.  1.
         23    2    1    2    0    0 -0.85338072252E+02 -0.67829220314E+02  0.15735009182E+03  0.21157790808E+03  0.90126411709E+02 0.  0.
          5    1    1    2  502    0  0.20312984426E+02 -0.20969046251E+02  0.91853775020E+02  0.96496239421E+02  0.47000000000E+01 0. -1.
         -5    1    1    2    0  502  0.65025087826E+02  0.88798266565E+02  0.46827075591E+02  0.11970070677E+03  0.47000000000E+01 0. -1.
        -11    1    3    3    0    0 -0.46392253942E+02  0.83769919161E+01  0.23419994876E+02  0.52639446990E+02  0.00000000000E+00 0.  1.
         11    1    3    3    0    0 -0.38945818310E+02 -0.76206212230E+02  0.13393009694E+03  0.15893846109E+03  0.00000000000E+00 0. -1.
<mgrwt>
<rscale>  0 0.15938483E+03</rscale>
<asrwt>0</asrwt>
<pdfrwt beam="1">  1        1 0.55677368E-01 0.16585759E+03</pdfrwt>
<pdfrwt beam="2">  1       -1 0.10134147E-01 0.16585759E+03</pdfrwt>
<totfact> 0.40106768E+03</totfact>
</mgrwt>
</event>
<event>
 7    1  0.1254976E-005  0.1331145E+03  0.7546771E-02  0.1235221E+00
         -2   -1    0    0    0  501 -0.00000000000E+00  0.00000000000E+00  0.21216844941E+02  0.21216844941E+02  0.00000000000E+00 0. -1.
          2   -1    0    0  501    0  0.00000000000E+00 -0.00000000000E+00 -0.69149376568E+03  0.69149376568E+03  0.00000000000E+00 0.  1.
         23    2    1    2    0    0 -0.44101112785E+02 -0.11845891876E+02 -0.37265693539E+03  0.38667819480E+03  0.92528922666E+02 0.  0.
          5    1    1    2  502    0  0.39995506486E+02  0.23354952628E+02 -0.30662727091E+03  0.31014104472E+03  0.47000000000E+01 0.  1.
         -5    1    1    2    0  502  0.41056062983E+01 -0.11509060752E+02  0.90072855665E+01  0.15891371110E+02  0.47000000000E+01 0.  1.
        -11    1    3    3    0    0  0.34962841624E+01 -0.42211815162E+02 -0.21707758309E+03  0.22117128752E+03  0.00000000000E+00 0.  1.
         11    1    3    3    0    0 -0.47597396947E+02  0.30365923286E+02 -0.15557935230E+03  0.16550690728E+03  0.00000000000E+00 0. -1.
<mgrwt>
<rscale>  0 0.12490266E+03</rscale>
<asrwt>0</asrwt>
<pdfrwt beam="2">  1        2 0.10638363E+00 0.13311454E+03</pdfrwt>
<pdfrwt beam="1">  1       -2 0.32641307E-02 0.13311454E+03</pdfrwt>
<totfact> 0.15084634E+04</totfact>
</mgrwt>
</event>
<event>
 7    1  0.1254976E-005  0.1364593E+03  0.7546771E-02  0.1229970E+00
          2   -1    0    0  501    0  0.00000000000E+00  0.00000000000E+00  0.87318176769E+02  0.87318176769E+02  0.00000000000E+00 0. -1.
         -2   -1    0    0    0  501 -0.00000000000E+00 -0.00000000000E+00 -0.17017898633E+03  0.17017898633E+03  0.00000000000E+00 0.  1.
         23    2    1    2    0    0 -0.18304624675E+02  0.51578035571E+02 -0.27131532585E+02  0.11009668315E+03  0.91595887153E+02 0.  0.
          5    1    1    2  502    0  0.59610401436E+02 -0.62262024562E+02 -0.13845817802E+02  0.87428578465E+02  0.47000000000E+01 0. -1.
         -5    1    1    2    0  502 -0.41305776761E+02  0.10683988991E+02 -0.41883459173E+02  0.59971901478E+02  0.47000000000E+01 0. -1.
        -11    1    3    3    0    0 -0.13394664922E+02  0.12333777015E+02  0.33253617005E+02  0.37912295469E+02  0.00000000000E+00 0. -1.
         11    1    3    3    0    0 -0.49099597527E+01  0.39244258556E+02 -0.60385149590E+02  0.72184387684E+02  0.00000000000E+00 0.  1.
<mgrwt>
<rscale>  0 0.12832014E+03</rscale>
<asrwt>0</asrwt>
<pdfrwt beam="1">  1        2 0.13433566E-01 0.13645933E+03</pdfrwt>
<pdfrwt beam="2">  1       -2 0.26181382E-01 0.13645933E+03</pdfrwt>
<totfact> 0.55390549E+03</totfact>
</mgrwt>
</event>
<event>
 7    1  0.1254976E-005  0.1457501E+03  0.7546771E-02  0.1214068E+00
         -1   -1    0    0    0  501 -0.00000000000E+00  0.00000000000E+00  0.15934867965E+03  0.15934867965E+03  0.00000000000E+00 0.  1.
          1   -1    0    0  501    0  0.00000000000E+00 -0.00000000000E+00 -0.18632714589E+03  0.18632714589E+03  0.00000000000E+00 0. -1.
         23    2    1    2    0    0  0.71030469299E+02  0.22767871904E+02 -0.12124107688E+03  0.17210010638E+03  0.96723028978E+02 0.  0.
          5    1    1    2  502    0 -0.23475992379E+02 -0.39291042291E+02 -0.18814501066E+02  0.49708989860E+02  0.47000000000E+01 0. -1.
         -5    1    1    2    0  502 -0.47554476920E+02  0.16523170387E+02  0.11307711170E+03  0.12386672929E+03  0.47000000000E+01 0.  1.
        -11    1    3    3    0    0  0.23896656613E+02  0.23056543612E+02 -0.12046620902E+03  0.12495904095E+03  0.00000000000E+00 0.  1.
         11    1    3    3    0    0  0.47133812687E+02 -0.28867170829E+00 -0.77486786052E+00  0.47141065431E+02  0.00000000000E+00 0. -1.
<mgrwt>
<rscale>  0 0.13945185E+03</rscale>
<asrwt>0</asrwt>
<pdfrwt beam="2">  1        1 0.28665715E-01 0.14575010E+03</pdfrwt>
<pdfrwt beam="1">  1       -1 0.24515182E-01 0.14575010E+03</pdfrwt>
<totfact> 0.22542312E+03</totfact>
</mgrwt>
</event>
<event>
 7    1  0.1254976E-005  0.1388274E+03  0.7546771E-02  0.1227302E+00
          2   -1    0    0  501    0  0.00000000000E+00  0.00000000000E+00  0.78562485171E+02  0.78562485171E+02  0.00000000000E+00 0. -1.
         -2   -1    0    0    0  501 -0.00000000000E+00 -0.00000000000E+00 -0.19269562017E+03  0.19269562017E+03  0.00000000000E+00 0.  1.
         23    2    1    2    0    0  0.53937501563E+02  0.85760598381E+01 -0.44794507798E+02  0.11607791883E+03  0.92112607356E+02 0.  0.
          5    1    1    2  502    0 -0.50168877159E+02  0.27479778115E+02  0.18285039484E+02  0.60236924802E+02  0.47000000000E+01 0. -1.
         -5    1    1    2    0  502 -0.37686244039E+01 -0.36055837953E+02 -0.87623666687E+02  0.94943261710E+02  0.47000000000E+01 0.  1.
        -11    1    3    3    0    0  0.70472290611E+02 -0.71065031974E+01 -0.59978120267E+01  0.71083189861E+02  0.00000000000E+00 0. -1.
         11    1    3    3    0    0 -0.16534789049E+02  0.15682563035E+02 -0.38796695771E+02  0.44994728969E+02  0.00000000000E+00 0.  1.
<mgrwt>
<rscale>  0 0.13010385E+03</rscale>
<asrwt>0</asrwt>
<pdfrwt beam="1">  1        2 0.12086536E-01 0.13882739E+03</pdfrwt>
<pdfrwt beam="2">  1       -2 0.29645480E-01 0.13882739E+03</pdfrwt>
<totfact> 0.50447683E+03</totfact>
</mgrwt>
</event>
<event>
 7    1  0.1254976E-005  0.1928085E+03  0.7546771E-02  0.1160807E+00
         -1   -1    0    0    0  501 -0.00000000000E+00  0.00000000000E+00  0.47875687869E+02  0.47875687869E+02  0.00000000000E+00 0.  1.
          1   -1    0    0  501    0  0.00000000000E+00 -0.00000000000E+00 -0.69639315775E+03  0.69639315775E+03  0.00000000000E+00 0. -1.
         23    2    1    2    0    0 -0.32200677716E+02  0.14323259356E+03 -0.31904123488E+03  0.36252322361E+03  0.89907277801E+02 0.  0.
          5    1    1    2  502    0 -0.29866216676E+02 -0.42083619000E+02 -0.19755877928E+03  0.20424148246E+03  0.47000000000E+01 0. -1.
         -5    1    1    2    0  502  0.62066894392E+02 -0.10114897456E+03 -0.13191745572E+03  0.17750413955E+03  0.47000000000E+01 0. -1.
        -11    1    3    3    0    0  0.24398538438E+02  0.93347702104E+02 -0.16986320567E+03  0.19535247837E+03  0.00000000000E+00 0. -1.
         11    1    3    3    0    0 -0.56599216154E+02  0.49884891452E+02 -0.14917802922E+03  0.16717074524E+03  0.00000000000E+00 0.  1.
<mgrwt>
<rscale>  0 0.18742250E+03</rscale>
<asrwt>0</asrwt>
<pdfrwt beam="2">  1        1 0.10713741E+00 0.19280853E+03</pdfrwt>
<pdfrwt beam="1">  1       -1 0.73654904E-02 0.19280853E+03</pdfrwt>
<totfact> 0.27489906E+03</totfact>
</mgrwt>
</event>
<event>
 7    1  0.1254976E-005  0.1659975E+03  0.7546771E-02  0.1189338E+00
         -1   -1    0    0    0  501 -0.00000000000E+00  0.00000000000E+00  0.10458527301E+03  0.10458527301E+03  0.00000000000E+00 0.  1.
          1   -1    0    0  501    0  0.00000000000E+00 -0.00000000000E+00 -0.23554609481E+03  0.23554609481E+03  0.00000000000E+00 0. -1.
         23    2    1    2    0    0  0.81119075590E+02  0.73140506277E+02 -0.25710350551E+02  0.14357897755E+03  0.89577132047E+02 0.  0.
          5    1    1    2  502    0  0.23007503515E+01 -0.76719602751E+02 -0.25559556927E+02  0.81034386829E+02  0.47000000000E+01 0. -1.
         -5    1    1    2    0  502 -0.83419825941E+02  0.35790964740E+01 -0.79690914324E+02  0.11551800343E+03  0.47000000000E+01 0. -1.
        -11    1    3    3    0    0  0.45322522281E+02  0.13380005183E+02 -0.50945065860E+02  0.69487806845E+02  0.00000000000E+00 0. -1.
         11    1    3    3    0    0  0.35796553308E+02  0.59760501094E+02  0.25234715308E+02  0.74091170705E+02  0.00000000000E+00 0.  1.
<mgrwt>
<rscale>  0 0.15943354E+03</rscale>
<asrwt>0</asrwt>
<pdfrwt beam="2">  1        1 0.36237860E-01 0.16599753E+03</pdfrwt>
<pdfrwt beam="1">  1       -1 0.16090042E-01 0.16599753E+03</pdfrwt>
<totfact> 0.33350848E+03</totfact>
</mgrwt>
</event>
<event>
 7    1  0.1254976E-005  0.1385060E+03  0.7546771E-02  0.1225675E+00
          1   -1    0    0  501    0  0.00000000000E+00  0.00000000000E+00  0.66997845001E+02  0.66997845001E+02  0.00000000000E+00 0. -1.
         -1   -1    0    0    0  501 -0.00000000000E+00 -0.00000000000E+00 -0.24317043341E+03  0.24317043341E+03  0.00000000000E+00 0.  1.
         23    2    1    2    0    0 -0.50208352669E+02  0.32158359193E+02 -0.47904710134E+02  0.12139180455E+03  0.94265954703E+02 0.  0.
          5    1    1    2  502    0  0.33684895978E+02  0.20341746094E+02 -0.12751577028E+03  0.13353209548E+03  0.47000000000E+01 0. -1.
         -5    1    1    2    0  502  0.16523456690E+02 -0.52500105288E+02 -0.75210799063E+00  0.55244378381E+02  0.47000000000E+01 0. -1.
        -11    1    3    3    0    0 -0.14431926340E+02 -0.22827325447E+02 -0.48812315922E+02  0.55785387608E+02  0.00000000000E+00 0.  1.
         11    1    3    3    0    0 -0.35776426328E+02  0.54985684640E+02  0.90760578773E+00  0.65606416945E+02  0.00000000000E+00 0. -1.
<mgrwt>
<rscale>  0 0.13120754E+03</rscale>
<asrwt>0</asrwt>
<pdfrwt beam="1">  1        1 0.10307361E-01 0.13850599E+03</pdfrwt>
<pdfrwt beam="2">  1       -1 0.37410836E-01 0.13850599E+03</pdfrwt>
<totfact> 0.41078999E+03</totfact>
</mgrwt>
</event>
<event>
 7    1  0.1254976E-005  0.1355529E+03  0.7546771E-02  0.1235663E+00
          1   -1    0    0  501    0  0.00000000000E+00  0.00000000000E+00  0.12570848820E+03  0.12570848820E+03  0.00000000000E+00 0. -1.
         -1   -1    0    0    0  501 -0.00000000000E+00 -0.00000000000E+00 -0.10740525734E+03  0.10740525734E+03  0.00000000000E+00 0.  1.
         23    2    1    2    0    0 -0.52266424905E+02 -0.40589507324E+01  0.68711126941E+01  0.97079599255E+02  0.81418561449E+02 0.  0.
          5    1    1    2  502    0  0.50638350519E+02 -0.55530213071E+02  0.11914714208E+02  0.76235802099E+02  0.47000000000E+01 0.  1.
         -5    1    1    2    0  502  0.16280743861E+01  0.59589163804E+02 -0.48259603996E+00  0.59798344191E+02  0.47000000000E+01 0.  1.
        -11    1    3    3    0    0 -0.25926743040E+02 -0.12568399335E+02  0.42880156196E+02  0.51661092342E+02  0.00000000000E+00 0. -1.
         11    1    3    3    0    0 -0.26339681865E+02  0.85094486025E+01 -0.36009043502E+02  0.45418506913E+02  0.00000000000E+00 0.  1.
<mgrwt>
<rscale>  0 0.12462094E+03</rscale>
<asrwt>0</asrwt>
<pdfrwt beam="1">  1        1 0.19339767E-01 0.13555293E+03</pdfrwt>
<pdfrwt beam="2">  1       -1 0.16523886E-01 0.13555293E+03</pdfrwt>
<totfact> 0.69561320E+03</totfact>
</mgrwt>
</event>
<event>
 7    1  0.1404763E-005  0.2680348E+03  0.7546771E-02  0.1104394E+00
          2   -1    0    0  501    0  0.00000000000E+00  0.00000000000E+00  0.67625877964E+03  0.67625877964E+03  0.00000000000E+00 0. -1.
         -2   -1    0    0    0  501 -0.00000000000E+00 -0.00000000000E+00 -0.10111843255E+03  0.10111843255E+03  0.00000000000E+00 0.  1.
         23    2    1    2    0    0  0.20005765105E+03  0.12725960333E+03  0.29342548174E+03  0.38852517489E+03  0.92925926423E+02 0.  0.
          5    1    1    2  502    0 -0.47242719015E+02  0.10289159292E+02  0.12659795938E+02  0.50200614857E+02  0.47000000000E+01 0.  1.
         -5    1    1    2    0  502 -0.15281493204E+03 -0.13754876262E+03  0.26905506941E+03  0.33865142245E+03  0.47000000000E+01 0.  1.
        -11    1    3    3    0    0  0.17412330604E+03  0.10907945043E+03  0.29170846487E+03  0.35680678341E+03  0.00000000000E+00 0. -1.
         11    1    3    3    0    0  0.25934345014E+02  0.18180152901E+02  0.17170168703E+01  0.31718391475E+02  0.00000000000E+00 0.  1.
<mgrwt>
<rscale>  0 0.26462744E+03</rscale>
<asrwt>0</asrwt>
<pdfrwt beam="1">  1        2 0.10403981E+00 0.26803478E+03</pdfrwt>
<pdfrwt beam="2">  1       -2 0.15556682E-01 0.26803478E+03</pdfrwt>
<totfact> 0.14093322E+03</totfact>
</mgrwt>
</event>
<event>
 7    1  0.1254976E-005  0.1847956E+03  0.7546771E-02  0.1168462E+00
          1   -1    0    0  501    0  0.00000000000E+00  0.00000000000E+00  0.14087777736E+03  0.14087777736E+03  0.00000000000E+00 0. -1.
         -1   -1    0    0    0  501 -0.00000000000E+00 -0.00000000000E+00 -0.32597440706E+03  0.32597440706E+03  0.00000000000E+00 0.  1.
         23    2    1    2    0    0 -0.13532074484E+03  0.14543290925E+02  0.46732056000E+02  0.17038306735E+03  0.91232084748E+02 0.  0.
          5    1    1    2  502    0  0.58814876145E+02  0.28718724305E+02 -0.18600105363E+03  0.19723700650E+03  0.47000000000E+01 0.  1.
         -5    1    1    2    0  502  0.76505868694E+02 -0.43262015230E+02 -0.45827632082E+02  0.99232110572E+02  0.47000000000E+01 0.  1.
        -11    1    3    3    0    0 -0.31867243900E+02 -0.36460175090E+02  0.16292606348E+02  0.51091238222E+02  0.00000000000E+00 0. -1.
         11    1    3    3    0    0 -0.10345350094E+03  0.51003466015E+02  0.30439449652E+02  0.11929182913E+03  0.00000000000E+00 0.  1.
<mgrwt>
<rscale>  0 0.17932036E+03</rscale>
<asrwt>0</asrwt>
<pdfrwt beam="1">  1        1 0.21673504E-01 0.18479556E+03</pdfrwt>
<pdfrwt beam="2">  1       -1 0.50149909E-01 0.18479556E+03</pdfrwt>
<totfact> 0.93595398E+02</totfact>
</mgrwt>
</event>
<event>
 7    1  0.1254976E-005  0.1368060E+03  0.7546771E-02  0.1229016E+00
          2   -1    0    0  501    0  0.00000000000E+00  0.00000000000E+00  0.88647059005E+02  0.88647059005E+02  0.00000000000E+00 0.  1.
         -2   -1    0    0    0  501 -0.00000000000E+00 -0.00000000000E+00 -0.16906696937E+03  0.16906696937E+03  0.00000000000E+00 0. -1.
         23    2    1    2    0    0 -0.13849052834E+02  0.53808562304E+02 -0.33166178680E+02  0.11297700653E+03  0.92610209774E+02 0.  0.
          5    1    1    2  502    0 -0.18621814764E+02 -0.87413614363E+02 -0.26093377507E+02  0.93224815960E+02  0.47000000000E+01 0.  1.
         -5    1    1    2    0  502  0.32470867598E+02  0.33605052059E+02 -0.21160354180E+02  0.51512205888E+02  0.47000000000E+01 0.  1.
        -11    1    3    3    0    0 -0.37626287011E+02  0.51665576945E+02 -0.52138091524E+02  0.82483027969E+02  0.00000000000E+00 0. -1.
         11    1    3    3    0    0  0.23777234178E+02  0.21429853591E+01  0.18971912844E+02  0.30493978559E+02  0.00000000000E+00 0.  1.
<mgrwt>
<rscale>  0 0.12895375E+03</rscale>
<asrwt>0</asrwt>
<pdfrwt beam="1">  1        2 0.13638009E-01 0.13680603E+03</pdfrwt>
<pdfrwt beam="2">  1       -2 0.26010303E-01 0.13680603E+03</pdfrwt>
<totfact> 0.55047924E+03</totfact>
</mgrwt>
</event>
<event>
 7    1  0.1254976E-005  0.1391156E+03  0.7546771E-02  0.1225832E+00
         -1   -1    0    0    0  501 -0.00000000000E+00  0.00000000000E+00  0.25462896455E+03  0.25462896455E+03  0.00000000000E+00 0.  1.
          1   -1    0    0  501    0  0.00000000000E+00 -0.00000000000E+00 -0.94396012100E+02  0.94396012100E+02  0.00000000000E+00 0. -1.
         23    2    1    2    0    0  0.39587743058E+02  0.46476888394E+02 -0.29629565639E+02  0.11365094965E+03  0.91166532456E+02 0.  0.
          5    1    1    2  502    0 -0.39249955752E+02 -0.45155347666E+02  0.16907747784E+02  0.62350031151E+02  0.47000000000E+01 0. -1.
         -5    1    1    2    0  502 -0.33778730668E+00 -0.13215407276E+01  0.17295477030E+03  0.17302399585E+03  0.47000000000E+01 0. -1.
        -11    1    3    3    0    0  0.10304584844E+02  0.43400373483E+02 -0.57725879655E+02  0.72952409619E+02  0.00000000000E+00 0. -1.
         11    1    3    3    0    0  0.29283158214E+02  0.30765149109E+01  0.28096314016E+02  0.40698540026E+02  0.00000000000E+00 0.  1.
<mgrwt>
<rscale>  0 0.13110041E+03</rscale>
<asrwt>0</asrwt>
<pdfrwt beam="2">  1        1 0.14522463E-01 0.13911562E+03</pdfrwt>
<pdfrwt beam="1">  1       -1 0.39173687E-01 0.13911562E+03</pdfrwt>
<totfact> 0.24191566E+03</totfact>
</mgrwt>
</event>
<event>
 7    1  0.1254976E-005  0.1302818E+03  0.7546771E-02  0.1240766E+00
          2   -1    0    0  501    0  0.00000000000E+00  0.00000000000E+00  0.31716457244E+02  0.31716457244E+02  0.00000000000E+00 0. -1.
         -2   -1    0    0    0  501 -0.00000000000E+00 -0.00000000000E+00 -0.41303303812E+03  0.41303303812E+03  0.00000000000E+00 0.  1.
         23    2    1    2    0    0  0.36821120542E+02 -0.12336624268E+01 -0.17579995698E+03  0.20141754642E+03  0.91137732534E+02 0.  0.
          5    1    1    2  502    0  0.23733564849E+01  0.31258331837E+02 -0.18812191918E+03  0.19077385200E+03  0.47000000000E+01 0.  1.
         -5    1    1    2    0  502 -0.39194477027E+02 -0.30024669411E+02 -0.17394704721E+02  0.52558096950E+02  0.47000000000E+01 0.  1.
        -11    1    3    3    0    0  0.15879974524E+02  0.26828703144E+02 -0.15998962078E+03  0.16299887012E+03  0.00000000000E+00 0.  1.
         11    1    3    3    0    0  0.20941146018E+02 -0.28062365570E+02 -0.15810336200E+02  0.38418676301E+02  0.00000000000E+00 0. -1.
<mgrwt>
<rscale>  0 0.12142389E+03</rscale>
<asrwt>0</asrwt>
<pdfrwt beam="1">  1        2 0.48794552E-02 0.13028183E+03</pdfrwt>
<pdfrwt beam="2">  1       -2 0.63543541E-01 0.13028183E+03</pdfrwt>
<totfact> 0.36172654E+03</totfact>
</mgrwt>
</event>
<event>
 7    1  0.1254976E-005  0.1290937E+03  0.7546771E-02  0.1244641E+00
          2   -1    0    0  501    0  0.00000000000E+00  0.00000000000E+00  0.31490827308E+03  0.31490827308E+03  0.00000000000E+00 0. -1.
         -2   -1    0    0    0  501 -0.00000000000E+00 -0.00000000000E+00 -0.39520936625E+02  0.39520936625E+02  0.00000000000E+00 0.  1.
         23    2    1    2    0    0  0.25917951813E+02  0.19194938746E+02  0.12852850545E+03  0.15889736421E+03  0.87684717824E+02 0.  0.
          5    1    1    2  502    0 -0.43883850890E+02  0.43536324572E+02  0.87207226796E+02  0.10699716974E+03  0.47000000000E+01 0. -1.
         -5    1    1    2    0  502  0.17965899077E+02 -0.62731263318E+02  0.59651604211E+02  0.88534675761E+02  0.47000000000E+01 0. -1.
        -11    1    3    3    0    0  0.38991789134E+02 -0.84215836707E+01  0.12103198210E+03  0.12743635032E+03  0.00000000000E+00 0. -1.
         11    1    3    3    0    0 -0.13073837321E+02  0.27616522417E+02  0.74965233485E+01  0.31461013890E+02  0.00000000000E+00 0.  1.
<mgrwt>
<rscale>  0 0.11906884E+03</rscale>
<asrwt>0</asrwt>
<pdfrwt beam="1">  1        2 0.48447425E-01 0.12909371E+03</pdfrwt>
<pdfrwt beam="2">  1       -2 0.60801443E-02 0.12909371E+03</pdfrwt>
<totfact> 0.14088259E+04</totfact>
</mgrwt>
</event>
<event>
 7    1  0.1254976E-005  0.1359027E+03  0.7546771E-02  0.1231942E+00
          2   -1    0    0  501    0  0.00000000000E+00  0.00000000000E+00  0.64906675820E+03  0.64906675820E+03  0.00000000000E+00 0. -1.
         -2   -1    0    0    0  501 -0.00000000000E+00 -0.00000000000E+00 -0.22878415369E+02  0.22878415369E+02  0.00000000000E+00 0.  1.
         23    2    1    2    0    0  0.53302420816E+02 -0.17487757301E+01  0.33327226185E+03  0.34903746855E+03  0.88952502232E+02 0.  0.
          5    1    1    2  502    0 -0.10946895308E+02 -0.44270944803E+02  0.35563725293E+02  0.58022578600E+02  0.47000000000E+01 0. -1.
         -5    1    1    2    0  502 -0.42355525508E+02  0.46019720533E+02  0.25735235569E+03  0.26488512642E+03  0.47000000000E+01 0. -1.
        -11    1    3    3    0    0  0.25012690553E+01 -0.27245195761E+02  0.30488451287E+02  0.40964651846E+02  0.00000000000E+00 0.  1.
         11    1    3    3    0    0  0.50801151761E+02  0.25496420031E+02  0.30278381056E+03  0.30807281671E+03  0.00000000000E+00 0. -1.
<mgrwt>
<rscale>  0 0.12702269E+03</rscale>
<asrwt>0</asrwt>
<pdfrwt beam="1">  1        2 0.99856410E-01 0.13590274E+03</pdfrwt>
<pdfrwt beam="2">  1       -2 0.35197567E-02 0.13590274E+03</pdfrwt>
<totfact> 0.14557099E+04</totfact>
</mgrwt>
</event>
<event>
 7    1  0.1254976E-005  0.1353609E+03  0.7546771E-02  0.1233890E+00
          2   -1    0    0  501    0  0.00000000000E+00  0.00000000000E+00  0.58180394662E+03  0.58180394662E+03  0.00000000000E+00 0. -1.
         -2   -1    0    0    0  501 -0.00000000000E+00 -0.00000000000E+00 -0.27848198493E+02  0.27848198493E+02  0.00000000000E+00 0.  1.
         23    2    1    2    0    0 -0.44664667173E+02  0.26507473967E+02  0.35477616905E+03  0.36883049209E+03  0.86442021579E+02 0.  0.
          5    1    1    2  502    0  0.14252995136E+02 -0.54203775578E+01 -0.15902799347E+02  0.22528146623E+02  0.47000000000E+01 0.  1.
         -5    1    1    2    0  502  0.30411672037E+02 -0.21087096410E+02  0.21508237842E+03  0.21829350641E+03  0.47000000000E+01 0.  1.
        -11    1    3    3    0    0 -0.19648938503E+02 -0.28253659475E+02  0.73148544381E+02  0.80839715506E+02  0.00000000000E+00 0.  1.
         11    1    3    3    0    0 -0.25015728670E+02  0.54761133443E+02  0.28162762467E+03  0.28799077658E+03  0.00000000000E+00 0. -1.
<mgrwt>
<rscale>  0 0.12575750E+03</rscale>
<asrwt>0</asrwt>
<pdfrwt beam="1">  1        2 0.89508290E-01 0.13536087E+03</pdfrwt>
<pdfrwt beam="2">  1       -2 0.42843387E-02 0.13536087E+03</pdfrwt>
<totfact> 0.12320793E+04</totfact>
</mgrwt>
</event>
<event>
 7    1  0.1254976E-005  0.1327273E+03  0.7546771E-02  0.1238962E+00
          3   -1    0    0  501    0  0.00000000000E+00  0.00000000000E+00  0.17653774756E+02  0.17653774756E+02  0.00000000000E+00 0. -1.
         -3   -1    0    0    0  501 -0.00000000000E+00 -0.00000000000E+00 -0.75187047190E+03  0.75187047190E+03  0.00000000000E+00 0.  1.
         23    2    1    2    0    0 -0.34255660734E+02 -0.28554927937E+02 -0.27004338266E+03  0.28674748276E+03  0.85509392183E+02 0.  0.
          5    1    1    2  502    0  0.41985679837E+02  0.36137488731E+02 -0.46727600133E+03  0.47057163836E+03  0.47000000000E+01 0. -1.
         -5    1    1    2    0  502 -0.77300191032E+01 -0.75825607939E+01  0.31026868529E+01  0.12205125531E+02  0.47000000000E+01 0. -1.
        -11    1    3    3    0    0  0.80913880815E+00  0.27456922525E+02 -0.50664039985E+02  0.57631434545E+02  0.00000000000E+00 0.  1.
         11    1    3    3    0    0 -0.35064799542E+02 -0.56011850462E+02 -0.21937934267E+03  0.22911604822E+03  0.00000000000E+00 0. -1.
<mgrwt>
<rscale>  0 0.12254190E+03</rscale>
<asrwt>0</asrwt>
<pdfrwt beam="1">  1        3 0.27159655E-02 0.13272731E+03</pdfrwt>
<pdfrwt beam="2">  1       -3 0.11567237E+00 0.13272731E+03</pdfrwt>
<totfact> 0.88391755E+02</totfact>
</mgrwt>
</event>
<event>
 7    1  0.1254976E-005  0.1500143E+03  0.7546771E-02  0.1214730E+00
         -2   -1    0    0    0  501 -0.00000000000E+00  0.00000000000E+00  0.24735662779E+02  0.24735662779E+02  0.00000000000E+00 0.  1.
          2   -1    0    0  501    0  0.00000000000E+00 -0.00000000000E+00 -0.69345831263E+03  0.69345831263E+03  0.00000000000E+00 0. -1.
         23    2    1    2    0    0 -0.20990338364E+02 -0.76539609904E+02 -0.32163327262E+03  0.34007317702E+03  0.76830316175E+02 0.  0.
          5    1    1    2  502    0  0.12599852539E+02  0.54432168124E+02 -0.34942907639E+03  0.35389883673E+03  0.47000000000E+01 0. -1.
         -5    1    1    2    0  502  0.83904858248E+01  0.22107441780E+02  0.23396991614E+01  0.24221961658E+02  0.47000000000E+01 0.  1.
        -11    1    3    3    0    0 -0.41077297796E+02 -0.24963950718E+02 -0.91272286047E+02  0.10315606347E+03  0.00000000000E+00 0. -1.
         11    1    3    3    0    0  0.20086959432E+02 -0.51575659186E+02 -0.23036098657E+03  0.23691711355E+03  0.00000000000E+00 0.  1.
<mgrwt>
<rscale>  0 0.13896409E+03</rscale>
<asrwt>0</asrwt>
<pdfrwt beam="2">  1        2 0.10668590E+00 0.15001434E+03</pdfrwt>
<pdfrwt beam="1">  1       -2 0.38054864E-02 0.15001434E+03</pdfrwt>
<totfact> 0.12079806E+04</totfact>
</mgrwt>
</event>
<event>
 7    1  0.1254976E-005  0.1849286E+03  0.7546771E-02  0.1181108E+00
         -2   -1    0    0    0  501 -0.00000000000E+00  0.00000000000E+00  0.27123835691E+04  0.27123835691E+04  0.00000000000E+00 0.  1.
          2   -1    0    0  501    0  0.00000000000E+00 -0.00000000000E+00 -0.10556137868E+02  0.10556137868E+02  0.00000000000E+00 0. -1.
         23    2    1    2    0    0 -0.19205806860E+02 -0.79848906099E+02  0.56761798427E+03  0.58073323992E+03  0.91193251213E+02 0.  0.
          5    1    1    2  502    0  0.45137381486E+02  0.52968944465E+02  0.31596351205E+03  0.32357089367E+03  0.47000000000E+01 0. -1.
         -5    1    1    2    0  502 -0.25931574627E+02  0.26879961634E+02  0.18182459349E+04  0.18186355734E+04  0.47000000000E+01 0.  1.
        -11    1    3    3    0    0 -0.50043043374E+02 -0.24167471386E+02  0.19696462368E+03  0.20465443031E+03  0.00000000000E+00 0.  1.
         11    1    3    3    0    0  0.30837236514E+02 -0.55681434713E+02  0.37065336059E+03  0.37607880961E+03  0.00000000000E+00 0. -1.
<mgrwt>
<rscale>  0 0.16691082E+03</rscale>
<asrwt>0</asrwt>
<pdfrwt beam="2">  1        2 0.16240234E-02 0.18492859E+03</pdfrwt>
<pdfrwt beam="1">  1       -2 0.41728922E+00 0.18492859E+03</pdfrwt>
<totfact> 0.51792610E+01</totfact>
</mgrwt>
</event>
<event>
 7    1  0.1254976E-005  0.1559408E+03  0.7546771E-02  0.1202868E+00
          2   -1    0    0  501    0  0.00000000000E+00  0.00000000000E+00  0.38635158906E+03  0.38635158906E+03  0.00000000000E+00 0. -1.
         -2   -1    0    0    0  501 -0.00000000000E+00 -0.00000000000E+00 -0.53754163397E+02  0.53754163397E+02  0.00000000000E+00 0.  1.
         23    2    1    2    0    0 -0.91567276237E+02  0.17537140893E+02  0.10711115286E+03  0.16594959954E+03  0.85874053880E+02 0.  0.
          5    1    1    2  502    0  0.13046144925E+01 -0.53325619541E+02  0.48586874128E+02  0.72305587999E+02  0.47000000000E+01 0.  1.
         -5    1    1    2    0  502  0.90262661745E+02  0.35788478648E+02  0.17689939867E+03  0.20185056492E+03  0.47000000000E+01 0.  1.
        -11    1    3    3    0    0 -0.10715385290E+03  0.19075735234E+02  0.10278288976E+03  0.14970021474E+03  0.00000000000E+00 0. -1.
         11    1    3    3    0    0  0.15586576665E+02 -0.15385943405E+01  0.43282631086E+01  0.16249384795E+02  0.00000000000E+00 0.  1.
<mgrwt>
<rscale>  0 0.14806755E+03</rscale>
<asrwt>0</asrwt>
<pdfrwt beam="1">  1        2 0.59438704E-01 0.15594081E+03</pdfrwt>
<pdfrwt beam="2">  1       -2 0.82698715E-02 0.15594081E+03</pdfrwt>
<totfact> 0.71680590E+03</totfact>
</mgrwt>
</event>
<event>
 7    1  0.1254976E-005  0.1399204E+03  0.7546771E-02  0.1218493E+00
         -4   -1    0    0    0  501 -0.00000000000E+00  0.00000000000E+00  0.95839846870E+02  0.95839846870E+02  0.00000000000E+00 0.  1.
          4   -1    0    0  501    0  0.00000000000E+00 -0.00000000000E+00 -0.19502372701E+03  0.19502372701E+03  0.00000000000E+00 0. -1.
         23    2    1    2    0    0  0.79212824700E+02 -0.28223777551E+02 -0.81480642336E+02  0.14982763973E+03  0.93477127339E+02 0.  0.
          5    1    1    2  502    0 -0.18608740527E+02 -0.41223450344E+02 -0.17555212003E+02  0.48743548811E+02  0.47000000000E+01 0. -1.
         -5    1    1    2    0  502 -0.60604084172E+02  0.69447227895E+02 -0.14802580588E+00  0.92292385343E+02  0.47000000000E+01 0.  1.
        -11    1    3    3    0    0  0.53712390457E+02  0.93394453360E+00  0.60976091807E+01  0.54065460127E+02  0.00000000000E+00 0.  1.
         11    1    3    3    0    0  0.25500434243E+02 -0.29157722085E+02 -0.87578251517E+02  0.95762179604E+02  0.00000000000E+00 0. -1.
<mgrwt>
<rscale>  0 0.13623061E+03</rscale>
<asrwt>0</asrwt>
<pdfrwt beam="2">  1        4 0.30003650E-01 0.13992044E+03</pdfrwt>
<pdfrwt beam="1">  1       -4 0.14744592E-01 0.13992044E+03</pdfrwt>
<totfact> 0.68764159E+02</totfact>
</mgrwt>
</event>
<event>
 7    1  0.1254976E-005  0.1343549E+03  0.7546771E-02  0.1233587E+00
         -1   -1    0    0    0  501 -0.00000000000E+00  0.00000000000E+00  0.49693692735E+02  0.49693692735E+02  0.00000000000E+00 0.  1.
          1   -1    0    0  501    0  0.00000000000E+00 -0.00000000000E+00 -0.28585024569E+03  0.28585024569E+03  0.00000000000E+00 0. -1.
         23    2    1    2    0    0 -0.14741495273E+02  0.46999805513E+02 -0.11044010671E+03  0.15154434327E+03  0.91336615911E+02 0.  0.
          5    1    1    2  502    0 -0.11722891931E+02  0.71120690043E+01 -0.12264844668E+03  0.12350198053E+03  0.47000000000E+01 0. -1.
         -5    1    1    2    0  502  0.26464387204E+02 -0.54111874517E+02 -0.30679995595E+01  0.60497614623E+02  0.47000000000E+01 0. -1.
        -11    1    3    3    0    0 -0.24583564632E+01 -0.25242361372E+02 -0.10109335472E+02  0.27302362312E+02  0.00000000000E+00 0.  1.
         11    1    3    3    0    0 -0.12283138810E+02  0.72242166885E+02 -0.10033077124E+03  0.12424198096E+03  0.00000000000E+00 0. -1.
<mgrwt>
<rscale>  0 0.12595351E+03</rscale>
<asrwt>0</asrwt>
<pdfrwt beam="2">  1        1 0.43976961E-01 0.13435485E+03</pdfrwt>
<pdfrwt beam="1">  1       -1 0.76451835E-02 0.13435485E+03</pdfrwt>
<totfact> 0.81572772E+03</totfact>
</mgrwt>
</event>
<event>
 7    1  0.1254976E-005  0.1392188E+03  0.7546771E-02  0.1226008E+00
          2   -1    0    0  501    0  0.00000000000E+00  0.00000000000E+00  0.70968035096E+03  0.70968035096E+03  0.00000000000E+00 0. -1.
         -2   -1    0    0    0  501 -0.00000000000E+00 -0.00000000000E+00 -0.22351278132E+02  0.22351278132E+02  0.00000000000E+00 0.  1.
         23    2    1    2    0    0 -0.59284719058E+02 -0.15564727303E+02  0.24195813890E+03  0.26540849784E+03  0.90227440909E+02 0.  0.
          5    1    1    2  502    0  0.73697241978E+02  0.57006883012E+02  0.26531652459E+03  0.28124014011E+03  0.47000000000E+01 0.  1.
         -5    1    1    2    0  502 -0.14412522920E+02 -0.41442155708E+02  0.18005440933E+03  0.18538299115E+03  0.47000000000E+01 0.  1.
        -11    1    3    3    0    0 -0.25936077593E+02 -0.43372513569E+02  0.60510117002E+02  0.78837359886E+02  0.00000000000E+00 0.  1.
         11    1    3    3    0    0 -0.33348641465E+02  0.27807786266E+02  0.18144802190E+03  0.18657113795E+03  0.00000000000E+00 0. -1.
<mgrwt>
<rscale>  0 0.13098072E+03</rscale>
<asrwt>0</asrwt>
<pdfrwt beam="1">  1        2 0.10918158E+00 0.13921881E+03</pdfrwt>
<pdfrwt beam="2">  1       -2 0.34386587E-02 0.13921881E+03</pdfrwt>
<totfact> 0.13587885E+04</totfact>
</mgrwt>
</event>
<event>
 7    1  0.1883316E-005  0.1642880E+03  0.7546771E-02  0.1191513E+00
          2   -1    0    0  501    0  0.00000000000E+00  0.00000000000E+00  0.67443534872E+02  0.67443534872E+02  0.00000000000E+00 0. -1.
         -2   -1    0    0    0  501 -0.00000000000E+00 -0.00000000000E+00 -0.34126254148E+03  0.34126254148E+03  0.00000000000E+00 0.  1.
         23    2    1    2    0    0  0.50598863396E+02  0.93836761852E+02 -0.11718955317E+03  0.18171859196E+03  0.89009395231E+02 0.  0.
          5    1    1    2  502    0  0.90228163509E+01 -0.51004856700E+01  0.18519114537E+02  0.21736461814E+02  0.47000000000E+01 0.  1.
         -5    1    1    2    0  502 -0.59621679747E+02 -0.88736276182E+02 -0.17514856797E+03  0.20525102258E+03  0.47000000000E+01 0.  1.
        -11    1    3    3    0    0  0.54227805434E+02  0.13280367295E+02 -0.31715409600E+02  0.64209736363E+02  0.00000000000E+00 0.  1.
         11    1    3    3    0    0 -0.36289420383E+01  0.80556394556E+02 -0.85474143574E+02  0.11750885560E+03  0.00000000000E+00 0. -1.
<mgrwt>
<rscale>  0 0.15753096E+03</rscale>
<asrwt>0</asrwt>
<pdfrwt beam="1">  1        2 0.10375928E-01 0.16428796E+03</pdfrwt>
<pdfrwt beam="2">  1       -2 0.52501930E-01 0.16428796E+03</pdfrwt>
<totfact> 0.20769406E+03</totfact>
</mgrwt>
</event>
<event>
 7    1  0.1254976E-005  0.1378377E+03  0.7546771E-02  0.1232882E+00
          2   -1    0    0  501    0  0.00000000000E+00  0.00000000000E+00  0.28005940442E+03  0.28005940442E+03  0.00000000000E+00 0. -1.
         -2   -1    0    0    0  501 -0.00000000000E+00 -0.00000000000E+00 -0.49588864519E+02  0.49588864519E+02  0.00000000000E+00 0.  1.
         23    2    1    2    0    0 -0.12154162578E+02  0.56864085133E+02  0.86689911316E+02  0.13046973561E+03  0.78268533521E+02 0.  0.
          5    1    1    2  502    0  0.35659374572E+02 -0.69744371017E+02  0.33041741438E+02  0.85145258005E+02  0.47000000000E+01 0. -1.
         -5    1    1    2    0  502 -0.23505211994E+02  0.12880285884E+02  0.11073888715E+03  0.11403327533E+03  0.47000000000E+01 0. -1.
        -11    1    3    3    0    0  0.55130599881E+01  0.54940704881E+02  0.95743686743E+02  0.11052478652E+03  0.00000000000E+00 0. -1.
         11    1    3    3    0    0 -0.17667222566E+02  0.19233802518E+01 -0.90537754266E+01  0.19944949092E+02  0.00000000000E+00 0.  1.
<mgrwt>
<rscale>  0 0.12641033E+03</rscale>
<asrwt>0</asrwt>
<pdfrwt beam="1">  1        2 0.43086061E-01 0.13783765E+03</pdfrwt>
<pdfrwt beam="2">  1       -2 0.76290563E-02 0.13783765E+03</pdfrwt>
<totfact> 0.11338476E+04</totfact>
</mgrwt>
</event>
<event>
 7    1  0.1254976E-005  0.1326236E+03  0.7546771E-02  0.1235864E+00
         -2   -1    0    0    0  501 -0.00000000000E+00  0.00000000000E+00  0.20990827911E+02  0.20990827911E+02  0.00000000000E+00 0.  1.
          2   -1    0    0  501    0  0.00000000000E+00 -0.00000000000E+00 -0.66331301973E+03  0.66331301973E+03  0.00000000000E+00 0. -1.
         23    2    1    2    0    0  0.41290911489E+02  0.16089140273E+02 -0.30065567059E+03  0.31780004982E+03  0.92947509926E+02 0.  0.
          5    1    1    2  502    0 -0.61606777184E+02  0.26839897714E+02 -0.28284509362E+03  0.29075627610E+03  0.47000000000E+01 0. -1.
         -5    1    1    2    0  502  0.20315865694E+02 -0.42929037988E+02 -0.58821427612E+02  0.75747521727E+02  0.47000000000E+01 0. -1.
        -11    1    3    3    0    0  0.65542713234E+02  0.24914822924E+02 -0.15844907660E+03  0.17327061359E+03  0.00000000000E+00 0.  1.
         11    1    3    3    0    0 -0.24251801744E+02 -0.88256826510E+01 -0.14220659399E+03  0.14452943622E+03  0.00000000000E+00 0. -1.
<mgrwt>
<rscale>  0 0.12449286E+03</rscale>
<asrwt>0</asrwt>
<pdfrwt beam="2">  1        2 0.10204815E+00 0.13262361E+03</pdfrwt>
<pdfrwt beam="1">  1       -2 0.32293583E-02 0.13262361E+03</pdfrwt>
<totfact> 0.16087468E+04</totfact>
</mgrwt>
</event>
<event>
 7    1  0.1254976E-005  0.3506322E+03  0.7546771E-02  0.1111849E+00
          1   -1    0    0  501    0  0.00000000000E+00  0.00000000000E+00  0.42671750896E+03  0.42671750896E+03  0.00000000000E+00 0. -1.
         -1   -1    0    0    0  501 -0.00000000000E+00 -0.00000000000E+00 -0.11676954530E+03  0.11676954530E+03  0.00000000000E+00 0.  1.
         23    2    1    2    0    0 -0.20498666441E+02 -0.19275752238E+01  0.86134958485E+02  0.12751204148E+03  0.91739733901E+02 0.  0.
          5    1    1    2  502    0  0.32616803802E+02 -0.17043886732E+03  0.14416322406E+03  0.22565103269E+03  0.47000000000E+01 0. -1.
         -5    1    1    2    0  502 -0.12118137361E+02  0.17236644254E+03  0.79649781115E+02  0.19032398009E+03  0.47000000000E+01 0.  1.
        -11    1    3    3    0    0  0.28677610841E+02  0.10010931695E+02  0.34491817914E+01  0.30569935753E+02  0.00000000000E+00 0.  1.
         11    1    3    3    0    0 -0.49176277282E+02 -0.11938506919E+02  0.82685776693E+02  0.96942105723E+02  0.00000000000E+00 0. -1.
<mgrwt>
<rscale>  0 0.25231667E+03</rscale>
<asrwt>0</asrwt>
<pdfrwt beam="1">  1        1 0.65648847E-01 0.35063221E+03</pdfrwt>
<pdfrwt beam="2">  1       -1 0.17964546E-01 0.35063221E+03</pdfrwt>
<totfact> 0.13414529E+03</totfact>
</mgrwt>
</event>
<event>
 7    1  0.1254976E-005  0.1609863E+03  0.7546771E-02  0.1193691E+00
          1   -1    0    0  501    0  0.00000000000E+00  0.00000000000E+00  0.30407595906E+03  0.30407595906E+03  0.00000000000E+00 0. -1.
         -1   -1    0    0    0  501 -0.00000000000E+00 -0.00000000000E+00 -0.79835562325E+02  0.79835562325E+02  0.00000000000E+00 0.  1.
         23    2    1    2    0    0  0.86508743820E+02 -0.68215673390E+02  0.15302366594E+03  0.20787622184E+03  0.87516515100E+02 0.  0.
          5    1    1    2  502    0 -0.17898053062E+02 -0.18544079948E+02 -0.19700012352E+02  0.32778097737E+02  0.47000000000E+01 0. -1.
         -5    1    1    2    0  502 -0.68610690757E+02  0.86759753338E+02  0.90916743147E+02  0.14325720181E+03  0.47000000000E+01 0.  1.
        -11    1    3    3    0    0  0.82412169903E+02 -0.58606388794E+02  0.16403281706E+03  0.19269986930E+03  0.00000000000E+00 0. -1.
         11    1    3    3    0    0  0.40965739170E+01 -0.96092845955E+01 -0.11009151114E+02  0.15176352544E+02  0.00000000000E+00 0.  1.
<mgrwt>
<rscale>  0 0.15565560E+03</rscale>
<asrwt>0</asrwt>
<pdfrwt beam="1">  1        1 0.46780916E-01 0.16098635E+03</pdfrwt>
<pdfrwt beam="2">  1       -1 0.12282394E-01 0.16098635E+03</pdfrwt>
<totfact> 0.37015386E+03</totfact>
</mgrwt>
</event>
<event>
 7    1  0.1254976E-005  0.1426089E+03  0.7546771E-02  0.1221536E+00
         -2   -1    0    0    0  501 -0.00000000000E+00  0.00000000000E+00  0.44589760050E+02  0.44589760050E+02  0.00000000000E+00 0.  1.
          2   -1    0    0  501    0  0.00000000000E+00 -0.00000000000E+00 -0.38164529913E+03  0.38164529913E+03  0.00000000000E+00 0. -1.
         23    2    1    2    0    0  0.28733499400E+02  0.62353311347E+02 -0.19719688842E+03  0.22649086948E+03  0.87737972018E+02 0.  0.
          5    1    1    2  502    0  0.11620447544E+02  0.33444337993E+02 -0.54480394466E+02  0.65144162640E+02  0.47000000000E+01 0. -1.
         -5    1    1    2    0  502 -0.40353946943E+02 -0.95797649340E+02 -0.85378256200E+02  0.13460002706E+03  0.47000000000E+01 0. -1.
        -11    1    3    3    0    0 -0.15439325390E+02  0.37936026542E+02 -0.15615795944E+03  0.16143984383E+03  0.00000000000E+00 0. -1.
         11    1    3    3    0    0  0.44172824790E+02  0.24417284805E+02 -0.41038928974E+02  0.65051025653E+02  0.00000000000E+00 0.  1.
<mgrwt>
<rscale>  0 0.13407198E+03</rscale>
<asrwt>0</asrwt>
<pdfrwt beam="2">  1        2 0.58714664E-01 0.14260890E+03</pdfrwt>
<pdfrwt beam="1">  1       -2 0.68599628E-02 0.14260890E+03</pdfrwt>
<totfact> 0.96313380E+03</totfact>
</mgrwt>
</event>
<event>
 7    1  0.1254976E-005  0.1264526E+03  0.7546771E-02  0.1247695E+00
          2   -1    0    0  501    0  0.00000000000E+00  0.00000000000E+00  0.66148381402E+03  0.66148381402E+03  0.00000000000E+00 0. -1.
         -2   -1    0    0    0  501 -0.00000000000E+00 -0.00000000000E+00 -0.18334017006E+02  0.18334017006E+02  0.00000000000E+00 0.  1.
         23    2    1    2    0    0 -0.13868369435E+02 -0.13141595291E+02  0.25562825818E+03  0.27218662953E+03  0.91513505643E+02 0.  0.
          5    1    1    2  502    0 -0.39559049258E+02  0.46368289263E+02  0.22890798245E+03  0.23693013961E+03  0.47000000000E+01 0. -1.
         -5    1    1    2    0  502  0.53427418693E+02 -0.33226693972E+02  0.15861355639E+03  0.17070106189E+03  0.47000000000E+01 0. -1.
        -11    1    3    3    0    0 -0.45084659370E+02 -0.10762677229E+02  0.70119893796E+02  0.84055108337E+02  0.00000000000E+00 0. -1.
         11    1    3    3    0    0  0.31216289935E+02 -0.23789180621E+01  0.18550836438E+03  0.18813152119E+03  0.00000000000E+00 0.  1.
<mgrwt>
<rscale>  0 0.11725548E+03</rscale>
<asrwt>0</asrwt>
<pdfrwt beam="1">  1        2 0.10176672E+00 0.12645257E+03</pdfrwt>
<pdfrwt beam="2">  1       -2 0.28206185E-02 0.12645257E+03</pdfrwt>
<totfact> 0.19610981E+04</totfact>
</mgrwt>
</event>
<event>
 7    1  0.1254976E-005  0.1407154E+03  0.7546771E-02  0.1223432E+00
          1   -1    0    0  501    0  0.00000000000E+00  0.00000000000E+00  0.79639554582E+03  0.79639554582E+03  0.00000000000E+00 0. -1.
         -1   -1    0    0    0  501 -0.00000000000E+00 -0.00000000000E+00 -0.26031307434E+02  0.26031307434E+02  0.00000000000E+00 0.  1.
         23    2    1    2    0    0  0.35558729948E+02  0.53963777456E+02  0.54844032547E+03  0.55965120981E+03  0.90808443970E+02 0.  0.
          5    1    1    2  502    0 -0.23529626503E+02  0.22740814992E+02  0.64369399120E+01  0.33679551442E+02  0.47000000000E+01 0.  1.
         -5    1    1    2    0  502 -0.12029103445E+02 -0.76704592448E+02  0.21548697301E+03  0.22909609200E+03  0.47000000000E+01 0.  1.
        -11    1    3    3    0    0 -0.23558102396E+02  0.45757893218E+02  0.27476594300E+03  0.27954443728E+03  0.00000000000E+00 0.  1.
         11    1    3    3    0    0  0.59116832345E+02  0.82058842382E+01  0.27367438246E+03  0.28010677254E+03  0.00000000000E+00 0. -1.
<mgrwt>
<rscale>  0 0.13274956E+03</rscale>
<asrwt>0</asrwt>
<pdfrwt beam="1">  1        1 0.12252237E+00 0.14071537E+03</pdfrwt>
<pdfrwt beam="2">  1       -1 0.40048171E-02 0.14071537E+03</pdfrwt>
<totfact> 0.55348930E+03</totfact>
</mgrwt>
</event>
<event>
 7    1  0.2575857E-005  0.2768277E+03  0.7546771E-02  0.1099333E+00
         -2   -1    0    0    0  501 -0.00000000000E+00  0.00000000000E+00  0.59240242009E+02  0.59240242009E+02  0.00000000000E+00 0. -1.
          2   -1    0    0  501    0  0.00000000000E+00 -0.00000000000E+00 -0.14403285812E+04  0.14403285812E+04  0.00000000000E+00 0.  1.
         23    2    1    2    0    0  0.15578428355E+03 -0.19167574756E+03 -0.96104011688E+03  0.99650413787E+03  0.91728159969E+02 0.  0.
          5    1    1    2  502    0 -0.17441599532E+03  0.18218125719E+03 -0.36230891354E+03  0.44147569438E+03  0.47000000000E+01 0. -1.
         -5    1    1    2    0  502  0.18631711770E+02  0.94944903709E+01 -0.57739308752E+02  0.61588990949E+02  0.47000000000E+01 0. -1.
        -11    1    3    3    0    0  0.11883034251E+03 -0.82877660890E+02 -0.61710209645E+03  0.63388039441E+03  0.00000000000E+00 0. -1.
         11    1    3    3    0    0  0.36953941040E+02 -0.10879808667E+03 -0.34393802042E+03  0.36262374345E+03  0.00000000000E+00 0.  1.
<mgrwt>
<rscale>  0 0.27342901E+03</rscale>
<asrwt>0</asrwt>
<pdfrwt beam="2">  1        2 0.22158901E+00 0.27682769E+03</pdfrwt>
<pdfrwt beam="1">  1       -2 0.91138834E-02 0.27682769E+03</pdfrwt>
<totfact> 0.11317861E+03</totfact>
</mgrwt>
</event>
<event>
 7    1  0.1254976E-005  0.1935428E+03  0.7546771E-02  0.1159905E+00
          1   -1    0    0  501    0  0.00000000000E+00  0.00000000000E+00  0.94126753697E+02  0.94126753697E+02  0.00000000000E+00 0.  1.
         -1   -1    0    0    0  501 -0.00000000000E+00 -0.00000000000E+00 -0.35966430792E+03  0.35966430792E+03  0.00000000000E+00 0. -1.
         23    2    1    2    0    0 -0.81872132474E+02 -0.12300228446E+03 -0.13903064541E+03  0.22257080284E+03  0.91518489154E+02 0.  0.
          5    1    1    2  502    0  0.58019004884E+02  0.86604027189E+02 -0.77291134137E+01  0.10463408454E+03  0.47000000000E+01 0. -1.
         -5    1    1    2    0  502  0.23853127590E+02  0.36398257267E+02 -0.11877779540E+03  0.12658617424E+03  0.47000000000E+01 0. -1.
        -11    1    3    3    0    0 -0.62059154323E+02 -0.30320381776E+02 -0.23101679910E+02  0.72830981052E+02  0.00000000000E+00 0. -1.
         11    1    3    3    0    0 -0.19812978151E+02 -0.92681902680E+02 -0.11592896550E+03  0.14973982179E+03  0.00000000000E+00 0.  1.
<mgrwt>
<rscale>  0 0.18840760E+03</rscale>
<asrwt>0</asrwt>
<pdfrwt beam="1">  1        1 0.14481039E-01 0.19354279E+03</pdfrwt>
<pdfrwt beam="2">  1       -1 0.55332970E-01 0.19354279E+03</pdfrwt>
<totfact> 0.13142317E+03</totfact>
</mgrwt>
</event>
<event>
 7    1  0.1254976E-005  0.2057004E+03  0.7546771E-02  0.1145017E+00
          1   -1    0    0  501    0  0.00000000000E+00  0.00000000000E+00  0.22802741949E+03  0.22802741949E+03  0.00000000000E+00 0. -1.
         -1   -1    0    0    0  501 -0.00000000000E+00 -0.00000000000E+00 -0.46389880711E+02  0.46389880711E+02  0.00000000000E+00 0.  1.
         23    2    1    2    0    0  0.73732354697E+01  0.13943883642E+02  0.98271491686E+02  0.13437258039E+03  0.90276839716E+02 0.  0.
          5    1    1    2  502    0 -0.18692244159E+02  0.37609604456E+02  0.75432157252E+02  0.86463765166E+02  0.47000000000E+01 0. -1.
         -5    1    1    2    0  502  0.11319008689E+02 -0.51553488098E+02  0.79338898387E+01  0.53580954646E+02  0.47000000000E+01 0.  1.
        -11    1    3    3    0    0  0.30810785463E+02 -0.16698514385E+02  0.76342086214E+01  0.35866781634E+02  0.00000000000E+00 0.  1.
         11    1    3    3    0    0 -0.23437549993E+02  0.30642398027E+02  0.90637283064E+02  0.98505798752E+02  0.00000000000E+00 0. -1.
<mgrwt>
<rscale>  0 0.20570041E+03</rscale>
<asrwt>0</asrwt>
<pdfrwt beam="1">  1        1 0.35081141E-01 0.20570041E+03</pdfrwt>
<pdfrwt beam="2">  1       -1 0.71369049E-02 0.20570041E+03</pdfrwt>
<totfact> 0.12358174E+04</totfact>
</mgrwt>
</event>
<event>
 7    1  0.1254976E-005  0.1289697E+03  0.7546771E-02  0.1243997E+00
          2   -1    0    0  501    0  0.00000000000E+00  0.00000000000E+00  0.11899110821E+03  0.11899110821E+03  0.00000000000E+00 0. -1.
         -2   -1    0    0    0  501 -0.00000000000E+00 -0.00000000000E+00 -0.18245193544E+03  0.18245193544E+03  0.00000000000E+00 0.  1.
         23    2    1    2    0    0  0.22543752364E+02  0.22403190875E+02  0.68397454781E+02  0.11699850363E+03  0.89444476064E+02 0.  0.
          5    1    1    2  502    0 -0.58723239729E+02 -0.50477858645E+02 -0.55884030005E+02  0.95611442345E+02  0.47000000000E+01 0.  1.
         -5    1    1    2    0  502  0.36179487365E+02  0.28074667770E+02 -0.75974251999E+02  0.88833097679E+02  0.47000000000E+01 0.  1.
        -11    1    3    3    0    0  0.21880158787E+02 -0.23682220553E+02  0.62769115338E+02  0.70565932001E+02  0.00000000000E+00 0. -1.
         11    1    3    3    0    0  0.66359357686E+00  0.46085411428E+02  0.56283394438E+01  0.46432571626E+02  0.00000000000E+00 0.  1.
<mgrwt>
<rscale>  0 0.11945628E+03</rscale>
<asrwt>0</asrwt>
<pdfrwt beam="1">  1        2 0.18306324E-01 0.12896969E+03</pdfrwt>
<pdfrwt beam="2">  1       -2 0.28069528E-01 0.12896969E+03</pdfrwt>
<totfact> 0.34041197E+03</totfact>
</mgrwt>
</event>
<event>
 7    1  0.1254976E-005  0.1307200E+03  0.7546771E-02  0.1239962E+00
          1   -1    0    0  501    0  0.00000000000E+00  0.00000000000E+00  0.22060287989E+03  0.22060287989E+03  0.00000000000E+00 0. -1.
         -1   -1    0    0    0  501 -0.00000000000E+00 -0.00000000000E+00 -0.78945373676E+02  0.78945373676E+02  0.00000000000E+00 0.  1.
         23    2    1    2    0    0 -0.54236110589E+01  0.37865886377E+02  0.13669715058E+03  0.16873418532E+03  0.91224302750E+02 0.  0.
          5    1    1    2  502    0 -0.57075535794E+02 -0.21496817092E+02 -0.15089765235E+02  0.63004134358E+02  0.47000000000E+01 0.  1.
         -5    1    1    2    0  502  0.62499146853E+02 -0.16369069285E+02  0.20050120872E+02  0.67809933886E+02  0.47000000000E+01 0.  1.
        -11    1    3    3    0    0 -0.30865309035E+02 -0.47964038447E+01  0.10240424971E+02  0.32871554500E+02  0.00000000000E+00 0.  1.
         11    1    3    3    0    0  0.25441697976E+02  0.42662290222E+02  0.12645672560E+03  0.13586263082E+03  0.00000000000E+00 0. -1.
<mgrwt>
<rscale>  0 0.12192064E+03</rscale>
<asrwt>0</asrwt>
<pdfrwt beam="1">  1        1 0.33938904E-01 0.13071999E+03</pdfrwt>
<pdfrwt beam="2">  1       -1 0.12145442E-01 0.13071999E+03</pdfrwt>
<totfact> 0.55426776E+03</totfact>
</mgrwt>
</event>
<event>
 7    1  0.1254976E-005  0.1552797E+03  0.7546771E-02  0.1202664E+00
         -2   -1    0    0    0  501 -0.00000000000E+00  0.00000000000E+00  0.10931211475E+03  0.10931211475E+03  0.00000000000E+00 0.  1.
          2   -1    0    0  501    0  0.00000000000E+00 -0.00000000000E+00 -0.19177247793E+03  0.19177247793E+03  0.00000000000E+00 0. -1.
         23    2    1    2    0    0  0.18104726162E+02  0.90323531486E+02 -0.88745735838E+01  0.12925137953E+03  0.90227709743E+02 0.  0.
          5    1    1    2  502    0 -0.60905592801E+02 -0.72579457838E+01 -0.24932362201E+02  0.66376815955E+02  0.47000000000E+01 0. -1.
         -5    1    1    2    0  502  0.42800866640E+02 -0.83065585702E+02 -0.48653427394E+02  0.10545639720E+03  0.47000000000E+01 0. -1.
        -11    1    3    3    0    0  0.59264638255E+01  0.10279467387E+03  0.10131254881E+02  0.10346260326E+03  0.00000000000E+00 0.  1.
         11    1    3    3    0    0  0.12178262336E+02 -0.12471142381E+02 -0.19005828464E+02  0.25788776269E+02  0.00000000000E+00 0. -1.
<mgrwt>
<rscale>  0 0.14823074E+03</rscale>
<asrwt>0</asrwt>
<pdfrwt beam="2">  1        2 0.29503458E-01 0.15527970E+03</pdfrwt>
<pdfrwt beam="1">  1       -2 0.16817249E-01 0.15527970E+03</pdfrwt>
<totfact> 0.48673826E+03</totfact>
</mgrwt>
</event>
<event>
 7    1  0.1254976E-005  0.2028944E+03  0.7546771E-02  0.1151235E+00
          2   -1    0    0  501    0  0.00000000000E+00  0.00000000000E+00  0.40333328854E+02  0.40333328854E+02  0.00000000000E+00 0. -1.
         -2   -1    0    0    0  501 -0.00000000000E+00 -0.00000000000E+00 -0.96811568653E+03  0.96811568653E+03  0.00000000000E+00 0.  1.
         23    2    1    2    0    0  0.15689954630E+03  0.30484887053E+02 -0.34603720701E+03  0.39233736497E+03  0.92951941048E+02 0.  0.
          5    1    1    2  502    0 -0.13472155603E+03  0.19505301226E+02 -0.49550422514E+03  0.51388411298E+03  0.47000000000E+01 0. -1.
         -5    1    1    2    0  502 -0.22177990273E+02 -0.49990188278E+02 -0.86240925522E+02  0.10222753744E+03  0.47000000000E+01 0. -1.
        -11    1    3    3    0    0  0.15265471808E+03  0.17778645956E+02 -0.34637182800E+03  0.37893665228E+03  0.00000000000E+00 0.  1.
         11    1    3    3    0    0  0.42448282160E+01  0.12706241096E+02  0.33462099039E+00  0.13400712689E+02  0.00000000000E+00 0. -1.
<mgrwt>
<rscale>  0 0.19823712E+03</rscale>
<asrwt>0</asrwt>
<pdfrwt beam="1">  1        2 0.62051281E-02 0.20289442E+03</pdfrwt>
<pdfrwt beam="2">  1       -2 0.14894086E+00 0.20289442E+03</pdfrwt>
<totfact> 0.37969452E+02</totfact>
</mgrwt>
</event>
<event>
 7    1  0.1254976E-005  0.1607594E+03  0.7546771E-02  0.1195229E+00
          3   -1    0    0  501    0  0.00000000000E+00  0.00000000000E+00  0.69573544470E+02  0.69573544470E+02  0.00000000000E+00 0. -1.
         -3   -1    0    0    0  501 -0.00000000000E+00 -0.00000000000E+00 -0.35487320172E+03  0.35487320172E+03  0.00000000000E+00 0.  1.
         23    2    1    2    0    0 -0.26760998881E+02  0.97482386634E+02 -0.63838929610E+02  0.15078920176E+03  0.91885840410E+02 0.  0.
          5    1    1    2  502    0 -0.35520673078E+02 -0.21527169304E+02 -0.13954601594E+03  0.14567195269E+03  0.47000000000E+01 0. -1.
         -5    1    1    2    0  502  0.62281671959E+02 -0.75955217330E+02 -0.81914711694E+02  0.12798559174E+03  0.47000000000E+01 0. -1.
        -11    1    3    3    0    0  0.20453687547E+02 -0.39869288821E+01 -0.24492422425E+02  0.32157855843E+02  0.00000000000E+00 0.  1.
         11    1    3    3    0    0 -0.47214686427E+02  0.10146931552E+03 -0.39346507185E+02  0.11863134591E+03  0.00000000000E+00 0. -1.
<mgrwt>
<rscale>  0 0.15434838E+03</rscale>
<asrwt>0</asrwt>
<pdfrwt beam="1">  1        3 0.10703622E-01 0.16075944E+03</pdfrwt>
<pdfrwt beam="2">  1       -3 0.54595876E-01 0.16075944E+03</pdfrwt>
<totfact> 0.52271040E+02</totfact>
</mgrwt>
</event>
<event>
 7    1  0.1254976E-005  0.1426975E+03  0.7546771E-02  0.1220096E+00
         -1   -1    0    0    0  501 -0.00000000000E+00  0.00000000000E+00  0.27996469620E+03  0.27996469620E+03  0.00000000000E+00 0.  1.
          1   -1    0    0  501    0  0.00000000000E+00 -0.00000000000E+00 -0.92971746609E+02  0.92971746609E+02  0.00000000000E+00 0. -1.
         23    2    1    2    0    0 -0.35502199367E+00  0.68827801297E+02 -0.25084055773E+02  0.11732106685E+03  0.91638586861E+02 0.  0.
          5    1    1    2  502    0  0.50471610225E+02  0.72054843400E+01  0.84501955880E+02  0.98802697286E+02  0.47000000000E+01 0. -1.
         -5    1    1    2    0  502 -0.50116588232E+02 -0.76033285637E+02  0.12757504948E+03  0.15681267867E+03  0.47000000000E+01 0. -1.
        -11    1    3    3    0    0  0.17642282299E+02  0.84313174186E+02 -0.51037955534E+01  0.86290267094E+02  0.00000000000E+00 0.  1.
         11    1    3    3    0    0 -0.17997304293E+02 -0.15485372889E+02 -0.19980260219E+02  0.31030799760E+02  0.00000000000E+00 0. -1.
<mgrwt>
<rscale>  0 0.13508777E+03</rscale>
<asrwt>0</asrwt>
<pdfrwt beam="2">  1        1 0.14303346E-01 0.14269746E+03</pdfrwt>
<pdfrwt beam="1">  1       -1 0.43071491E-01 0.14269746E+03</pdfrwt>
<totfact> 0.20897570E+03</totfact>
</mgrwt>
</event>
<event>
 7    1  0.1254976E-005  0.1620410E+03  0.7546771E-02  0.1193631E+00
          2   -1    0    0  501    0  0.00000000000E+00  0.00000000000E+00  0.69510898519E+02  0.69510898519E+02  0.00000000000E+00 0. -1.
         -2   -1    0    0    0  501 -0.00000000000E+00 -0.00000000000E+00 -0.40004191076E+03  0.40004191076E+03  0.00000000000E+00 0.  1.
         23    2    1    2    0    0 -0.10183523001E+03 -0.16179419058E+02 -0.52583353559E+02  0.14781971281E+03  0.91942758014E+02 0.  0.
          5    1    1    2  502    0  0.68306574164E+02 -0.28860801645E+02 -0.56815577451E+02  0.93535200790E+02  0.47000000000E+01 0. -1.
         -5    1    1    2    0  502  0.33528655843E+02  0.45040220703E+02 -0.22113208123E+03  0.22819789568E+03  0.47000000000E+01 0. -1.
        -11    1    3    3    0    0  0.28482279253E+01 -0.31633106029E+02 -0.65852402318E+01  0.32436571771E+02  0.00000000000E+00 0. -1.
         11    1    3    3    0    0 -0.10468345793E+03  0.15453686971E+02 -0.45998113327E+02  0.11538314104E+03  0.00000000000E+00 0.  1.
<mgrwt>
<rscale>  0 0.15570662E+03</rscale>
<asrwt>0</asrwt>
<pdfrwt beam="1">  1        2 0.10693984E-01 0.16204100E+03</pdfrwt>
<pdfrwt beam="2">  1       -2 0.61544910E-01 0.16204100E+03</pdfrwt>
<totfact> 0.14469119E+03</totfact>
</mgrwt>
</event>
<event>
 7    1  0.1254976E-005  0.1517409E+03  0.7546771E-02  0.1207680E+00
          1   -1    0    0  501    0  0.00000000000E+00  0.00000000000E+00  0.54640183054E+03  0.54640183054E+03  0.00000000000E+00 0. -1.
         -1   -1    0    0    0  501 -0.00000000000E+00 -0.00000000000E+00 -0.34831975195E+02  0.34831975195E+02  0.00000000000E+00 0.  1.
         23    2    1    2    0    0 -0.81766329632E+02  0.26785913660E+02  0.23931037900E+03  0.26954400878E+03  0.89338106882E+02 0.  0.
          5    1    1    2  502    0 -0.22474619773E+02 -0.36509813257E+02  0.50476962151E+02  0.66393438728E+02  0.47000000000E+01 0.  1.
         -5    1    1    2    0  502  0.10424094940E+03  0.97238995977E+01  0.22178251419E+03  0.24529635822E+03  0.47000000000E+01 0.  1.
        -11    1    3    3    0    0 -0.57081478897E+02 -0.49912859496E+01  0.21506143157E+03  0.22256376057E+03  0.00000000000E+00 0. -1.
         11    1    3    3    0    0 -0.24684850734E+02  0.31777199609E+02  0.24248947426E+02  0.46980248212E+02  0.00000000000E+00 0.  1.
<mgrwt>
<rscale>  0 0.14428212E+03</rscale>
<asrwt>0</asrwt>
<pdfrwt beam="1">  1        1 0.84061814E-01 0.15174092E+03</pdfrwt>
<pdfrwt beam="2">  1       -1 0.53587658E-02 0.15174092E+03</pdfrwt>
<totfact> 0.61436309E+03</totfact>
</mgrwt>
</event>
<event>
 7    1  0.1254976E-005  0.2511714E+03  0.7546771E-02  0.1154761E+00
         -2   -1    0    0    0  501 -0.00000000000E+00  0.00000000000E+00  0.17543011941E+02  0.17543011941E+02  0.00000000000E+00 0.  1.
          2   -1    0    0  501    0  0.00000000000E+00 -0.00000000000E+00 -0.16923250755E+04  0.16923250755E+04  0.00000000000E+00 0. -1.
         23    2    1    2    0    0  0.25857667268E+02  0.14174986587E+02 -0.33820006265E+03  0.34989068985E+03  0.84703384054E+02 0.  0.
          5    1    1    2  502    0  0.28369031466E+02 -0.12282492796E+03 -0.79359023428E+03  0.80355355442E+03  0.47000000000E+01 0. -1.
         -5    1    1    2    0  502 -0.54226698734E+02  0.10864994137E+03 -0.54299176660E+03  0.55642384313E+03  0.47000000000E+01 0.  1.
        -11    1    3    3    0    0  0.34943530657E+02  0.45102190479E+02 -0.23155614984E+03  0.23848167319E+03  0.00000000000E+00 0. -1.
         11    1    3    3    0    0 -0.90858633899E+01 -0.30927203892E+02 -0.10664391281E+03  0.11140901666E+03  0.00000000000E+00 0.  1.
<mgrwt>
<rscale>  0 0.19416149E+03</rscale>
<asrwt>0</asrwt>
<pdfrwt beam="2">  1        2 0.26035776E+00 0.25117141E+03</pdfrwt>
<pdfrwt beam="1">  1       -2 0.26989243E-02 0.25117141E+03</pdfrwt>
<totfact> 0.53388245E+03</totfact>
</mgrwt>
</event>
<event>
 7    1  0.1254976E-005  0.1255490E+03  0.7546771E-02  0.1255721E+00
         -1   -1    0    0    0  501 -0.00000000000E+00  0.00000000000E+00  0.14940180239E+03  0.14940180239E+03  0.00000000000E+00 0.  1.
          1   -1    0    0  501    0  0.00000000000E+00 -0.00000000000E+00 -0.71979102164E+02  0.71979102164E+02  0.00000000000E+00 0. -1.
         23    2    1    2    0    0  0.11456095587E+02  0.58834995838E+00  0.23382383064E+02  0.84695438468E+02  0.80591520508E+02 0.  0.
          5    1    1    2  502    0 -0.35671981135E+01 -0.55878421709E+02  0.57674186026E+02  0.80520336864E+02  0.47000000000E+01 0. -1.
         -5    1    1    2    0  502 -0.78888974733E+01  0.55290071750E+02 -0.36338688647E+01  0.56165129221E+02  0.47000000000E+01 0. -1.
        -11    1    3    3    0    0 -0.18081239240E+01 -0.22051730035E+02  0.45359519874E+02  0.50468149885E+02  0.00000000000E+00 0.  1.
         11    1    3    3    0    0  0.13264219511E+02  0.22640079993E+02 -0.21977136810E+02  0.34227288582E+02  0.00000000000E+00 0. -1.
<mgrwt>
<rscale>  0 0.11266039E+03</rscale>
<asrwt>0</asrwt>
<pdfrwt beam="2">  1        1 0.11073708E-01 0.12554904E+03</pdfrwt>
<pdfrwt beam="1">  1       -1 0.22984893E-01 0.12554904E+03</pdfrwt>
<totfact> 0.83935970E+03</totfact>
</mgrwt>
</event>
<event>
 7    1  0.1254976E-005  0.1482649E+03  0.7546771E-02  0.1212446E+00
          2   -1    0    0  501    0  0.00000000000E+00  0.00000000000E+00  0.11014464156E+03  0.11014464156E+03  0.00000000000E+00 0. -1.
         -2   -1    0    0    0  501 -0.00000000000E+00 -0.00000000000E+00 -0.23526634478E+03  0.23526634478E+03  0.00000000000E+00 0.  1.
         23    2    1    2    0    0 -0.36821797428E+02  0.70722818812E+02  0.37044134280E+02  0.12568332954E+03  0.89813526672E+02 0.  0.
          5    1    1    2  502    0  0.41688011575E+02  0.10779770918E+02 -0.63834357181E+01  0.43782782252E+02  0.47000000000E+01 0. -1.
         -5    1    1    2    0  502 -0.48662141475E+01 -0.81502589730E+02 -0.15578240179E+03  0.17594487455E+03  0.47000000000E+01 0. -1.
        -11    1    3    3    0    0 -0.23177874445E+02  0.62965410705E+01  0.52768112271E+02  0.57977012392E+02  0.00000000000E+00 0. -1.
         11    1    3    3    0    0 -0.13643922982E+02  0.64426277742E+02 -0.15723977990E+02  0.67706317149E+02  0.00000000000E+00 0.  1.
<mgrwt>
<rscale>  0 0.14065806E+03</rscale>
<asrwt>0</asrwt>
<pdfrwt beam="1">  1        2 0.16945330E-01 0.14826491E+03</pdfrwt>
<pdfrwt beam="2">  1       -2 0.36194822E-01 0.14826491E+03</pdfrwt>
<totfact> 0.23605666E+03</totfact>
</mgrwt>
</event>
<event>
 7    1  0.1254976E-005  0.1472574E+03  0.7546771E-02  0.1212729E+00
          2   -1    0    0  501    0  0.00000000000E+00  0.00000000000E+00  0.27892303733E+03  0.27892303733E+03  0.00000000000E+00 0. -1.
         -2   -1    0    0    0  501 -0.00000000000E+00 -0.00000000000E+00 -0.68252955260E+02  0.68252955260E+02  0.00000000000E+00 0.  1.
         23    2    1    2    0    0  0.45997530860E+01 -0.77708345724E+02  0.13414321298E+03  0.18122090309E+03  0.93738302766E+02 0.  0.
          5    1    1    2  502    0  0.29507757675E+02 -0.15784216485E+00 -0.20979638179E+02  0.36509832858E+02  0.47000000000E+01 0. -1.
         -5    1    1    2    0  502 -0.34107510761E+02  0.77866187889E+02  0.97506507271E+02  0.12944525664E+03  0.47000000000E+01 0. -1.
        -11    1    3    3    0    0 -0.43510131390E+02 -0.46614944841E+02  0.60280313696E+02  0.87748509021E+02  0.00000000000E+00 0.  1.
         11    1    3    3    0    0  0.48109884476E+02 -0.31093400883E+02  0.73862899285E+02  0.93472394072E+02  0.00000000000E+00 0. -1.
<mgrwt>
<rscale>  0 0.14044659E+03</rscale>
<asrwt>0</asrwt>
<pdfrwt beam="1">  1        2 0.42911236E-01 0.14725736E+03</pdfrwt>
<pdfrwt beam="2">  1       -2 0.10500455E-01 0.14725736E+03</pdfrwt>
<totfact> 0.69517740E+03</totfact>
</mgrwt>
</event>
<event>
 7    1  0.1254976E-005  0.2692287E+03  0.7546771E-02  0.1103869E+00
          1   -1    0    0  501    0  0.00000000000E+00  0.00000000000E+00  0.17681787278E+04  0.17681787278E+04  0.00000000000E+00 0. -1.
         -1   -1    0    0    0  501 -0.00000000000E+00 -0.00000000000E+00 -0.59320418668E+02  0.59320418668E+02  0.00000000000E+00 0.  1.
         23    2    1    2    0    0 -0.23490353813E+03 -0.40974872890E+02  0.13760590158E+04  0.13994343391E+04  0.89551337118E+02 0.  0.
          5    1    1    2  502    0  0.39776675975E+02 -0.29863282419E+02  0.22720368064E+02  0.54884466959E+02  0.47000000000E+01 0. -1.
         -5    1    1    2    0  502  0.19512686215E+03  0.70838155309E+02  0.31007892518E+03  0.37318034034E+03  0.47000000000E+01 0. -1.
        -11    1    3    3    0    0 -0.43967704396E+02  0.27313125597E+02  0.30101268528E+03  0.30543052002E+03  0.00000000000E+00 0.  1.
         11    1    3    3    0    0 -0.19093583373E+03 -0.68287998488E+02  0.10750463306E+04  0.10940038191E+04  0.00000000000E+00 0. -1.
<mgrwt>
<rscale>  0 0.26552369E+03</rscale>
<asrwt>0</asrwt>
<pdfrwt beam="1">  1        1 0.27202746E+00 0.26922873E+03</pdfrwt>
<pdfrwt beam="2">  1       -1 0.91262196E-02 0.26922873E+03</pdfrwt>
<totfact> 0.33603297E+02</totfact>
</mgrwt>
</event>
<event>
 7    1  0.1254976E-005  0.1485735E+03  0.7546771E-02  0.1222062E+00
          1   -1    0    0  501    0  0.00000000000E+00  0.00000000000E+00  0.21446563877E+03  0.21446563877E+03  0.00000000000E+00 0. -1.
         -1   -1    0    0    0  501 -0.00000000000E+00 -0.00000000000E+00 -0.82683369352E+02  0.82683369352E+02  0.00000000000E+00 0.  1.
         23    2    1    2    0    0  0.23543226661E+02  0.22697939683E+02  0.11005866801E+03  0.14699574250E+03  0.91789748448E+02 0.  0.
          5    1    1    2  502    0  0.49606279465E+02  0.25297528576E+02  0.27627859829E+02  0.62338884760E+02  0.47000000000E+01 0. -1.
         -5    1    1    2    0  502 -0.73149506125E+02 -0.47995468259E+02 -0.59042584204E+01  0.87814380868E+02  0.47000000000E+01 0.  1.
        -11    1    3    3    0    0 -0.19453966271E+02  0.43999987875E+02  0.42915739515E+02  0.64468724470E+02  0.00000000000E+00 0.  1.
         11    1    3    3    0    0  0.42997192932E+02 -0.21302048192E+02  0.67142928500E+02  0.82527018029E+02  0.00000000000E+00 0. -1.
<mgrwt>
<rscale>  0 0.13370326E+03</rscale>
<asrwt>0</asrwt>
<pdfrwt beam="1">  1        1 0.32994714E-01 0.14857351E+03</pdfrwt>
<pdfrwt beam="2">  1       -1 0.12720518E-01 0.14857351E+03</pdfrwt>
<totfact> 0.53854110E+03</totfact>
</mgrwt>
</event>
<event>
 7    1  0.1254976E-005  0.2138586E+03  0.7546771E-02  0.1141739E+00
         -2   -1    0    0    0  501 -0.00000000000E+00  0.00000000000E+00  0.17820743161E+03  0.17820743161E+03  0.00000000000E+00 0.  1.
          2   -1    0    0  501    0  0.00000000000E+00 -0.00000000000E+00 -0.59343204534E+03  0.59343204534E+03  0.00000000000E+00 0. -1.
         23    2    1    2    0    0 -0.17473067227E+03  0.15050980110E+02 -0.50292132532E+03  0.54049833852E+03  0.91930705661E+02 0.  0.
          5    1    1    2  502    0  0.85736615577E+01 -0.14761011658E+02 -0.24768058893E+02  0.30445720208E+02  0.47000000000E+01 0. -1.
         -5    1    1    2    0  502  0.16615701071E+03 -0.28996845257E+00  0.11246477049E+03  0.20069541821E+03  0.47000000000E+01 0.  1.
        -11    1    3    3    0    0 -0.17724372352E+02 -0.32905431145E+01 -0.59356808354E+01  0.18979287559E+02  0.00000000000E+00 0.  1.
         11    1    3    3    0    0 -0.15700629992E+03  0.18341523225E+02 -0.49698564449E+03  0.52151905096E+03  0.00000000000E+00 0. -1.
<mgrwt>
<rscale>  0 0.20978177E+03</rscale>
<asrwt>0</asrwt>
<pdfrwt beam="2">  1        2 0.91297238E-01 0.21385863E+03</pdfrwt>
<pdfrwt beam="1">  1       -2 0.27416528E-01 0.21385863E+03</pdfrwt>
<totfact> 0.61944753E+02</totfact>
</mgrwt>
</event>
<event>
 7    1  0.1254976E-005  0.1460627E+03  0.7546771E-02  0.1214558E+00
         -2   -1    0    0    0  501 -0.00000000000E+00  0.00000000000E+00  0.17582130016E+03  0.17582130016E+03  0.00000000000E+00 0. -1.
          2   -1    0    0  501    0  0.00000000000E+00 -0.00000000000E+00 -0.10099177176E+03  0.10099177176E+03  0.00000000000E+00 0.  1.
         23    2    1    2    0    0 -0.63516532785E+02  0.40849756040E+02  0.26850483544E+02  0.12307207439E+03  0.93395580853E+02 0.  0.
          5    1    1    2  502    0  0.10149913890E+03 -0.31520685418E+02  0.30705649425E+02  0.11072739369E+03  0.47000000000E+01 0.  1.
         -5    1    1    2    0  502 -0.37982606115E+02 -0.93290706217E+01  0.17273395433E+02  0.43013603845E+02  0.47000000000E+01 0.  1.
        -11    1    3    3    0    0 -0.56171748174E+01  0.26173152356E+02  0.51825242341E+02  0.58330457747E+02  0.00000000000E+00 0. -1.
         11    1    3    3    0    0 -0.57899357968E+02  0.14676603683E+02 -0.24974758797E+02  0.64741616644E+02  0.00000000000E+00 0.  1.
<mgrwt>
<rscale>  0 0.13909031E+03</rscale>
<asrwt>0</asrwt>
<pdfrwt beam="2">  1        2 0.15537196E-01 0.14606268E+03</pdfrwt>
<pdfrwt beam="1">  1       -2 0.27049431E-01 0.14606268E+03</pdfrwt>
<totfact> 0.44257314E+03</totfact>
</mgrwt>
</event>
<event>
 7    1  0.1254976E-005  0.1378023E+03  0.7546771E-02  0.1227782E+00
         -2   -1    0    0    0  501 -0.00000000000E+00  0.00000000000E+00  0.57552256455E+03  0.57552256455E+03  0.00000000000E+00 0.  1.
          2   -1    0    0  501    0  0.00000000000E+00 -0.00000000000E+00 -0.26668923212E+02  0.26668923212E+02  0.00000000000E+00 0. -1.
         23    2    1    2    0    0 -0.51808909320E+02  0.26093581876E+02  0.20850783026E+03  0.23500660517E+03  0.91583574379E+02 0.  0.
          5    1    1    2  502    0 -0.16597740540E+02  0.85516071630E+01  0.10301837350E+01  0.19281241003E+02  0.47000000000E+01 0.  1.
         -5    1    1    2    0  502  0.68406649859E+02 -0.34645189039E+02  0.33931562734E+03  0.34790364158E+03  0.47000000000E+01 0.  1.
        -11    1    3    3    0    0 -0.13953494535E+02 -0.34350686717E+02  0.69612189159E+02  0.78870314867E+02  0.00000000000E+00 0. -1.
         11    1    3    3    0    0 -0.37855414784E+02  0.60444268593E+02  0.13889564110E+03  0.15613629030E+03  0.00000000000E+00 0.  1.
<mgrwt>
<rscale>  0 0.12978036E+03</rscale>
<asrwt>0</asrwt>
<pdfrwt beam="2">  1        2 0.41029117E-02 0.13780227E+03</pdfrwt>
<pdfrwt beam="1">  1       -2 0.88541923E-01 0.13780227E+03</pdfrwt>
<totfact> 0.22301742E+03</totfact>
</mgrwt>
</event>
<event>
 7    1  0.1254976E-005  0.1356500E+03  0.7546771E-02  0.1231859E+00
          1   -1    0    0  501    0  0.00000000000E+00  0.00000000000E+00  0.70008128926E+02  0.70008128926E+02  0.00000000000E+00 0. -1.
         -1   -1    0    0    0  501 -0.00000000000E+00 -0.00000000000E+00 -0.22555750120E+03  0.22555750120E+03  0.00000000000E+00 0.  1.
         23    2    1    2    0    0 -0.17360035735E+02 -0.49741735090E+02 -0.25267448703E+02  0.10748507164E+03  0.90216326745E+02 0.  0.
          5    1    1    2  502    0 -0.31340291979E+02 -0.24999727046E+02 -0.68356082145E+02  0.79384155975E+02  0.47000000000E+01 0. -1.
         -5    1    1    2    0  502  0.48700327714E+02  0.74741462136E+02 -0.61925841422E+02  0.10869640251E+03  0.47000000000E+01 0. -1.
        -11    1    3    3    0    0 -0.31915919545E+02 -0.40071480565E+02  0.22997645072E+02  0.56153727872E+02  0.00000000000E+00 0. -1.
         11    1    3    3    0    0  0.14555883810E+02 -0.96702545248E+01 -0.48265093775E+02  0.51331343769E+02  0.00000000000E+00 0.  1.
<mgrwt>
<rscale>  0 0.12707665E+03</rscale>
<asrwt>0</asrwt>
<pdfrwt beam="1">  1        1 0.10770482E-01 0.13564998E+03</pdfrwt>
<pdfrwt beam="2">  1       -1 0.34701153E-01 0.13564998E+03</pdfrwt>
<totfact> 0.44068370E+03</totfact>
</mgrwt>
</event>
<event>
 7    1  0.1254976E-005  0.1272354E+03  0.7546771E-02  0.1246155E+00
          1   -1    0    0  501    0  0.00000000000E+00  0.00000000000E+00  0.53185578661E+03  0.53185578661E+03  0.00000000000E+00 0. -1.
         -1   -1    0    0    0  501 -0.00000000000E+00 -0.00000000000E+00 -0.23700128301E+02  0.23700128301E+02  0.00000000000E+00 0.  1.
         23    2    1    2    0    0  0.21657824464E+02 -0.96883746441E+01  0.25979059177E+03  0.27649667560E+03  0.91631512503E+02 0.  0.
          5    1    1    2  502    0 -0.50705830685E+00  0.49820631249E+02  0.21939131309E+03  0.22502664434E+03  0.47000000000E+01 0.  1.
         -5    1    1    2    0  502 -0.21150766158E+02 -0.40132256605E+02  0.28973753447E+02  0.54032594960E+02  0.47000000000E+01 0.  1.
        -11    1    3    3    0    0 -0.30474005429E+02  0.16379578451E+02  0.12375972716E+03  0.12850457448E+03  0.00000000000E+00 0.  1.
         11    1    3    3    0    0  0.52131829893E+02 -0.26067953095E+02  0.13603086461E+03  0.14799210112E+03  0.00000000000E+00 0. -1.
<mgrwt>
<rscale>  0 0.11816532E+03</rscale>
<asrwt>0</asrwt>
<pdfrwt beam="1">  1        1 0.81823958E-01 0.12723542E+03</pdfrwt>
<pdfrwt beam="2">  1       -1 0.36461740E-02 0.12723542E+03</pdfrwt>
<totfact> 0.11107499E+04</totfact>
</mgrwt>
</event>
<event>
 7    1  0.1254976E-005  0.1816288E+03  0.7546771E-02  0.1171974E+00
          1   -1    0    0  501    0  0.00000000000E+00  0.00000000000E+00  0.11019539300E+04  0.11019539300E+04  0.00000000000E+00 0. -1.
         -1   -1    0    0    0  501 -0.00000000000E+00 -0.00000000000E+00 -0.26641846649E+02  0.26641846649E+02  0.00000000000E+00 0.  1.
         23    2    1    2    0    0  0.10617971517E+03  0.78039555571E+02  0.44511483270E+03  0.47274700393E+03  0.89432719304E+02 0.  0.
          5    1    1    2  502    0  0.18133275517E+02 -0.38246309899E+02  0.83104405898E+02  0.93381091135E+02  0.47000000000E+01 0. -1.
         -5    1    1    2    0  502 -0.12431299068E+03 -0.39793245672E+02  0.54709284476E+03  0.56246768160E+03  0.47000000000E+01 0. -1.
        -11    1    3    3    0    0  0.55100609688E+02  0.54939277871E+02  0.12127218994E+03  0.14408797831E+03  0.00000000000E+00 0.  1.
         11    1    3    3    0    0  0.51079105481E+02  0.23100277700E+02  0.32384264276E+03  0.32865902561E+03  0.00000000000E+00 0. -1.
<mgrwt>
<rscale>  0 0.17575701E+03</rscale>
<asrwt>0</asrwt>
<pdfrwt beam="1">  1        1 0.16953134E+00 0.18162885E+03</pdfrwt>
<pdfrwt beam="2">  1       -1 0.40987465E-02 0.18162885E+03</pdfrwt>
<totfact> 0.31645326E+03</totfact>
</mgrwt>
</event>
<event>
 7    1  0.1254976E-005  0.1634803E+03  0.7546771E-02  0.1192017E+00
         -1   -1    0    0    0  501 -0.00000000000E+00  0.00000000000E+00  0.44677839672E+02  0.44677839672E+02  0.00000000000E+00 0.  1.
          1   -1    0    0  501    0  0.00000000000E+00 -0.00000000000E+00 -0.56414734725E+03  0.56414734725E+03  0.00000000000E+00 0. -1.
         23    2    1    2    0    0  0.82192602479E+02  0.65807649531E+02 -0.33206568063E+03  0.36013662392E+03  0.91348240243E+02 0.  0.
          5    1    1    2  502    0 -0.42553489275E+02  0.27146243894E+02 -0.23029825138E+02  0.55679267711E+02  0.47000000000E+01 0. -1.
         -5    1    1    2    0  502 -0.39639113205E+02 -0.92953893425E+02 -0.16437400181E+03  0.19300929529E+03  0.47000000000E+01 0. -1.
        -11    1    3    3    0    0  0.64357396782E+02  0.15665917515E+02 -0.86922758422E+02  0.10928339958E+03  0.00000000000E+00 0.  1.
         11    1    3    3    0    0  0.17835205697E+02  0.50141732016E+02 -0.24514292221E+03  0.25085322434E+03  0.00000000000E+00 0. -1.
<mgrwt>
<rscale>  0 0.15709426E+03</rscale>
<asrwt>0</asrwt>
<pdfrwt beam="2">  1        1 0.86791899E-01 0.16348030E+03</pdfrwt>
<pdfrwt beam="1">  1       -1 0.68735139E-02 0.16348030E+03</pdfrwt>
<totfact> 0.40701329E+03</totfact>
</mgrwt>
</event>
<event>
 6    1  0.1254976E-005  0.1275607E+03  0.7546771E-02  0.1308397E+00
          2   -1    0    0  501    0  0.00000000000E+00  0.00000000000E+00  0.11471109014E+03  0.11471109014E+03  0.00000000000E+00 0. -1.
         -2   -1    0    0    0  501 -0.00000000000E+00 -0.00000000000E+00 -0.10033604442E+03  0.10033604442E+03  0.00000000000E+00 0.  1.
          5    1    1    2  502    0 -0.57833062587E+02 -0.83055614472E+01 -0.12082143489E+01  0.58627598118E+02  0.47000000000E+01 0. -1.
         -5    1    1    2    0  502  0.58637721628E+02  0.73847711807E+01 -0.54629684063E+02  0.80618916042E+02  0.47000000000E+01 0.  1.
        -11    1    1    2    0    0  0.64958517933E+01  0.10512150214E+02  0.55104178250E+02  0.56472753193E+02  0.00000000000E+00 0. -1.
         11    1    1    2    0    0 -0.73005108341E+01 -0.95913599474E+01  0.15108765885E+02  0.19327867204E+02  0.00000000000E+00 0.  1.
<mgrwt>
<rscale>  0 0.87748684E+02</rscale>
<asrwt>0</asrwt>
<pdfrwt beam="1">  1        2 0.17647860E-01 0.12756066E+03</pdfrwt>
<pdfrwt beam="2">  1       -2 0.15436315E-01 0.12756066E+03</pdfrwt>
<totfact> 0.98104924E+03</totfact>
</mgrwt>
</event>
<event>
 6    1  0.1254976E-005  0.1325508E+03  0.7546771E-02  0.1271866E+00
         -2   -1    0    0    0  501 -0.00000000000E+00  0.00000000000E+00  0.16637836453E+02  0.16637836453E+02  0.00000000000E+00 0.  1.
          2   -1    0    0  501    0  0.00000000000E+00 -0.00000000000E+00 -0.54124626769E+03  0.54124626769E+03  0.00000000000E+00 0. -1.
          5    1    1    2  502    0 -0.12665084529E+02  0.43498336426E+02 -0.21414662039E+03  0.21893691937E+03  0.47000000000E+01 0. -1.
         -5    1    1    2    0  502 -0.33222478479E+02 -0.59430410604E+02 -0.90944162956E+02  0.11370416684E+03  0.47000000000E+01 0.  1.
        -11    1    1    2    0    0  0.35684744142E+02  0.12961771002E+02 -0.19255002842E+03  0.19625728501E+03  0.00000000000E+00 0. -1.
         11    1    1    2    0    0  0.10202818865E+02  0.29703031757E+01 -0.26967619465E+02  0.28985732928E+02  0.00000000000E+00 0.  1.
<mgrwt>
<rscale>  0 0.10411851E+03</rscale>
<asrwt>0</asrwt>
<pdfrwt beam="2">  1        2 0.83268636E-01 0.13255077E+03</pdfrwt>
<pdfrwt beam="1">  1       -2 0.25596678E-02 0.13255077E+03</pdfrwt>
<totfact> 0.28508492E+04</totfact>
</mgrwt>
</event>
<event>
 7    1  0.1254976E-005  0.1327872E+03  0.7546771E-02  0.1236273E+00
         -1   -1    0    0    0  501 -0.00000000000E+00  0.00000000000E+00  0.11866590571E+03  0.11866590571E+03  0.00000000000E+00 0.  1.
          1   -1    0    0  501    0  0.00000000000E+00 -0.00000000000E+00 -0.14287743005E+03  0.14287743005E+03  0.00000000000E+00 0. -1.
         23    2    1    2    0    0  0.12212721220E+02  0.43121419960E+02 -0.67251008889E+02  0.12195525018E+03  0.91333331434E+02 0.  0.
          5    1    1    2  502    0 -0.24707154264E+02  0.40470030032E+02  0.21288105145E+02  0.52187548547E+02  0.47000000000E+01 0.  1.
         -5    1    1    2    0  502  0.12494433044E+02 -0.83591449992E+02  0.21751379401E+02  0.87400537039E+02  0.47000000000E+01 0.  1.
        -11    1    3    3    0    0  0.10178953387E+02  0.66356664747E+02 -0.21312298043E+02  0.70434594456E+02  0.00000000000E+00 0.  1.
         11    1    3    3    0    0  0.20337678335E+01 -0.23235244787E+02 -0.45938710847E+02  0.51520655723E+02  0.00000000000E+00 0. -1.
<mgrwt>
<rscale>  0 0.12423292E+03</rscale>
<asrwt>0</asrwt>
<pdfrwt beam="2">  1        1 0.21981143E-01 0.13278718E+03</pdfrwt>
<pdfrwt beam="1">  1       -1 0.18256293E-01 0.13278718E+03</pdfrwt>
<totfact> 0.50424626E+03</totfact>
</mgrwt>
</event>
<event>
 7    1  0.1254976E-005  0.1676410E+03  0.7546771E-02  0.1183797E+00
         -2   -1    0    0    0  501 -0.00000000000E+00  0.00000000000E+00  0.69269843007E+02  0.69269843007E+02  0.00000000000E+00 0.  1.
          2   -1    0    0  501    0  0.00000000000E+00 -0.00000000000E+00 -0.37599817426E+03  0.37599817426E+03  0.00000000000E+00 0. -1.
         23    2    1    2    0    0 -0.71360637780E+02  0.85939366394E+02 -0.14538235823E+03  0.21259650268E+03  0.10762586840E+03 0.  0.
          5    1    1    2  502    0  0.26875498949E+01  0.29770052757E+02 -0.14854498685E+02  0.33707938186E+02  0.47000000000E+01 0.  1.
         -5    1    1    2    0  502  0.68673087885E+02 -0.11570941915E+03 -0.14649147434E+03  0.19896357640E+03  0.47000000000E+01 0.  1.
        -11    1    3    3    0    0 -0.35562814515E+02 -0.21681576665E+02 -0.41399219582E+02  0.58725632606E+02  0.00000000000E+00 0.  1.
         11    1    3    3    0    0 -0.35797823265E+02  0.10762094306E+03 -0.10398313865E+03  0.15387087008E+03  0.00000000000E+00 0. -1.
<mgrwt>
<rscale>  0 0.16441823E+03</rscale>
<asrwt>0</asrwt>
<pdfrwt beam="2">  1        2 0.57845874E-01 0.16764102E+03</pdfrwt>
<pdfrwt beam="1">  1       -2 0.10656899E-01 0.16764102E+03</pdfrwt>
<totfact> 0.49758799E+03</totfact>
</mgrwt>
</event>
<event>
 7    1  0.1254976E-005  0.1520214E+03  0.7546771E-02  0.1206691E+00
          1   -1    0    0  501    0  0.00000000000E+00  0.00000000000E+00  0.69770294307E+03  0.69770294307E+03  0.00000000000E+00 0. -1.
         -1   -1    0    0    0  501 -0.00000000000E+00 -0.00000000000E+00 -0.29334060161E+02  0.29334060161E+02  0.00000000000E+00 0.  1.
         23    2    1    2    0    0  0.83690581806E+02  0.22103087451E+02  0.39020344437E+03  0.41004092451E+03  0.91554201497E+02 0.  0.
          5    1    1    2  502    0  0.19895541492E+02 -0.41746044033E+02  0.84359962655E+02  0.96318523986E+02  0.47000000000E+01 0.  1.
         -5    1    1    2    0  502 -0.10358612330E+03  0.19642956582E+02  0.19380547588E+03  0.22067755473E+03  0.47000000000E+01 0.  1.
        -11    1    3    3    0    0  0.60636174161E+02 -0.18451157209E+01  0.36016321796E+03  0.36523649002E+03  0.00000000000E+00 0.  1.
         11    1    3    3    0    0  0.23054407646E+02  0.23948203172E+02  0.30040226416E+02  0.44804434492E+02  0.00000000000E+00 0. -1.
<mgrwt>
<rscale>  0 0.14504981E+03</rscale>
<asrwt>0</asrwt>
<pdfrwt beam="1">  1        1 0.10733890E+00 0.15202139E+03</pdfrwt>
<pdfrwt beam="2">  1       -1 0.45129329E-02 0.15202139E+03</pdfrwt>
<totfact> 0.56568022E+03</totfact>
</mgrwt>
</event>
<event>
 7    1  0.1254976E-005  0.1253008E+03  0.7546771E-02  0.1249637E+00
         -1   -1    0    0    0  501 -0.00000000000E+00  0.00000000000E+00  0.42317276575E+03  0.42317276575E+03  0.00000000000E+00 0.  1.
          1   -1    0    0  501    0  0.00000000000E+00 -0.00000000000E+00 -0.80393191286E+02  0.80393191286E+02  0.00000000000E+00 0. -1.
         23    2    1    2    0    0 -0.14904337288E+00 -0.85732041460E+01 -0.40068939239E+02  0.10073439386E+03  0.92023780461E+02 0.  0.
          5    1    1    2  502    0 -0.33061803749E+02 -0.10722352907E+02  0.25424855071E+02  0.43319337188E+02  0.47000000000E+01 0. -1.
         -5    1    1    2    0  502  0.33210847122E+02  0.19295557053E+02  0.35742365863E+03  0.35951222599E+03  0.47000000000E+01 0. -1.
        -11    1    3    3    0    0 -0.11118561241E+01 -0.33787310815E+02 -0.59806269698E+02  0.68699406776E+02  0.00000000000E+00 0. -1.
         11    1    3    3    0    0  0.96281275121E+00  0.25214106669E+02  0.19737330459E+02  0.32034987079E+02  0.00000000000E+00 0.  1.
<mgrwt>
<rscale>  0 0.11612069E+03</rscale>
<asrwt>0</asrwt>
<pdfrwt beam="2">  1        1 0.12368184E-01 0.12530077E+03</pdfrwt>
<pdfrwt beam="1">  1       -1 0.65103501E-01 0.12530077E+03</pdfrwt>
<totfact> 0.11710488E+03</totfact>
</mgrwt>
</event>
<event>
 7    1  0.1254976E-005  0.2996517E+03  0.7546771E-02  0.1086784E+00
          2   -1    0    0  501    0  0.00000000000E+00  0.00000000000E+00  0.82329224323E+03  0.82329224323E+03  0.00000000000E+00 0. -1.
         -2   -1    0    0    0  501 -0.00000000000E+00 -0.00000000000E+00 -0.16894777546E+03  0.16894777546E+03  0.00000000000E+00 0.  1.
         23    2    1    2    0    0  0.26191903437E+03  0.74599049013E+02  0.62819246447E+03  0.69144927870E+03  0.96486962398E+02 0.  0.
          5    1    1    2  502    0 -0.62148677023E+02 -0.39601890677E+01 -0.45273071868E+02  0.77135479447E+02  0.47000000000E+01 0.  1.
         -5    1    1    2    0  502 -0.19977035734E+03 -0.70638859945E+02  0.71425075154E+02  0.22365526054E+03  0.47000000000E+01 0.  1.
        -11    1    3    3    0    0  0.19605495825E+03  0.66942861762E+02  0.36166832426E+03  0.41680075596E+03  0.00000000000E+00 0.  1.
         11    1    3    3    0    0  0.65864076117E+02  0.76561872513E+01  0.26652414021E+03  0.27464852274E+03  0.00000000000E+00 0. -1.
<mgrwt>
<rscale>  0 0.29693267E+03</rscale>
<asrwt>0</asrwt>
<pdfrwt beam="1">  1        2 0.12666034E+00 0.29965170E+03</pdfrwt>
<pdfrwt beam="2">  1       -2 0.25991966E-01 0.29965170E+03</pdfrwt>
<totfact> 0.45504580E+02</totfact>
</mgrwt>
</event>
<event>
 7    1  0.1254976E-005  0.1341302E+03  0.7546771E-02  0.1233017E+00
          4   -1    0    0  501    0  0.00000000000E+00  0.00000000000E+00  0.18241634034E+03  0.18241634034E+03  0.00000000000E+00 0. -1.
         -4   -1    0    0    0  501 -0.00000000000E+00 -0.00000000000E+00 -0.97297858073E+02  0.97297858073E+02  0.00000000000E+00 0.  1.
         23    2    1    2    0    0  0.31571286722E+02 -0.37005354048E+02  0.99222008420E+02  0.14484460091E+03  0.93641919489E+02 0.  0.
          5    1    1    2  502    0 -0.29072784048E+02 -0.42899751069E+02 -0.16979399474E+02  0.54735778250E+02  0.47000000000E+01 0.  1.
         -5    1    1    2    0  502 -0.24985026741E+01  0.79905105117E+02  0.28758733167E+01  0.80133819245E+02  0.47000000000E+01 0.  1.
        -11    1    3    3    0    0  0.40390924804E+02 -0.15428543255E+02  0.11071301150E+03  0.11885637412E+03  0.00000000000E+00 0. -1.
         11    1    3    3    0    0 -0.88196380818E+01 -0.21576810793E+02 -0.11491003083E+02  0.25988226791E+02  0.00000000000E+00 0.  1.
<mgrwt>
<rscale>  0 0.12632254E+03</rscale>
<asrwt>0</asrwt>
<pdfrwt beam="1">  1        4 0.28064052E-01 0.13413016E+03</pdfrwt>
<pdfrwt beam="2">  1       -4 0.14968901E-01 0.13413016E+03</pdfrwt>
<totfact> 0.75319310E+02</totfact>
</mgrwt>
</event>
<event>
 7    1  0.1548670E-005  0.2210256E+03  0.7546771E-02  0.1136279E+00
          1   -1    0    0  501    0  0.00000000000E+00  0.00000000000E+00  0.15712574675E+04  0.15712574675E+04  0.00000000000E+00 0. -1.
         -1   -1    0    0    0  501 -0.00000000000E+00 -0.00000000000E+00 -0.28860015617E+02  0.28860015617E+02  0.00000000000E+00 0.  1.
         23    2    1    2    0    0  0.14932330052E+03 -0.10454724595E+03  0.76643000874E+03  0.79328553018E+03  0.93055893829E+02 0.  0.
          5    1    1    2  502    0 -0.14867890787E+01 -0.93081444722E+01  0.20592769277E+01  0.10732321126E+02  0.47000000000E+01 0.  1.
         -5    1    1    2    0  502 -0.14783651144E+03  0.11385539042E+03  0.77390816618E+03  0.79609963179E+03  0.47000000000E+01 0.  1.
        -11    1    3    3    0    0  0.60749728877E+02 -0.70165489898E+02  0.22187896786E+03  0.24050780010E+03  0.00000000000E+00 0.  1.
         11    1    3    3    0    0  0.88573571641E+02 -0.34381756049E+02  0.54455104088E+03  0.55277773007E+03  0.00000000000E+00 0. -1.
<mgrwt>
<rscale>  0 0.21681626E+03</rscale>
<asrwt>0</asrwt>
<pdfrwt beam="1">  1        1 0.24173185E+00 0.22102563E+03</pdfrwt>
<pdfrwt beam="2">  1       -1 0.44400036E-02 0.22102563E+03</pdfrwt>
<totfact> 0.13539097E+03</totfact>
</mgrwt>
</event>
<event>
 7    1  0.1254976E-005  0.1770759E+03  0.7546771E-02  0.1172776E+00
         -1   -1    0    0    0  501 -0.00000000000E+00  0.00000000000E+00  0.22719954658E+03  0.22719954658E+03  0.00000000000E+00 0.  1.
          1   -1    0    0  501    0  0.00000000000E+00 -0.00000000000E+00 -0.13258736100E+03  0.13258736100E+03  0.00000000000E+00 0. -1.
         23    2    1    2    0    0 -0.12540660743E+03 -0.19327395742E+01  0.61729788171E+02  0.17968384503E+03  0.11289448502E+03 0.  0.
          5    1    1    2  502    0  0.11182708115E+03 -0.10376641712E+02 -0.28423423993E+02  0.11594374414E+03  0.47000000000E+01 0. -1.
         -5    1    1    2    0  502  0.13579526273E+02  0.12309381286E+02  0.61305821408E+02  0.64159318419E+02  0.47000000000E+01 0. -1.
        -11    1    3    3    0    0 -0.44127226907E+02  0.33748981735E+02  0.71317056170E+02  0.90400931541E+02  0.00000000000E+00 0.  1.
         11    1    3    3    0    0 -0.81279380520E+02 -0.35681721309E+02 -0.95872679991E+01  0.89282913488E+02  0.00000000000E+00 0. -1.
<mgrwt>
<rscale>  0 0.17495601E+03</rscale>
<asrwt>0</asrwt>
<pdfrwt beam="2">  1        1 0.20398056E-01 0.17707586E+03</pdfrwt>
<pdfrwt beam="1">  1       -1 0.34953776E-01 0.17707586E+03</pdfrwt>
<totfact> 0.19212594E+03</totfact>
</mgrwt>
</event>
<event>
 7    1  0.1254976E-005  0.1589059E+03  0.7546771E-02  0.1197260E+00
         -1   -1    0    0    0  501 -0.00000000000E+00  0.00000000000E+00  0.58009274740E+02  0.58009274740E+02  0.00000000000E+00 0.  1.
          1   -1    0    0  501    0  0.00000000000E+00 -0.00000000000E+00 -0.37333328654E+03  0.37333328654E+03  0.00000000000E+00 0. -1.
         23    2    1    2    0    0  0.71595363606E+02 -0.67081634887E+02 -0.15101707711E+03  0.20276463516E+03  0.93174555884E+02 0.  0.
          5    1    1    2  502    0  0.77428922286E+01  0.32277211322E+01 -0.11487241671E+03  0.11527416312E+03  0.47000000000E+01 0. -1.
         -5    1    1    2    0  502 -0.79338255834E+02  0.63853913755E+02 -0.49434517981E+02  0.11330376299E+03  0.47000000000E+01 0. -1.
        -11    1    3    3    0    0  0.90654997384E+02 -0.45989782269E+02 -0.13825486601E+03  0.17160360311E+03  0.00000000000E+00 0.  1.
         11    1    3    3    0    0 -0.19059633778E+02 -0.21091852618E+02 -0.12762211104E+02  0.31161032057E+02  0.00000000000E+00 0. -1.
<mgrwt>
<rscale>  0 0.15264524E+03</rscale>
<asrwt>0</asrwt>
<pdfrwt beam="2">  1        1 0.57435889E-01 0.15890595E+03</pdfrwt>
<pdfrwt beam="1">  1       -1 0.89245040E-02 0.15890595E+03</pdfrwt>
<totfact> 0.46745000E+03</totfact>
</mgrwt>
</event>
<event>
 7    1  0.1254976E-005  0.1440776E+03  0.7546771E-02  0.1217431E+00
         -2   -1    0    0    0  501 -0.00000000000E+00  0.00000000000E+00  0.58434076597E+02  0.58434076597E+02  0.00000000000E+00 0. -1.
          2   -1    0    0  501    0  0.00000000000E+00 -0.00000000000E+00 -0.37627999075E+03  0.37627999075E+03  0.00000000000E+00 0.  1.
         23    2    1    2    0    0  0.33667634131E+02 -0.63245066865E+02 -0.24812232912E+03  0.27465238410E+03  0.93465468541E+02 0.  0.
          5    1    1    2  502    0  0.44347978638E+02  0.26681236953E+02 -0.50207928097E+01  0.52210439330E+02  0.47000000000E+01 0.  1.
         -5    1    1    2    0  502 -0.78015612769E+02  0.36563829913E+02 -0.64702792217E+02  0.10785124392E+03  0.47000000000E+01 0.  1.
        -11    1    3    3    0    0  0.21694880778E+01 -0.42835259843E+02 -0.22813083694E+03  0.23212764792E+03  0.00000000000E+00 0.  1.
         11    1    3    3    0    0  0.31498146053E+02 -0.20409807023E+02 -0.19991492184E+02  0.42524736181E+02  0.00000000000E+00 0. -1.
<mgrwt>
<rscale>  0 0.13699478E+03</rscale>
<asrwt>0</asrwt>
<pdfrwt beam="2">  1        2 0.57889228E-01 0.14407763E+03</pdfrwt>
<pdfrwt beam="1">  1       -2 0.89898582E-02 0.14407763E+03</pdfrwt>
<totfact> 0.64438670E+03</totfact>
</mgrwt>
</event>
<event>
 7    1  0.1254976E-005  0.1402280E+03  0.7546771E-02  0.1223317E+00
         -4   -1    0    0    0  501 -0.00000000000E+00  0.00000000000E+00  0.36918515344E+03  0.36918515344E+03  0.00000000000E+00 0. -1.
          4   -1    0    0  501    0  0.00000000000E+00 -0.00000000000E+00 -0.46187965977E+02  0.46187965977E+02  0.00000000000E+00 0.  1.
         23    2    1    2    0    0 -0.55434333376E+02  0.31047801587E+02  0.94248394751E+02  0.14706379391E+03  0.93317030947E+02 0.  0.
          5    1    1    2  502    0  0.18082554560E+02 -0.75958997421E+02  0.10090526821E+03  0.12767423867E+03  0.47000000000E+01 0. -1.
         -5    1    1    2    0  502  0.37351778816E+02  0.44911195835E+02  0.12784352451E+03  0.14063508684E+03  0.47000000000E+01 0. -1.
        -11    1    3    3    0    0 -0.10727196874E+02 -0.25749209015E+02 -0.49175475094E+00  0.27898679905E+02  0.00000000000E+00 0.  1.
         11    1    3    3    0    0 -0.44707136502E+02  0.56797010602E+02  0.94740149502E+02  0.11916511400E+03  0.00000000000E+00 0. -1.
<mgrwt>
<rscale>  0 0.13282917E+03</rscale>
<asrwt>0</asrwt>
<pdfrwt beam="2">  1        4 0.71058412E-02 0.14022797E+03</pdfrwt>
<pdfrwt beam="1">  1       -4 0.56797714E-01 0.14022797E+03</pdfrwt>
<totfact> 0.66759160E+02</totfact>
</mgrwt>
</event>
<event>
 7    1  0.1254976E-005  0.1632245E+03  0.7546771E-02  0.1192357E+00
          1   -1    0    0  501    0  0.00000000000E+00  0.00000000000E+00  0.27398881275E+03  0.27398881275E+03  0.00000000000E+00 0. -1.
         -1   -1    0    0    0  501 -0.00000000000E+00 -0.00000000000E+00 -0.86560905873E+02  0.86560905873E+02  0.00000000000E+00 0.  1.
         23    2    1    2    0    0  0.96076510627E+02  0.42307873238E+02  0.12111633059E+03  0.18436949989E+03  0.91116929938E+02 0.  0.
          5    1    1    2  502    0 -0.15396799670E+02  0.42474160811E+02  0.11473493750E+02  0.46849192475E+02  0.47000000000E+01 0.  1.
         -5    1    1    2    0  502 -0.80679710957E+02 -0.84782034049E+02  0.54838082540E+02  0.12933102626E+03  0.47000000000E+01 0.  1.
        -11    1    3    3    0    0  0.21116629925E+02 -0.25111171554E+02  0.99279316750E+01  0.34278955986E+02  0.00000000000E+00 0.  1.
         11    1    3    3    0    0  0.74959880702E+02  0.67419044791E+02  0.11118839891E+03  0.15009054390E+03  0.00000000000E+00 0. -1.
<mgrwt>
<rscale>  0 0.15680078E+03</rscale>
<asrwt>0</asrwt>
<pdfrwt beam="1">  1        1 0.42152125E-01 0.16322452E+03</pdfrwt>
<pdfrwt beam="2">  1       -1 0.13317063E-01 0.16322452E+03</pdfrwt>
<totfact> 0.37175846E+03</totfact>
</mgrwt>
</event>
<event>
 7    1  0.1254976E-005  0.1849457E+03  0.7546771E-02  0.1168445E+00
         -1   -1    0    0    0  501 -0.00000000000E+00  0.00000000000E+00  0.38894677445E+02  0.38894677445E+02  0.00000000000E+00 0.  1.
          1   -1    0    0  501    0  0.00000000000E+00 -0.00000000000E+00 -0.10176927039E+04  0.10176927039E+04  0.00000000000E+00 0. -1.
         23    2    1    2    0    0 -0.90327746620E+02  0.10201285516E+03 -0.72100634277E+03  0.73931544824E+03  0.90396135194E+02 0.  0.
          5    1    1    2  502    0  0.11582531896E+03 -0.63838520237E+02 -0.15008639421E+03  0.20009716866E+03  0.47000000000E+01 0.  1.
         -5    1    1    2    0  502 -0.25497572341E+02 -0.38174334925E+02 -0.10770528943E+03  0.11717476440E+03  0.47000000000E+01 0.  1.
        -11    1    3    3    0    0 -0.67449185065E+02  0.14888679608E+02 -0.23129797676E+03  0.24139142363E+03  0.00000000000E+00 0.  1.
         11    1    3    3    0    0 -0.22878561555E+02  0.87124175553E+02 -0.48970836601E+03  0.49792402461E+03  0.00000000000E+00 0. -1.
<mgrwt>
<rscale>  0 0.17933816E+03</rscale>
<asrwt>0</asrwt>
<pdfrwt beam="2">  1        1 0.15656810E+00 0.18494574E+03</pdfrwt>
<pdfrwt beam="1">  1       -1 0.59837968E-02 0.18494574E+03</pdfrwt>
<totfact> 0.20724489E+03</totfact>
</mgrwt>
</event>
<event>
 7    1  0.1254976E-005  0.1385121E+03  0.7546771E-02  0.1232537E+00
          2   -1    0    0  501    0  0.00000000000E+00  0.00000000000E+00  0.44681063774E+02  0.44681063774E+02  0.00000000000E+00 0.  1.
         -2   -1    0    0    0  501 -0.00000000000E+00 -0.00000000000E+00 -0.31152079675E+03  0.31152079675E+03  0.00000000000E+00 0. -1.
         23    2    1    2    0    0 -0.13681389347E+02  0.58193548961E+02 -0.96627969906E+02  0.13675334833E+03  0.76097596260E+02 0.  0.
          5    1    1    2  502    0  0.19338683258E+02  0.28397535320E+02 -0.82497774961E+01  0.35644824465E+02  0.47000000000E+01 0. -1.
         -5    1    1    2    0  502 -0.56572939117E+01 -0.86591084281E+02 -0.16196198557E+03  0.18380368772E+03  0.47000000000E+01 0. -1.
        -11    1    3    3    0    0  0.54580895674E+01  0.22847845406E+02  0.78839451927E+01  0.24778445739E+02  0.00000000000E+00 0.  1.
         11    1    3    3    0    0 -0.19139478914E+02  0.35345703554E+02 -0.10451191510E+03  0.11197490259E+03  0.00000000000E+00 0. -1.
<mgrwt>
<rscale>  0 0.12663433E+03</rscale>
<asrwt>0</asrwt>
<pdfrwt beam="1">  1        2 0.68740097E-02 0.13851211E+03</pdfrwt>
<pdfrwt beam="2">  1       -2 0.47926277E-01 0.13851211E+03</pdfrwt>
<totfact> 0.41251695E+03</totfact>
</mgrwt>
</event>
<event>
 7    1  0.1254976E-005  0.1462257E+03  0.7546771E-02  0.1214313E+00
         -1   -1    0    0    0  501 -0.00000000000E+00  0.00000000000E+00  0.97477202194E+02  0.97477202194E+02  0.00000000000E+00 0.  1.
          1   -1    0    0  501    0  0.00000000000E+00 -0.00000000000E+00 -0.18672492062E+03  0.18672492062E+03  0.00000000000E+00 0. -1.
         23    2    1    2    0    0  0.17727563847E+02 -0.73755122245E+02 -0.18443941484E+02  0.12173638460E+03  0.93410298042E+02 0.  0.
          5    1    1    2  502    0  0.65563739613E+00  0.12986918998E+02 -0.93773189068E+02  0.94787081996E+02  0.47000000000E+01 0. -1.
         -5    1    1    2    0  502 -0.18383201243E+02  0.60768203246E+02  0.22969412129E+02  0.67678656217E+02  0.47000000000E+01 0. -1.
        -11    1    3    3    0    0 -0.23098769884E+02 -0.71810999607E+02  0.31692886060E+01  0.75501107442E+02  0.00000000000E+00 0.  1.
         11    1    3    3    0    0  0.40826333731E+02 -0.19441226376E+01 -0.21613230090E+02  0.46235277156E+02  0.00000000000E+00 0. -1.
<mgrwt>
<rscale>  0 0.13927146E+03</rscale>
<asrwt>0</asrwt>
<pdfrwt beam="2">  1        1 0.28726910E-01 0.14622565E+03</pdfrwt>
<pdfrwt beam="1">  1       -1 0.14996493E-01 0.14622565E+03</pdfrwt>
<totfact> 0.49449471E+03</totfact>
</mgrwt>
</event>
<event>
 7    1  0.1254976E-005  0.1582853E+03  0.7546771E-02  0.1213065E+00
         -1   -1    0    0    0  501 -0.00000000000E+00  0.00000000000E+00  0.49144922632E+02  0.49144922632E+02  0.00000000000E+00 0.  1.
          1   -1    0    0  501    0  0.00000000000E+00 -0.00000000000E+00 -0.36260991656E+03  0.36260991656E+03  0.00000000000E+00 0. -1.
         23    2    1    2    0    0 -0.11389202089E+01 -0.85943730099E+01 -0.18017563279E+03  0.20482419495E+03  0.97028510252E+02 0.  0.
          5    1    1    2  502    0 -0.85114405620E+01  0.51818625666E+02  0.12757055680E+02  0.54244327408E+02  0.47000000000E+01 0. -1.
         -5    1    1    2    0  502  0.96503607709E+01 -0.43224252656E+02 -0.14604641682E+03  0.15268631683E+03  0.47000000000E+01 0.  1.
        -11    1    3    3    0    0 -0.36952772951E+02 -0.53079312549E+01 -0.23588181831E+02  0.44159754133E+02  0.00000000000E+00 0.  1.
         11    1    3    3    0    0  0.35813852742E+02 -0.32864417550E+01 -0.15658745096E+03  0.16066444082E+03  0.00000000000E+00 0. -1.
<mgrwt>
<rscale>  0 0.14019643E+03</rscale>
<asrwt>0</asrwt>
<pdfrwt beam="2">  1        1 0.55786139E-01 0.15828530E+03</pdfrwt>
<pdfrwt beam="1">  1       -1 0.75607576E-02 0.15828530E+03</pdfrwt>
<totfact> 0.62342336E+03</totfact>
</mgrwt>
</event>
<event>
 7    1  0.1254976E-005  0.1228735E+03  0.7546771E-02  0.1245846E+00
          1   -1    0    0  501    0  0.00000000000E+00  0.00000000000E+00  0.33556638674E+03  0.33556638674E+03  0.00000000000E+00 0. -1.
         -1   -1    0    0    0  501 -0.00000000000E+00 -0.00000000000E+00 -0.85067554997E+02  0.85067554997E+02  0.00000000000E+00 0.  1.
         23    2    1    2    0    0 -0.29055927786E+02  0.45271109615E+02  0.27562709780E+03  0.29521729557E+03  0.91045231927E+02 0.  0.
          5    1    1    2  502    0  0.47085535497E+02 -0.41735797763E+00  0.26743398750E+02  0.54355507701E+02  0.47000000000E+01 0. -1.
         -5    1    1    2    0  502 -0.18029607711E+02 -0.44853751638E+02 -0.51871664807E+02  0.71061138466E+02  0.47000000000E+01 0.  1.
        -11    1    3    3    0    0  0.23913793399E+02  0.14061002550E+02  0.25621074303E+02  0.37762689998E+02  0.00000000000E+00 0.  1.
         11    1    3    3    0    0 -0.52969721185E+02  0.31210107065E+02  0.25000602350E+03  0.25745460557E+03  0.00000000000E+00 0. -1.
<mgrwt>
<rscale>  0 0.11834866E+03</rscale>
<asrwt>0</asrwt>
<pdfrwt beam="1">  1        1 0.51625597E-01 0.12287353E+03</pdfrwt>
<pdfrwt beam="2">  1       -1 0.13087316E-01 0.12287353E+03</pdfrwt>
<totfact> 0.29318176E+03</totfact>
</mgrwt>
</event>
<event>
 7    1  0.1254976E-005  0.1264584E+03  0.7546771E-02  0.1247625E+00
          3   -1    0    0  501    0  0.00000000000E+00  0.00000000000E+00  0.70501698186E+02  0.70501698186E+02  0.00000000000E+00 0. -1.
         -3   -1    0    0    0  501 -0.00000000000E+00 -0.00000000000E+00 -0.23433583315E+03  0.23433583315E+03  0.00000000000E+00 0.  1.
         23    2    1    2    0    0 -0.19100948570E+02 -0.11386236209E+01  0.51837483414E+01  0.93748028942E+02  0.91627937790E+02 0.  0.
          5    1    1    2  502    0  0.39392198955E+02 -0.11282891129E+02 -0.17985751901E+03  0.18452605809E+03  0.47000000000E+01 0.  1.
         -5    1    1    2    0  502 -0.20291250386E+02  0.12421514750E+02  0.10839635705E+02  0.26563444301E+02  0.47000000000E+01 0.  1.
        -11    1    3    3    0    0 -0.10169695731E+02  0.44198974737E+02 -0.71678965893E+01  0.45916781470E+02  0.00000000000E+00 0.  1.
         11    1    3    3    0    0 -0.89312528388E+01 -0.45337598358E+02  0.12351644931E+02  0.47831247471E+02  0.00000000000E+00 0. -1.
<mgrwt>
<rscale>  0 0.11729652E+03</rscale>
<asrwt>0</asrwt>
<pdfrwt beam="1">  1        3 0.10846415E-01 0.12645842E+03</pdfrwt>
<pdfrwt beam="2">  1       -3 0.36051666E-01 0.12645842E+03</pdfrwt>
<totfact> 0.11129515E+03</totfact>
</mgrwt>
</event>
<event>
 7    1  0.1254976E-005  0.1354588E+03  0.7546771E-02  0.1232693E+00
          1   -1    0    0  501    0  0.00000000000E+00  0.00000000000E+00  0.10563495862E+03  0.10563495862E+03  0.00000000000E+00 0. -1.
         -1   -1    0    0    0  501 -0.00000000000E+00 -0.00000000000E+00 -0.13475784876E+03  0.13475784876E+03  0.00000000000E+00 0.  1.
         23    2    1    2    0    0 -0.20094231837E+02 -0.48187495647E+02 -0.10665405528E+02  0.10368232619E+03  0.88940772425E+02 0.  0.
          5    1    1    2  502    0 -0.61775428349E+01  0.13451585874E+02  0.51710047804E+02  0.53991909041E+02  0.47000000000E+01 0. -1.
         -5    1    1    2    0  502  0.26271774671E+02  0.34735909773E+02 -0.70167532422E+02  0.82718572149E+02  0.47000000000E+01 0. -1.
        -11    1    3    3    0    0 -0.22999763761E+02  0.56742585023E+00 -0.40407212417E+02  0.46497891570E+02  0.00000000000E+00 0.  1.
         11    1    3    3    0    0  0.29055319248E+01 -0.48754921497E+02  0.29741806889E+02  0.57184434622E+02  0.00000000000E+00 0. -1.
<mgrwt>
<rscale>  0 0.12653306E+03</rscale>
<asrwt>0</asrwt>
<pdfrwt beam="1">  1        1 0.16251532E-01 0.13545876E+03</pdfrwt>
<pdfrwt beam="2">  1       -1 0.20731977E-01 0.13545876E+03</pdfrwt>
<totfact> 0.60538969E+03</totfact>
</mgrwt>
</event>
<event>
 6    1  0.1254976E-005  0.4779303E+03  0.7546771E-02  0.1019706E+00
          1   -1    0    0  501    0  0.00000000000E+00  0.00000000000E+00  0.13291283721E+04  0.13291283721E+04  0.00000000000E+00 0. -1.
         -1   -1    0    0    0  501 -0.00000000000E+00 -0.00000000000E+00 -0.42963749688E+02  0.42963749688E+02  0.00000000000E+00 0.  1.
          5    1    1    2  502    0  0.27834172739E+01  0.17872635830E+01 -0.13213237472E+02  0.14409072396E+02  0.47000000000E+01 0.  1.
         -5    1    1    2    0  502 -0.51302163283E+02 -0.67243847201E+02  0.26565777045E+03  0.27883648962E+03  0.47000000000E+01 0.  1.
        -11    1    1    2    0    0 -0.11831922941E+03  0.55604174444E+01  0.27026089779E+03  0.29507848306E+03  0.00000000000E+00 0.  1.
         11    1    1    2    0    0  0.16683797542E+03  0.59896166173E+02  0.76345919168E+03  0.78376807674E+03  0.00000000000E+00 0. -1.
<mgrwt>
<rscale>  0 0.47793028E+03</rscale>
<asrwt>0</asrwt>
<pdfrwt beam="1">  1        1 0.20448126E+00 0.47793028E+03</pdfrwt>
<pdfrwt beam="2">  1       -1 0.66098087E-02 0.47793028E+03</pdfrwt>
<totfact> 0.10658037E+03</totfact>
</mgrwt>
</event>
<event>
 7    1  0.1254976E-005  0.1616923E+03  0.7546771E-02  0.1194251E+00
          3   -1    0    0  501    0  0.00000000000E+00  0.00000000000E+00  0.30609826037E+02  0.30609826037E+02  0.00000000000E+00 0. -1.
         -3   -1    0    0    0  501 -0.00000000000E+00 -0.00000000000E+00 -0.72951651866E+03  0.72951651866E+03  0.00000000000E+00 0.  1.
         23    2    1    2    0    0  0.34430764539E+02  0.96626750047E+02 -0.32329467792E+03  0.35119020121E+03  0.91065373653E+02 0.  0.
          5    1    1    2  502    0 -0.64808460267E+02 -0.65568942367E+02 -0.34075929518E+03  0.35304165473E+03  0.47000000000E+01 0. -1.
         -5    1    1    2    0  502  0.30377695727E+02 -0.31057807680E+02 -0.34852719524E+02  0.55894488761E+02  0.47000000000E+01 0. -1.
        -11    1    3    3    0    0  0.54697753994E+02  0.32188011429E+02 -0.10507635551E+03  0.12275566325E+03  0.00000000000E+00 0. -1.
         11    1    3    3    0    0 -0.20266989455E+02  0.64438738618E+02 -0.21821832241E+03  0.22843453796E+03  0.00000000000E+00 0.  1.
<mgrwt>
<rscale>  0 0.15517803E+03</rscale>
<asrwt>0</asrwt>
<pdfrwt beam="1">  1        3 0.47092043E-02 0.16169225E+03</pdfrwt>
<pdfrwt beam="2">  1       -3 0.11223330E+00 0.16169225E+03</pdfrwt>
<totfact> 0.41332520E+02</totfact>
</mgrwt>
</event>
<event>
 7    1  0.1254976E-005  0.2122423E+03  0.7546771E-02  0.1143404E+00
          2   -1    0    0  501    0  0.00000000000E+00  0.00000000000E+00  0.36316457209E+03  0.36316457209E+03  0.00000000000E+00 0. -1.
         -2   -1    0    0    0  501 -0.00000000000E+00 -0.00000000000E+00 -0.14593580912E+03  0.14593580912E+03  0.00000000000E+00 0.  1.
         23    2    1    2    0    0  0.15170665825E+03  0.80036217187E+02  0.22400753131E+03  0.29674982154E+03  0.91980303791E+02 0.  0.
          5    1    1    2  502    0 -0.47060745176E+02  0.30764683284E+02  0.14859271248E+02  0.58344386329E+02  0.47000000000E+01 0. -1.
         -5    1    1    2    0  502 -0.10464591307E+03 -0.11080090047E+03 -0.21638039582E+02  0.15400617333E+03  0.47000000000E+01 0. -1.
        -11    1    3    3    0    0  0.95592184634E+02  0.76076302430E+01  0.74634714613E+02  0.12151577028E+03  0.00000000000E+00 0.  1.
         11    1    3    3    0    0  0.56114473614E+02  0.72428586944E+02  0.14937281669E+03  0.17523405126E+03  0.00000000000E+00 0. -1.
<mgrwt>
<rscale>  0 0.20769537E+03</rscale>
<asrwt>0</asrwt>
<pdfrwt beam="1">  1        2 0.55871472E-01 0.21224233E+03</pdfrwt>
<pdfrwt beam="2">  1       -2 0.22451663E-01 0.21224233E+03</pdfrwt>
<totfact> 0.15173890E+03</totfact>
</mgrwt>
</event>
<event>
 7    1  0.1254976E-005  0.1893908E+03  0.7546771E-02  0.1163721E+00
          2   -1    0    0  501    0  0.00000000000E+00  0.00000000000E+00  0.17963758911E+04  0.17963758911E+04  0.00000000000E+00 0. -1.
         -2   -1    0    0    0  501 -0.00000000000E+00 -0.00000000000E+00 -0.20345350527E+02  0.20345350527E+02  0.00000000000E+00 0.  1.
         23    2    1    2    0    0 -0.10627079557E+03  0.94602358469E+02  0.53409585448E+03  0.56042882109E+03  0.92622856361E+02 0.  0.
          5    1    1    2  502    0  0.21235524627E+01 -0.55125746682E+02  0.74279765348E+03  0.74485824251E+03  0.47000000000E+01 0. -1.
         -5    1    1    2    0  502  0.10414724310E+03 -0.39476611787E+02  0.49913703266E+03  0.51143417807E+03  0.47000000000E+01 0. -1.
        -11    1    3    3    0    0 -0.90799646434E+02  0.67581370008E+02  0.50594961248E+03  0.51845619655E+03  0.00000000000E+00 0. -1.
         11    1    3    3    0    0 -0.15471149132E+02  0.27020988460E+02  0.28146241998E+02  0.41972624548E+02  0.00000000000E+00 0.  1.
<mgrwt>
<rscale>  0 0.18428282E+03</rscale>
<asrwt>0</asrwt>
<pdfrwt beam="1">  1        2 0.27636540E+00 0.18939082E+03</pdfrwt>
<pdfrwt beam="2">  1       -2 0.31300553E-02 0.18939082E+03</pdfrwt>
<totfact> 0.37710823E+03</totfact>
</mgrwt>
</event>
<event>
 7    1  0.1254976E-005  0.4188315E+03  0.7546771E-02  0.1038206E+00
          1   -1    0    0  501    0  0.00000000000E+00  0.00000000000E+00  0.21197595365E+04  0.21197595365E+04  0.00000000000E+00 0. -1.
         -1   -1    0    0    0  501 -0.00000000000E+00 -0.00000000000E+00 -0.81430240224E+02  0.81430240224E+02  0.00000000000E+00 0.  1.
         23    2    1    2    0    0  0.37624227225E+02  0.39797000073E+03  0.92353169188E+03  0.10103104808E+04  0.89558794837E+02 0.  0.
          5    1    1    2  502    0  0.33801916196E+02 -0.23831204678E+03  0.57265550023E+03  0.62120174913E+03  0.47000000000E+01 0. -1.
         -5    1    1    2    0  502 -0.71426143421E+02 -0.15965795395E+03  0.54214210413E+03  0.56967754677E+03  0.47000000000E+01 0. -1.
        -11    1    3    3    0    0 -0.26495555175E+02  0.78967308211E+02  0.21766494614E+03  0.23305767309E+03  0.00000000000E+00 0.  1.
         11    1    3    3    0    0  0.64119782400E+02  0.31900269252E+03  0.70586674575E+03  0.77725280770E+03  0.00000000000E+00 0. -1.
<mgrwt>
<rscale>  0 0.41651803E+03</rscale>
<asrwt>0</asrwt>
<pdfrwt beam="1">  1        1 0.32611681E+00 0.41883147E+03</pdfrwt>
<pdfrwt beam="2">  1       -1 0.12527731E-01 0.41883147E+03</pdfrwt>
<totfact> 0.11729794E+02</totfact>
</mgrwt>
</event>
<event>
 7    1  0.1254976E-005  0.2293788E+03  0.7546771E-02  0.1127078E+00
          3   -1    0    0  501    0  0.00000000000E+00  0.00000000000E+00  0.11935827658E+03  0.11935827658E+03  0.00000000000E+00 0. -1.
         -3   -1    0    0    0  501 -0.00000000000E+00 -0.00000000000E+00 -0.11020312015E+03  0.11020312015E+03  0.00000000000E+00 0.  1.
         23    2    1    2    0    0 -0.53442245631E+01  0.21940974647E+02 -0.43034625596E+01  0.94666481244E+02  0.91832759822E+02 0.  0.
          5    1    1    2  502    0  0.53237410091E+02 -0.54332340010E+02  0.78264200304E+01  0.76613104980E+02  0.47000000000E+01 0. -1.
         -5    1    1    2    0  502 -0.47893185527E+02  0.32391365364E+02  0.56321989629E+01  0.58281810501E+02  0.47000000000E+01 0.  1.
        -11    1    3    3    0    0 -0.26082282332E+02 -0.11230087238E+01 -0.39755950063E+02  0.47561351596E+02  0.00000000000E+00 0.  1.
         11    1    3    3    0    0  0.20738057769E+02  0.23063983371E+02  0.35452487503E+02  0.47105129648E+02  0.00000000000E+00 0. -1.
<mgrwt>
<rscale>  0 0.22937877E+03</rscale>
<asrwt>0</asrwt>
<pdfrwt beam="1">  1        3 0.18362812E-01 0.22937877E+03</pdfrwt>
<pdfrwt beam="2">  1       -3 0.16954326E-01 0.22937877E+03</pdfrwt>
<totfact> 0.19508800E+03</totfact>
</mgrwt>
</event>
<event>
 7    1  0.1254976E-005  0.1330754E+03  0.7546771E-02  0.1236501E+00
         -2   -1    0    0    0  501 -0.00000000000E+00  0.00000000000E+00  0.33942868643E+02  0.33942868643E+02  0.00000000000E+00 0. -1.
          2   -1    0    0  501    0  0.00000000000E+00 -0.00000000000E+00 -0.40254451215E+03  0.40254451215E+03  0.00000000000E+00 0.  1.
         23    2    1    2    0    0 -0.44714842886E+02 -0.92934252036E+01 -0.16500927006E+03  0.19326130255E+03  0.89644224203E+02 0.  0.
          5    1    1    2  502    0 -0.11216592706E+02  0.57692643496E+02 -0.89782753718E+02  0.10741175881E+03  0.47000000000E+01 0. -1.
         -5    1    1    2    0  502  0.55931435592E+02 -0.48399218292E+02 -0.11380961973E+03  0.13581431943E+03  0.47000000000E+01 0. -1.
        -11    1    3    3    0    0  0.19211537154E+02 -0.13875032547E+02 -0.10371430085E+02  0.25868247911E+02  0.00000000000E+00 0. -1.
         11    1    3    3    0    0 -0.63926380039E+02  0.45816073434E+01 -0.15463783997E+03  0.16739305464E+03  0.00000000000E+00 0.  1.
<mgrwt>
<rscale>  0 0.12408835E+03</rscale>
<asrwt>0</asrwt>
<pdfrwt beam="2">  1        2 0.61929926E-01 0.13307543E+03</pdfrwt>
<pdfrwt beam="1">  1       -2 0.52219797E-02 0.13307543E+03</pdfrwt>
<totfact> 0.13691792E+04</totfact>
</mgrwt>
</event>
<event>
 7    1  0.1254976E-005  0.1312948E+03  0.7546771E-02  0.1241943E+00
          1   -1    0    0  501    0  0.00000000000E+00  0.00000000000E+00  0.20134123178E+03  0.20134123178E+03  0.00000000000E+00 0. -1.
         -1   -1    0    0    0  501 -0.00000000000E+00 -0.00000000000E+00 -0.63331478413E+02  0.63331478413E+02  0.00000000000E+00 0.  1.
         23    2    1    2    0    0  0.25887653660E+02  0.97596153276E+01  0.46847870847E+02  0.10483275979E+03  0.89608949440E+02 0.  0.
          5    1    1    2  502    0 -0.86190170812E+00 -0.67585482711E+02  0.41280005936E+02  0.79338951581E+02  0.47000000000E+01 0. -1.
         -5    1    1    2    0  502 -0.25025751952E+02  0.57825867384E+02  0.49881876586E+02  0.80500998821E+02  0.47000000000E+01 0.  1.
        -11    1    3    3    0    0  0.41885032997E+02 -0.26207146530E+02  0.42605012149E+02  0.65240766233E+02  0.00000000000E+00 0. -1.
         11    1    3    3    0    0 -0.15997379338E+02  0.35966761857E+02  0.42428586978E+01  0.39591993561E+02  0.00000000000E+00 0.  1.
<mgrwt>
<rscale>  0 0.12070249E+03</rscale>
<asrwt>0</asrwt>
<pdfrwt beam="1">  1        1 0.30975574E-01 0.13129479E+03</pdfrwt>
<pdfrwt beam="2">  1       -1 0.97433045E-02 0.13129479E+03</pdfrwt>
<totfact> 0.87032867E+03</totfact>
</mgrwt>
</event>
<event>
 7    1  0.3214887E-005  0.3718620E+03  0.7546771E-02  0.1054957E+00
          1   -1    0    0  501    0  0.00000000000E+00  0.00000000000E+00  0.35540897797E+03  0.35540897797E+03  0.00000000000E+00 0. -1.
         -1   -1    0    0    0  501 -0.00000000000E+00 -0.00000000000E+00 -0.44388123171E+03  0.44388123171E+03  0.00000000000E+00 0.  1.
         23    2    1    2    0    0  0.29589156191E+03  0.18736157540E+03  0.10956116210E+03  0.37798440284E+03  0.90622205897E+02 0.  0.
          5    1    1    2  502    0 -0.10058504104E+03 -0.13692533436E+03 -0.85027546917E+02  0.19004649801E+03  0.47000000000E+01 0.  1.
         -5    1    1    2    0  502 -0.19530652087E+03 -0.50436241035E+02 -0.11300586893E+03  0.23125930882E+03  0.47000000000E+01 0.  1.
        -11    1    3    3    0    0  0.18886703228E+03  0.95367592347E+02  0.23976671564E+02  0.21293335655E+03  0.00000000000E+00 0. -1.
         11    1    3    3    0    0  0.10702452964E+03  0.91993983052E+02  0.85584490539E+02  0.16505104629E+03  0.00000000000E+00 0.  1.
<mgrwt>
<rscale>  0 0.36930975E+03</rscale>
<asrwt>0</asrwt>
<pdfrwt beam="1">  1        1 0.54678305E-01 0.37186200E+03</pdfrwt>
<pdfrwt beam="2">  1       -1 0.68289420E-01 0.37186200E+03</pdfrwt>
<totfact> 0.15872544E+02</totfact>
</mgrwt>
</event>
<event>
 7    1  0.1254976E-005  0.1416520E+03  0.7546771E-02  0.1224462E+00
         -2   -1    0    0    0  501 -0.00000000000E+00  0.00000000000E+00  0.15902787913E+02  0.15902787913E+02  0.00000000000E+00 0.  1.
          2   -1    0    0  501    0  0.00000000000E+00 -0.00000000000E+00 -0.98220805852E+03  0.98220805852E+03  0.00000000000E+00 0. -1.
         23    2    1    2    0    0  0.57357223395E+02  0.17225529488E+01 -0.46807199705E+03  0.48013237545E+03  0.90237936971E+02 0.  0.
          5    1    1    2  502    0 -0.56094605100E+02  0.36804615312E+02 -0.45467839555E+03  0.45962562788E+03  0.47000000000E+01 0. -1.
         -5    1    1    2    0  502 -0.12626182948E+01 -0.38527168261E+02 -0.43554878004E+02  0.58352843093E+02  0.47000000000E+01 0.  1.
        -11    1    3    3    0    0  0.67676490882E+02  0.26306793979E+02 -0.40798200368E+03  0.41439289346E+03  0.00000000000E+00 0. -1.
         11    1    3    3    0    0 -0.10319267487E+02 -0.24584241030E+02 -0.60089993371E+02  0.65739481986E+02  0.00000000000E+00 0.  1.
<mgrwt>
<rscale>  0 0.13203832E+03</rscale>
<asrwt>0</asrwt>
<pdfrwt beam="2">  1        2 0.15110889E+00 0.14165204E+03</pdfrwt>
<pdfrwt beam="1">  1       -2 0.24465835E-02 0.14165204E+03</pdfrwt>
<totfact> 0.14842151E+04</totfact>
</mgrwt>
</event>
<event>
 7    1  0.1254976E-005  0.1302068E+03  0.7546771E-02  0.1242571E+00
         -2   -1    0    0    0  501 -0.00000000000E+00  0.00000000000E+00  0.23382218739E+03  0.23382218739E+03  0.00000000000E+00 0.  1.
          2   -1    0    0  501    0  0.00000000000E+00 -0.00000000000E+00 -0.54599004051E+02  0.54599004051E+02  0.00000000000E+00 0. -1.
         23    2    1    2    0    0 -0.18962295880E+02 -0.31115866190E+02  0.63467865070E+02  0.11419975695E+03  0.87667832164E+02 0.  0.
          5    1    1    2  502    0  0.59021313548E+02  0.11818940475E+02  0.11455640954E+03  0.12949310319E+03  0.47000000000E+01 0.  1.
         -5    1    1    2    0  502 -0.40059017668E+02  0.19296925715E+02  0.11989087222E+01  0.44728331298E+02  0.47000000000E+01 0.  1.
        -11    1    3    3    0    0 -0.11600935426E+02 -0.55166114843E+02  0.68329920337E+02  0.88582503593E+02  0.00000000000E+00 0.  1.
         11    1    3    3    0    0 -0.73613604541E+01  0.24050248652E+02 -0.48620552668E+01  0.25617253354E+02  0.00000000000E+00 0. -1.
<mgrwt>
<rscale>  0 0.12031962E+03</rscale>
<asrwt>0</asrwt>
<pdfrwt beam="2">  1        2 0.83998469E-02 0.13020681E+03</pdfrwt>
<pdfrwt beam="1">  1       -2 0.35972644E-01 0.13020681E+03</pdfrwt>
<totfact> 0.55111438E+03</totfact>
</mgrwt>
</event>
<event>
 7    1  0.1254976E-005  0.2042408E+03  0.7546771E-02  0.1150270E+00
         -2   -1    0    0    0  501 -0.00000000000E+00  0.00000000000E+00  0.62240900033E+02  0.62240900033E+02  0.00000000000E+00 0.  1.
          2   -1    0    0  501    0  0.00000000000E+00 -0.00000000000E+00 -0.70129451037E+03  0.70129451037E+03  0.00000000000E+00 0. -1.
         23    2    1    2    0    0 -0.11929916978E+03  0.10889022534E+03 -0.44375284403E+03  0.48094610887E+03  0.91121896198E+02 0.  0.
          5    1    1    2  502    0  0.99621796337E+02 -0.89192647057E+02 -0.64055328113E+02  0.14834084284E+03  0.47000000000E+01 0.  1.
         -5    1    1    2    0  502  0.19677373440E+02 -0.19697578278E+02 -0.13124543819E+03  0.13424845869E+03  0.47000000000E+01 0.  1.
        -11    1    3    3    0    0 -0.22178942681E+02 -0.38618019873E+01 -0.14872476952E+02  0.26981652724E+02  0.00000000000E+00 0.  1.
         11    1    3    3    0    0 -0.97120227097E+02  0.11275202732E+03 -0.42888036708E+03  0.45396445614E+03  0.00000000000E+00 0. -1.
<mgrwt>
<rscale>  0 0.19937240E+03</rscale>
<asrwt>0</asrwt>
<pdfrwt beam="2">  1        2 0.10789145E+00 0.20424085E+03</pdfrwt>
<pdfrwt beam="1">  1       -2 0.95755239E-02 0.20424085E+03</pdfrwt>
<totfact> 0.29488676E+03</totfact>
</mgrwt>
</event>
<event>
 7    1  0.1254976E-005  0.1722642E+03  0.7546771E-02  0.1181426E+00
          2   -1    0    0  501    0  0.00000000000E+00  0.00000000000E+00  0.78769169847E+03  0.78769169847E+03  0.00000000000E+00 0. -1.
         -2   -1    0    0    0  501 -0.00000000000E+00 -0.00000000000E+00 -0.33942803186E+02  0.33942803186E+02  0.00000000000E+00 0.  1.
         23    2    1    2    0    0 -0.11447437102E+03 -0.30799654535E+02  0.28837546817E+03  0.32540130497E+03  0.93126786131E+02 0.  0.
          5    1    1    2  502    0  0.26412140677E+02 -0.40908394222E+01  0.32904094099E+03  0.33015809393E+03  0.47000000000E+01 0. -1.
         -5    1    1    2    0  502  0.88062230340E+02  0.34890493957E+02  0.13633248612E+03  0.16607510275E+03  0.47000000000E+01 0. -1.
        -11    1    3    3    0    0 -0.90629490747E+02 -0.49622616694E+02  0.14030047766E+03  0.17424216686E+03  0.00000000000E+00 0.  1.
         11    1    3    3    0    0 -0.23844880271E+02  0.18822962159E+02  0.14807499052E+03  0.15115913812E+03  0.00000000000E+00 0. -1.
<mgrwt>
<rscale>  0 0.16661370E+03</rscale>
<asrwt>0</asrwt>
<pdfrwt beam="1">  1        2 0.12118332E+00 0.17226421E+03</pdfrwt>
<pdfrwt beam="2">  1       -2 0.52219703E-02 0.17226421E+03</pdfrwt>
<totfact> 0.64849074E+03</totfact>
</mgrwt>
</event>
<event>
 7    1  0.1254976E-005  0.1260713E+03  0.7546771E-02  0.1247008E+00
          2   -1    0    0  501    0  0.00000000000E+00  0.00000000000E+00  0.14289146531E+03  0.14289146531E+03  0.00000000000E+00 0. -1.
         -2   -1    0    0    0  501 -0.00000000000E+00 -0.00000000000E+00 -0.93026450434E+02  0.93026450434E+02  0.00000000000E+00 0.  1.
         23    2    1    2    0    0 -0.13344845601E+02  0.15045084142E+02  0.53890096764E+02  0.10978238127E+03  0.93507161470E+02 0.  0.
          5    1    1    2  502    0 -0.17352717185E+02  0.42679388694E+02 -0.30489407512E+02  0.55446740061E+02  0.47000000000E+01 0. -1.
         -5    1    1    2    0  502  0.30697562786E+02 -0.57724472836E+02  0.26464325623E+02  0.70688794415E+02  0.47000000000E+01 0.  1.
        -11    1    3    3    0    0  0.60261580119E+01 -0.34349586622E+02  0.43438420674E+02  0.55705521021E+02  0.00000000000E+00 0.  1.
         11    1    3    3    0    0 -0.19371003613E+02  0.49394670764E+02  0.10451676090E+02  0.54076860245E+02  0.00000000000E+00 0. -1.
<mgrwt>
<rscale>  0 0.11765980E+03</rscale>
<asrwt>0</asrwt>
<pdfrwt beam="1">  1        2 0.21983302E-01 0.12607130E+03</pdfrwt>
<pdfrwt beam="2">  1       -2 0.14311762E-01 0.12607130E+03</pdfrwt>
<totfact> 0.86487180E+03</totfact>
</mgrwt>
</event>
<event>
 7    1  0.1254976E-005  0.1441622E+03  0.7546771E-02  0.1217464E+00
          2   -1    0    0  501    0  0.00000000000E+00  0.00000000000E+00  0.43813018409E+03  0.43813018409E+03  0.00000000000E+00 0. -1.
         -2   -1    0    0    0  501 -0.00000000000E+00 -0.00000000000E+00 -0.39680408410E+02  0.39680408410E+02  0.00000000000E+00 0.  1.
         23    2    1    2    0    0  0.16261148517E+02  0.69954579309E+02  0.20891603598E+03  0.23968082292E+03  0.92967298931E+02 0.  0.
          5    1    1    2  502    0  0.28616381785E+01  0.10997785796E+02 -0.13743423426E+02  0.18442124416E+02  0.47000000000E+01 0. -1.
         -5    1    1    2    0  502 -0.19122786695E+02 -0.80952365105E+02  0.20327716313E+03  0.21968764516E+03  0.47000000000E+01 0. -1.
        -11    1    3    3    0    0 -0.16368291197E+02  0.55116712084E+02  0.19127631770E+03  0.19973082542E+03  0.00000000000E+00 0. -1.
         11    1    3    3    0    0  0.32629439714E+02  0.14837867225E+02  0.17639718275E+02  0.39949997505E+02  0.00000000000E+00 0.  1.
<mgrwt>
<rscale>  0 0.13697061E+03</rscale>
<asrwt>0</asrwt>
<pdfrwt beam="1">  1        2 0.67404640E-01 0.14416223E+03</pdfrwt>
<pdfrwt beam="2">  1       -2 0.61046785E-02 0.14416223E+03</pdfrwt>
<totfact> 0.99300086E+03</totfact>
</mgrwt>
</event>
<event>
 7    1  0.1254976E-005  0.1429343E+03  0.7546771E-02  0.1221130E+00
         -1   -1    0    0    0  501 -0.00000000000E+00  0.00000000000E+00  0.15280530364E+03  0.15280530364E+03  0.00000000000E+00 0.  1.
          1   -1    0    0  501    0  0.00000000000E+00 -0.00000000000E+00 -0.11393420184E+03  0.11393420184E+03  0.00000000000E+00 0. -1.
         23    2    1    2    0    0 -0.24144887470E+02  0.64963718140E+02 -0.17758972676E+02  0.11299562818E+03  0.87460680380E+02 0.  0.
          5    1    1    2  502    0  0.42154170333E+02  0.15394594532E+02 -0.11719627324E+02  0.46619816408E+02  0.47000000000E+01 0. -1.
         -5    1    1    2    0  502 -0.18009282862E+02 -0.80358312672E+02  0.68349701799E+02  0.10712406089E+03  0.47000000000E+01 0. -1.
        -11    1    3    3    0    0  0.30177202812E+02  0.77992474139E+01 -0.13659903647E+02  0.34030644975E+02  0.00000000000E+00 0.  1.
         11    1    3    3    0    0 -0.54322090283E+02  0.57164470726E+02 -0.40990690294E+01  0.78964983208E+02  0.00000000000E+00 0. -1.
<mgrwt>
<rscale>  0 0.13435690E+03</rscale>
<asrwt>0</asrwt>
<pdfrwt beam="2">  1        1 0.17528339E-01 0.14293430E+03</pdfrwt>
<pdfrwt beam="1">  1       -1 0.23508508E-01 0.14293430E+03</pdfrwt>
<totfact> 0.44948752E+03</totfact>
</mgrwt>
</event>
<event>
 7    1  0.1254976E-005  0.1766307E+03  0.7546771E-02  0.1184303E+00
          2   -1    0    0  501    0  0.00000000000E+00  0.00000000000E+00  0.12353411887E+03  0.12353411887E+03  0.00000000000E+00 0. -1.
         -2   -1    0    0    0  501 -0.00000000000E+00 -0.00000000000E+00 -0.20813518169E+03  0.20813518169E+03  0.00000000000E+00 0.  1.
         23    2    1    2    0    0  0.95992406515E+02 -0.13077283734E+02  0.96186823189E+01  0.13147994392E+03  0.88367975786E+02 0.  0.
          5    1    1    2  502    0 -0.11786318425E+03  0.54034755595E+02 -0.64851563230E+02  0.14504930288E+03  0.47000000000E+01 0. -1.
         -5    1    1    2    0  502  0.21870777731E+02 -0.40957471861E+02 -0.29368181915E+02  0.55140053762E+02  0.47000000000E+01 0.  1.
        -11    1    3    3    0    0  0.50063345037E+02 -0.45576038463E+02 -0.16141250808E+02  0.69599236892E+02  0.00000000000E+00 0.  1.
         11    1    3    3    0    0  0.45929061478E+02  0.32498754730E+02  0.25759933126E+02  0.61880707025E+02  0.00000000000E+00 0. -1.
<mgrwt>
<rscale>  0 0.16395447E+03</rscale>
<asrwt>0</asrwt>
<pdfrwt beam="1">  1        2 0.19005249E-01 0.17663074E+03</pdfrwt>
<pdfrwt beam="2">  1       -2 0.32020797E-01 0.17663074E+03</pdfrwt>
<totfact> 0.26139505E+03</totfact>
</mgrwt>
</event>
<event>
 7    1  0.1254976E-005  0.1647976E+03  0.7546771E-02  0.1187755E+00
          1   -1    0    0  501    0  0.00000000000E+00  0.00000000000E+00  0.98207498889E+02  0.98207498889E+02  0.00000000000E+00 0. -1.
         -1   -1    0    0    0  501 -0.00000000000E+00 -0.00000000000E+00 -0.70781329789E+03  0.70781329789E+03  0.00000000000E+00 0.  1.
         23    2    1    2    0    0 -0.78070305937E+02  0.83836306713E+02  0.23913610706E+02  0.15141779186E+03  0.96083234339E+02 0.  0.
          5    1    1    2  502    0  0.73949084743E+02 -0.22254811431E+02 -0.16766943767E+03  0.18465880454E+03  0.47000000000E+01 0. -1.
         -5    1    1    2    0  502  0.41212211932E+01 -0.61581495283E+02 -0.46584997204E+03  0.46994420039E+03  0.47000000000E+01 0.  1.
        -11    1    3    3    0    0 -0.94312017346E+02  0.45371945715E+02  0.29554313162E+01  0.10470006995E+03  0.00000000000E+00 0.  1.
         11    1    3    3    0    0  0.16241711409E+02  0.38464360998E+02  0.20958179389E+02  0.46717721903E+02  0.00000000000E+00 0. -1.
<mgrwt>
<rscale>  0 0.16083709E+03</rscale>
<asrwt>0</asrwt>
<pdfrwt beam="1">  1        1 0.15108846E-01 0.16479761E+03</pdfrwt>
<pdfrwt beam="2">  1       -1 0.10889435E+00 0.16479761E+03</pdfrwt>
<totfact> 0.30889954E+02</totfact>
</mgrwt>
</event>
<event>
 7    1  0.1254976E-005  0.1269661E+03  0.7546771E-02  0.1247123E+00
          1   -1    0    0  501    0  0.00000000000E+00  0.00000000000E+00  0.31271736128E+03  0.31271736128E+03  0.00000000000E+00 0. -1.
         -1   -1    0    0    0  501 -0.00000000000E+00 -0.00000000000E+00 -0.70421172564E+02  0.70421172564E+02  0.00000000000E+00 0.  1.
         23    2    1    2    0    0  0.13781045406E+02 -0.23602604083E+02  0.23846784427E+03  0.25611476099E+03  0.89335647520E+02 0.  0.
          5    1    1    2  502    0  0.23642367148E+02 -0.43146505113E+02 -0.57608410363E+01  0.49758011589E+02  0.47000000000E+01 0. -1.
         -5    1    1    2    0  502 -0.37423412555E+02  0.66749109195E+02  0.95891854893E+01  0.77265761266E+02  0.47000000000E+01 0.  1.
        -11    1    3    3    0    0  0.47651366343E+02 -0.19066316208E+01  0.85010638693E+02  0.97473568979E+02  0.00000000000E+00 0.  1.
         11    1    3    3    0    0 -0.33870320937E+02 -0.21695972462E+02  0.15345720557E+03  0.15864119202E+03  0.00000000000E+00 0. -1.
<mgrwt>
<rscale>  0 0.11759239E+03</rscale>
<asrwt>0</asrwt>
<pdfrwt beam="1">  1        1 0.48110363E-01 0.12696607E+03</pdfrwt>
<pdfrwt beam="2">  1       -1 0.10834027E-01 0.12696607E+03</pdfrwt>
<totfact> 0.42860665E+03</totfact>
</mgrwt>
</event>
<event>
 7    1  0.1254976E-005  0.3974217E+03  0.7546771E-02  0.1064303E+00
          2   -1    0    0  501    0  0.00000000000E+00  0.00000000000E+00  0.53591366463E+03  0.53591366463E+03  0.00000000000E+00 0. -1.
         -2   -1    0    0    0  501 -0.00000000000E+00 -0.00000000000E+00 -0.31350176733E+03  0.31350176733E+03  0.00000000000E+00 0.  1.
         23    2    1    2    0    0 -0.20679601643E+03 -0.15514198617E+02  0.36227025205E+03  0.42810280233E+03  0.95010478721E+02 0.  0.
          5    1    1    2  502    0  0.82186023882E+02  0.72429816609E+02  0.97820030553E+02  0.14694035944E+03  0.47000000000E+01 0. -1.
         -5    1    1    2    0  502  0.12460999254E+03 -0.56915617992E+02 -0.23767838530E+03  0.27437227020E+03  0.47000000000E+01 0.  1.
        -11    1    3    3    0    0 -0.73505943255E+02 -0.36115700789E+02  0.76348020112E+02  0.11196645798E+03  0.00000000000E+00 0.  1.
         11    1    3    3    0    0 -0.13329007317E+03  0.20601502172E+02  0.28592223194E+03  0.31613634435E+03  0.00000000000E+00 0. -1.
<mgrwt>
<rscale>  0 0.34591767E+03</rscale>
<asrwt>0</asrwt>
<pdfrwt beam="1">  1        2 0.82448256E-01 0.39742166E+03</pdfrwt>
<pdfrwt beam="2">  1       -2 0.48231041E-01 0.39742166E+03</pdfrwt>
<totfact> 0.23730765E+02</totfact>
</mgrwt>
</event>
<event>
 7    1  0.1254976E-005  0.1260312E+03  0.7546771E-02  0.1247351E+00
          2   -1    0    0  501    0  0.00000000000E+00  0.00000000000E+00  0.13411091514E+03  0.13411091514E+03  0.00000000000E+00 0. -1.
         -2   -1    0    0    0  501 -0.00000000000E+00 -0.00000000000E+00 -0.92037862203E+02  0.92037862203E+02  0.00000000000E+00 0.  1.
         23    2    1    2    0    0  0.15955311816E+02 -0.27925578156E+01  0.29192790415E+02  0.99461063673E+02  0.93690521508E+02 0.  0.
          5    1    1    2  502    0 -0.23555701402E+02  0.55339941233E+02  0.34121857318E+02  0.69309244052E+02  0.47000000000E+01 0.  1.
         -5    1    1    2    0  502  0.76003895857E+01 -0.52547383417E+02 -0.21241594799E+02  0.57378469616E+02  0.47000000000E+01 0.  1.
        -11    1    3    3    0    0  0.46102758113E+02 -0.17016242303E+02 -0.76964715621E+01  0.49741858452E+02  0.00000000000E+00 0.  1.
         11    1    3    3    0    0 -0.30147446297E+02  0.14223684487E+02  0.36889261977E+02  0.49719205221E+02  0.00000000000E+00 0. -1.
<mgrwt>
<rscale>  0 0.11745769E+03</rscale>
<asrwt>0</asrwt>
<pdfrwt beam="1">  1        2 0.20632448E-01 0.12603125E+03</pdfrwt>
<pdfrwt beam="2">  1       -2 0.14159671E-01 0.12603125E+03</pdfrwt>
<totfact> 0.94473782E+03</totfact>
</mgrwt>
</event>
<event>
 7    1  0.1254976E-005  0.1465424E+03  0.7546771E-02  0.1213936E+00
         -3   -1    0    0    0  501 -0.00000000000E+00  0.00000000000E+00  0.70639904269E+02  0.70639904269E+02  0.00000000000E+00 0.  1.
          3   -1    0    0  501    0  0.00000000000E+00 -0.00000000000E+00 -0.25303800871E+03  0.25303800871E+03  0.00000000000E+00 0. -1.
         23    2    1    2    0    0  0.35272839586E+02 -0.67866767846E+02 -0.90442549758E+02  0.15067357733E+03  0.93126799082E+02 0.  0.
          5    1    1    2  502    0 -0.64916913618E+00  0.98959815663E+02 -0.54440759683E+02  0.11304579980E+03  0.47000000000E+01 0.  1.
         -5    1    1    2    0  502 -0.34623670450E+02 -0.31093047817E+02 -0.37514794996E+02  0.59958535853E+02  0.47000000000E+01 0.  1.
        -11    1    3    3    0    0  0.52302979463E+02 -0.16186644047E+02 -0.13423522959E+02  0.56371979518E+02  0.00000000000E+00 0.  1.
         11    1    3    3    0    0 -0.17030139877E+02 -0.51680123799E+02 -0.77019026799E+02  0.94301597809E+02  0.00000000000E+00 0. -1.
<mgrwt>
<rscale>  0 0.13954950E+03</rscale>
<asrwt>0</asrwt>
<pdfrwt beam="2">  1        3 0.38928924E-01 0.14654240E+03</pdfrwt>
<pdfrwt beam="1">  1       -3 0.10867678E-01 0.14654240E+03</pdfrwt>
<totfact> 0.98113121E+02</totfact>
</mgrwt>
</event>
<event>
 7    1  0.1254976E-005  0.2246464E+03  0.7546771E-02  0.1161679E+00
         -2   -1    0    0    0  501 -0.00000000000E+00  0.00000000000E+00  0.31076409954E+04  0.31076409954E+04  0.00000000000E+00 0.  1.
          2   -1    0    0  501    0  0.00000000000E+00 -0.00000000000E+00 -0.83642272186E+02  0.83642272186E+02  0.00000000000E+00 0. -1.
         23    2    1    2    0    0  0.39947658329E+02 -0.38304398524E+02 -0.43778730227E+02  0.11529163652E+03  0.91173142306E+02 0.  0.
          5    1    1    2  502    0  0.52102821948E+02  0.58650677829E+02  0.47198109323E+03  0.47847972625E+03  0.47000000000E+01 0. -1.
         -5    1    1    2    0  502 -0.92050480276E+02 -0.20346279305E+02  0.25957963603E+04  0.25975119049E+04  0.47000000000E+01 0.  1.
        -11    1    3    3    0    0  0.24858714870E+02 -0.14797741911E+01  0.25344204802E+02  0.35531312299E+02  0.00000000000E+00 0.  1.
         11    1    3    3    0    0  0.15088943459E+02 -0.36824624333E+02 -0.69122935030E+02  0.79760324216E+02  0.00000000000E+00 0. -1.
<mgrwt>
<rscale>  0 0.18647531E+03</rscale>
<asrwt>0</asrwt>
<pdfrwt beam="2">  1        2 0.12868044E-01 0.22464641E+03</pdfrwt>
<pdfrwt beam="1">  1       -2 0.47809853E+00 0.22464641E+03</pdfrwt>
<totfact> 0.13367821E+00</totfact>
</mgrwt>
</event>
<event>
 7    1  0.1254976E-005  0.1296406E+03  0.7546771E-02  0.1239869E+00
          1   -1    0    0  501    0  0.00000000000E+00  0.00000000000E+00  0.26054023081E+03  0.26054023081E+03  0.00000000000E+00 0. -1.
         -1   -1    0    0    0  501 -0.00000000000E+00 -0.00000000000E+00 -0.51419626734E+02  0.51419626734E+02  0.00000000000E+00 0.  1.
         23    2    1    2    0    0  0.75190047750E+01 -0.46665861995E+02  0.99047256396E+02  0.14189269597E+03  0.89938534909E+02 0.  0.
          5    1    1    2  502    0 -0.66259691829E+01 -0.40073039961E+02  0.49295938920E+02  0.64046323808E+02  0.47000000000E+01 0. -1.
         -5    1    1    2    0  502 -0.89303559214E+00  0.86738901956E+02  0.60777408763E+02  0.10602083777E+03  0.47000000000E+01 0.  1.
        -11    1    3    3    0    0 -0.39987814668E+02 -0.12869928278E+02  0.30543420873E+02  0.51938049005E+02  0.00000000000E+00 0. -1.
         11    1    3    3    0    0  0.47506819443E+02 -0.33795933717E+02  0.68503835522E+02  0.89954646965E+02  0.00000000000E+00 0.  1.
<mgrwt>
<rscale>  0 0.12197830E+03</rscale>
<asrwt>0</asrwt>
<pdfrwt beam="1">  1        1 0.40083111E-01 0.12964065E+03</pdfrwt>
<pdfrwt beam="2">  1       -1 0.79107120E-02 0.12964065E+03</pdfrwt>
<totfact> 0.86656003E+03</totfact>
</mgrwt>
</event>
<event>
 7    1  0.1254976E-005  0.1491019E+03  0.7546771E-02  0.1210863E+00
          2   -1    0    0  501    0  0.00000000000E+00  0.00000000000E+00  0.56789249251E+03  0.56789249251E+03  0.00000000000E+00 0.  1.
         -2   -1    0    0    0  501 -0.00000000000E+00 -0.00000000000E+00 -0.47926286882E+02  0.47926286882E+02  0.00000000000E+00 0. -1.
         23    2    1    2    0    0 -0.57264375777E+02  0.57680300324E+02  0.41725556784E+03  0.43476394348E+03  0.91166067582E+02 0.  0.
          5    1    1    2  502    0 -0.78510101468E+01  0.25104657111E+02 -0.82782251089E+01  0.27973222552E+02  0.47000000000E+01 0. -1.
         -5    1    1    2    0  502  0.65115385924E+02 -0.82784957435E+02  0.11098886289E+03  0.15308161336E+03  0.47000000000E+01 0. -1.
        -11    1    3    3    0    0 -0.67824567369E+02  0.17450806700E+02  0.16722943557E+03  0.18130192143E+03  0.00000000000E+00 0.  1.
         11    1    3    3    0    0  0.10560191592E+02  0.40229493623E+02  0.25002613227E+03  0.25346202205E+03  0.00000000000E+00 0. -1.
<mgrwt>
<rscale>  0 0.14184836E+03</rscale>
<asrwt>0</asrwt>
<pdfrwt beam="1">  1        2 0.87368071E-01 0.14910191E+03</pdfrwt>
<pdfrwt beam="2">  1       -2 0.73732753E-02 0.14910191E+03</pdfrwt>
<totfact> 0.56009291E+03</totfact>
</mgrwt>
</event>
<event>
 7    1  0.1254976E-005  0.1357622E+03  0.7546771E-02  0.1231085E+00
         -3   -1    0    0    0  501 -0.00000000000E+00  0.00000000000E+00  0.15869266226E+03  0.15869266226E+03  0.00000000000E+00 0.  1.
          3   -1    0    0  501    0  0.00000000000E+00 -0.00000000000E+00 -0.93387700814E+02  0.93387700814E+02  0.00000000000E+00 0. -1.
         23    2    1    2    0    0  0.13616456395E+02  0.51190974281E+02  0.13392300181E+02  0.10673143413E+03  0.91685994542E+02 0.  0.
          5    1    1    2  502    0 -0.35145654195E+02 -0.45201794737E+02 -0.26797906268E+02  0.63392720690E+02  0.47000000000E+01 0.  1.
         -5    1    1    2    0  502  0.21529197800E+02 -0.59891795448E+01  0.78710567534E+02  0.81956208252E+02  0.47000000000E+01 0.  1.
        -11    1    3    3    0    0 -0.16768557166E+02 -0.70305169862E+00 -0.28756601669E+02  0.33295959675E+02  0.00000000000E+00 0. -1.
         11    1    3    3    0    0  0.30385013561E+02  0.51894025980E+02  0.42148901850E+02  0.73435474457E+02  0.00000000000E+00 0.  1.
<mgrwt>
<rscale>  0 0.12758389E+03</rscale>
<asrwt>0</asrwt>
<pdfrwt beam="2">  1        3 0.14367339E-01 0.13576224E+03</pdfrwt>
<pdfrwt beam="1">  1       -3 0.24414256E-01 0.13576224E+03</pdfrwt>
<totfact> 0.14415604E+03</totfact>
</mgrwt>
</event>
<event>
 7    1  0.1254976E-005  0.2519245E+03  0.7546771E-02  0.1114504E+00
          2   -1    0    0  501    0  0.00000000000E+00  0.00000000000E+00  0.13296171597E+04  0.13296171597E+04  0.00000000000E+00 0. -1.
         -2   -1    0    0    0  501 -0.00000000000E+00 -0.00000000000E+00 -0.45340954066E+02  0.45340954066E+02  0.00000000000E+00 0.  1.
         23    2    1    2    0    0 -0.97079892919E+02 -0.19598541436E+03  0.68656145634E+03  0.72632195900E+03  0.91335461558E+02 0.  0.
          5    1    1    2  502    0  0.82659283937E+02  0.37046374945E+02  0.25222088582E+03  0.26803443130E+03  0.47000000000E+01 0. -1.
         -5    1    1    2    0  502  0.14420608982E+02  0.15893903942E+03  0.34549386352E+03  0.38060172352E+03  0.47000000000E+01 0. -1.
        -11    1    3    3    0    0 -0.10912610095E+03 -0.15702173904E+03  0.49912414603E+03  0.53449906042E+03  0.00000000000E+00 0.  1.
         11    1    3    3    0    0  0.12046208029E+02 -0.38963675323E+02  0.18743731031E+03  0.19182289858E+03  0.00000000000E+00 0. -1.
<mgrwt>
<rscale>  0 0.24811187E+03</rscale>
<asrwt>0</asrwt>
<pdfrwt beam="1">  1        2 0.20455646E+00 0.25192447E+03</pdfrwt>
<pdfrwt beam="2">  1       -2 0.69755324E-02 0.25192447E+03</pdfrwt>
<totfact> 0.19800742E+03</totfact>
</mgrwt>
</event>
<event>
 7    1  0.1254976E-005  0.2219874E+03  0.7546771E-02  0.1135718E+00
         -1   -1    0    0    0  501 -0.00000000000E+00  0.00000000000E+00  0.48916092806E+03  0.48916092806E+03  0.00000000000E+00 0.  1.
          1   -1    0    0  501    0  0.00000000000E+00 -0.00000000000E+00 -0.10847522554E+03  0.10847522554E+03  0.00000000000E+00 0. -1.
         23    2    1    2    0    0  0.17869807684E+03 -0.41439445648E+02  0.71292400730E+02  0.21684405502E+03  0.91041240529E+02 0.  0.
          5    1    1    2  502    0 -0.28744156592E+02  0.30815430393E+02  0.68848170774E+01  0.42957048254E+02  0.47000000000E+01 0. -1.
         -5    1    1    2    0  502 -0.14995392024E+03  0.10624015255E+02  0.30250848472E+03  0.33783505032E+03  0.47000000000E+01 0. -1.
        -11    1    3    3    0    0  0.74727752836E+02 -0.88235986191E+01 -0.16353379479E+02  0.77003415229E+02  0.00000000000E+00 0.  1.
         11    1    3    3    0    0  0.10397032400E+03 -0.32615847029E+02  0.87645780209E+02  0.13984063980E+03  0.00000000000E+00 0. -1.
<mgrwt>
<rscale>  0 0.21755705E+03</rscale>
<asrwt>0</asrwt>
<pdfrwt beam="2">  1        1 0.16688497E-01 0.22198740E+03</pdfrwt>
<pdfrwt beam="1">  1       -1 0.75255526E-01 0.22198740E+03</pdfrwt>
<totfact> 0.59974720E+02</totfact>
</mgrwt>
</event>
<event>
 7    1  0.1254976E-005  0.1389693E+03  0.7546771E-02  0.1225136E+00
          1   -1    0    0  501    0  0.00000000000E+00  0.00000000000E+00  0.19829683818E+03  0.19829683818E+03  0.00000000000E+00 0. -1.
         -1   -1    0    0    0  501 -0.00000000000E+00 -0.00000000000E+00 -0.79572537629E+02  0.79572537629E+02  0.00000000000E+00 0.  1.
         23    2    1    2    0    0  0.75656112086E+00  0.60763999518E+02  0.43501972989E+02  0.11984763713E+03  0.93692040480E+02 0.  0.
          5    1    1    2  502    0 -0.36947746276E+02 -0.85438076134E+02  0.62315565978E+02  0.11211654905E+03  0.47000000000E+01 0. -1.
         -5    1    1    2    0  502  0.36191185155E+02  0.24674076616E+02  0.12906761581E+02  0.45905189623E+02  0.47000000000E+01 0. -1.
        -11    1    3    3    0    0 -0.39950393930E+02  0.84422199643E+01  0.33477601389E+02  0.52802034505E+02  0.00000000000E+00 0. -1.
         11    1    3    3    0    0  0.40706955051E+02  0.52321779554E+02  0.10024371599E+02  0.67045602624E+02  0.00000000000E+00 0.  1.
<mgrwt>
<rscale>  0 0.13157610E+03</rscale>
<asrwt>0</asrwt>
<pdfrwt beam="1">  1        1 0.30507206E-01 0.13896932E+03</pdfrwt>
<pdfrwt beam="2">  1       -1 0.12241929E-01 0.13896932E+03</pdfrwt>
<totfact> 0.62739783E+03</totfact>
</mgrwt>
</event>
<event>
 7    1  0.1254976E-005  0.1293458E+03  0.7546771E-02  0.1243659E+00
         -2   -1    0    0    0  501 -0.00000000000E+00  0.00000000000E+00  0.58795852282E+02  0.58795852282E+02  0.00000000000E+00 0. -1.
          2   -1    0    0  501    0  0.00000000000E+00 -0.00000000000E+00 -0.22639683140E+03  0.22639683140E+03  0.00000000000E+00 0.  1.
         23    2    1    2    0    0 -0.32388850620E+02  0.76123185085E+01 -0.10522575732E+03  0.14159251961E+03  0.88707364785E+02 0.  0.
          5    1    1    2  502    0  0.22020357738E+02  0.48233982585E+02 -0.67967995709E+02  0.86331637721E+02  0.47000000000E+01 0.  1.
         -5    1    1    2    0  502  0.10368492882E+02 -0.55846301094E+02  0.55927739132E+01  0.57268526352E+02  0.47000000000E+01 0.  1.
        -11    1    3    3    0    0  0.66877223622E+01 -0.15955843278E+02 -0.92658683033E+02  0.94259992078E+02  0.00000000000E+00 0.  1.
         11    1    3    3    0    0 -0.39076572983E+02  0.23568161787E+02 -0.12567074287E+02  0.47332527528E+02  0.00000000000E+00 0. -1.
<mgrwt>
<rscale>  0 0.11966014E+03</rscale>
<asrwt>0</asrwt>
<pdfrwt beam="2">  1        2 0.34830282E-01 0.12934581E+03</pdfrwt>
<pdfrwt beam="1">  1       -2 0.90455156E-02 0.12934581E+03</pdfrwt>
<totfact> 0.10870146E+04</totfact>
</mgrwt>
</event>
<event>
 7    1  0.1254976E-005  0.2277679E+03  0.7546771E-02  0.1128221E+00
         -3   -1    0    0    0  501 -0.00000000000E+00  0.00000000000E+00  0.80289149534E+02  0.80289149534E+02  0.00000000000E+00 0.  1.
          3   -1    0    0  501    0  0.00000000000E+00 -0.00000000000E+00 -0.16153556691E+03  0.16153556691E+03  0.00000000000E+00 0. -1.
         23    2    1    2    0    0 -0.14062716677E+02 -0.11881289896E+02 -0.57513298741E+02  0.11325828832E+03  0.95816153601E+02 0.  0.
          5    1    1    2  502    0 -0.51344226110E+02 -0.55048753014E+01 -0.30878589217E+02  0.60349900406E+02  0.47000000000E+01 0. -1.
         -5    1    1    2    0  502  0.65406942787E+02  0.17386165197E+02  0.71454705779E+01  0.68216527724E+02  0.47000000000E+01 0. -1.
        -11    1    3    3    0    0  0.38627945278E+02 -0.17549661057E+02 -0.37453992518E+02  0.56594260444E+02  0.00000000000E+00 0. -1.
         11    1    3    3    0    0 -0.52690661955E+02  0.56683711616E+01 -0.20059306223E+02  0.56664027875E+02  0.00000000000E+00 0.  1.
<mgrwt>
<rscale>  0 0.22776789E+03</rscale>
<asrwt>0</asrwt>
<pdfrwt beam="2">  1        3 0.24851625E-01 0.22776789E+03</pdfrwt>
<pdfrwt beam="1">  1       -3 0.12352177E-01 0.22776789E+03</pdfrwt>
<totfact> 0.19550930E+03</totfact>
</mgrwt>
</event>
<event>
 7    1  0.1254976E-005  0.1889004E+03  0.7546771E-02  0.1164667E+00
          1   -1    0    0  501    0  0.00000000000E+00  0.00000000000E+00  0.76195709952E+03  0.76195709952E+03  0.00000000000E+00 0. -1.
         -1   -1    0    0    0  501 -0.00000000000E+00 -0.00000000000E+00 -0.41766224165E+02  0.41766224165E+02  0.00000000000E+00 0.  1.
         23    2    1    2    0    0 -0.32514767239E+01 -0.14158481630E+03  0.31750099571E+03  0.35892843070E+03  0.89251911928E+02 0.  0.
          5    1    1    2  502    0 -0.56400199457E+02  0.34813504448E+02  0.14706308296E+03  0.16137720707E+03  0.47000000000E+01 0. -1.
         -5    1    1    2    0  502  0.59651676181E+02  0.10677131185E+03  0.25562679668E+03  0.28341768591E+03  0.47000000000E+01 0. -1.
        -11    1    3    3    0    0 -0.35421771083E+02 -0.71618871314E+02  0.98792663195E+02  0.12705886390E+03  0.00000000000E+00 0.  1.
         11    1    3    3    0    0  0.32170294360E+02 -0.69965944986E+02  0.21870833252E+03  0.23186956680E+03  0.00000000000E+00 0. -1.
<mgrwt>
<rscale>  0 0.18327932E+03</rscale>
<asrwt>0</asrwt>
<pdfrwt beam="1">  1        1 0.11722416E+00 0.18890039E+03</pdfrwt>
<pdfrwt beam="2">  1       -1 0.64255735E-02 0.18890039E+03</pdfrwt>
<totfact> 0.29589038E+03</totfact>
</mgrwt>
</event>
<event>
 7    1  0.1254976E-005  0.1263135E+03  0.7546771E-02  0.1248223E+00
          2   -1    0    0  501    0  0.00000000000E+00  0.00000000000E+00  0.19935428306E+03  0.19935428306E+03  0.00000000000E+00 0. -1.
         -2   -1    0    0    0  501 -0.00000000000E+00 -0.00000000000E+00 -0.68343660490E+02  0.68343660490E+02  0.00000000000E+00 0.  1.
         23    2    1    2    0    0  0.34044119573E+01 -0.17847163239E+02  0.10237328211E+03  0.13817887704E+03  0.91010998868E+02 0.  0.
          5    1    1    2  502    0  0.89907042445E+01  0.31155100649E+02  0.73723457620E+02  0.80676584352E+02  0.47000000000E+01 0.  1.
         -5    1    1    2    0  502 -0.12395116202E+02 -0.13307937410E+02 -0.45086117151E+02  0.48842482160E+02  0.47000000000E+01 0.  1.
        -11    1    3    3    0    0  0.44228197954E+02  0.70560857674E+00  0.70257758677E+02  0.83022792244E+02  0.00000000000E+00 0.  1.
         11    1    3    3    0    0 -0.40823785996E+02 -0.18552771816E+02  0.32115523429E+02  0.55156084798E+02  0.00000000000E+00 0. -1.
<mgrwt>
<rscale>  0 0.11694516E+03</rscale>
<asrwt>0</asrwt>
<pdfrwt beam="1">  1        2 0.30669889E-01 0.12631346E+03</pdfrwt>
<pdfrwt beam="2">  1       -2 0.10514409E-01 0.12631346E+03</pdfrwt>
<totfact> 0.98267040E+03</totfact>
</mgrwt>
</event>
<event>
 7    1  0.1254976E-005  0.1849280E+03  0.7546771E-02  0.1177259E+00
          1   -1    0    0  501    0  0.00000000000E+00  0.00000000000E+00  0.53525346894E+03  0.53525346894E+03  0.00000000000E+00 0. -1.
         -1   -1    0    0    0  501 -0.00000000000E+00 -0.00000000000E+00 -0.48852908289E+02  0.48852908289E+02  0.00000000000E+00 0.  1.
         23    2    1    2    0    0 -0.40966118177E+02 -0.90526321568E+02  0.15659644185E+03  0.20599381944E+03  0.89653612923E+02 0.  0.
          5    1    1    2  502    0  0.59471136510E+02  0.83448141119E+02  0.34014411285E+03  0.35527526770E+03  0.47000000000E+01 0. -1.
         -5    1    1    2    0  502 -0.18505018333E+02  0.70781804487E+01 -0.10339994047E+02  0.22837290094E+02  0.47000000000E+01 0.  1.
        -11    1    3    3    0    0 -0.52862193939E+02 -0.36942680994E+02  0.36874402615E+02  0.74289264334E+02  0.00000000000E+00 0.  1.
         11    1    3    3    0    0  0.11896075761E+02 -0.53583640574E+02  0.11972203924E+03  0.13170455510E+03  0.00000000000E+00 0. -1.
<mgrwt>
<rscale>  0 0.17056579E+03</rscale>
<asrwt>0</asrwt>
<pdfrwt beam="1">  1        1 0.82346684E-01 0.18492796E+03</pdfrwt>
<pdfrwt beam="2">  1       -1 0.75158324E-02 0.18492796E+03</pdfrwt>
<totfact> 0.38352117E+03</totfact>
</mgrwt>
</event>
<event>
 7    1  0.1254976E-005  0.1437097E+03  0.7546771E-02  0.1218892E+00
         -1   -1    0    0    0  501 -0.00000000000E+00  0.00000000000E+00  0.46180658828E+03  0.46180658828E+03  0.00000000000E+00 0.  1.
          1   -1    0    0  501    0  0.00000000000E+00 -0.00000000000E+00 -0.39975616803E+02  0.39975616803E+02  0.00000000000E+00 0. -1.
         23    2    1    2    0    0 -0.29264371277E+02 -0.64581863959E+02  0.11363968272E+03  0.16173167846E+03  0.90641810163E+02 0.  0.
          5    1    1    2  502    0 -0.33572243416E+02  0.63045169132E+02  0.10325517121E+03  0.12564039661E+03  0.47000000000E+01 0. -1.
         -5    1    1    2    0  502  0.62836614694E+02  0.15366948275E+01  0.20493611754E+03  0.21441013001E+03  0.47000000000E+01 0. -1.
        -11    1    3    3    0    0 -0.42910560873E+02  0.37252822004E+00  0.21015146020E+02  0.47781705432E+02  0.00000000000E+00 0. -1.
         11    1    3    3    0    0  0.13646189596E+02 -0.64954392179E+02  0.92624536701E+02  0.11394997303E+03  0.00000000000E+00 0.  1.
<mgrwt>
<rscale>  0 0.13594511E+03</rscale>
<asrwt>0</asrwt>
<pdfrwt beam="2">  1        1 0.61500952E-02 0.14370974E+03</pdfrwt>
<pdfrwt beam="1">  1       -1 0.71047164E-01 0.14370974E+03</pdfrwt>
<totfact> 0.25203624E+03</totfact>
</mgrwt>
</event>
<event>
 7    1  0.1254976E-005  0.1260357E+03  0.7546771E-02  0.1246331E+00
          2   -1    0    0  501    0  0.00000000000E+00  0.00000000000E+00  0.45907541568E+03  0.45907541568E+03  0.00000000000E+00 0.  1.
         -2   -1    0    0    0  501 -0.00000000000E+00 -0.00000000000E+00 -0.28864335081E+02  0.28864335081E+02  0.00000000000E+00 0. -1.
         23    2    1    2    0    0  0.78221790464E+01  0.14104860649E+02  0.24870783499E+03  0.26696822239E+03  0.95688614812E+02 0.  0.
          5    1    1    2  502    0 -0.63765461834E+02  0.98220606336E+01  0.85508697719E+02  0.10722096056E+03  0.47000000000E+01 0.  1.
         -5    1    1    2    0  502  0.55943282788E+02 -0.23926921283E+02  0.95994547896E+02  0.11375056781E+03  0.47000000000E+01 0.  1.
        -11    1    3    3    0    0 -0.40598148986E+02  0.40088607768E+01  0.16285157329E+03  0.16788363705E+03  0.00000000000E+00 0.  1.
         11    1    3    3    0    0  0.48420328032E+02  0.10095999872E+02  0.85856261698E+02  0.99084585344E+02  0.00000000000E+00 0. -1.
<mgrwt>
<rscale>  0 0.11806086E+03</rscale>
<asrwt>0</asrwt>
<pdfrwt beam="1">  1        2 0.70626982E-01 0.12603566E+03</pdfrwt>
<pdfrwt beam="2">  1       -2 0.44406673E-02 0.12603566E+03</pdfrwt>
<totfact> 0.15085697E+04</totfact>
</mgrwt>
</event>
<event>
 7    1  0.1254976E-005  0.1442366E+03  0.7546771E-02  0.1217600E+00
          1   -1    0    0  501    0  0.00000000000E+00  0.00000000000E+00  0.27685411808E+03  0.27685411808E+03  0.00000000000E+00 0. -1.
         -1   -1    0    0    0  501 -0.00000000000E+00 -0.00000000000E+00 -0.70809436075E+02  0.70809436075E+02  0.00000000000E+00 0.  1.
         23    2    1    2    0    0 -0.56198549632E+02 -0.44996541002E+02  0.15603296434E+03  0.19500254751E+03  0.92177773304E+02 0.  0.
          5    1    1    2  502    0  0.90491614301E+02  0.89974648476E+01  0.16561141643E+02  0.92552947251E+02  0.47000000000E+01 0. -1.
         -5    1    1    2    0  502 -0.34293064669E+02  0.35999076155E+02  0.33450576030E+02  0.60108059402E+02  0.47000000000E+01 0. -1.
        -11    1    3    3    0    0 -0.47513924762E+02  0.76355604685E+01  0.26549446275E+02  0.54961331202E+02  0.00000000000E+00 0.  1.
         11    1    3    3    0    0 -0.86846248696E+01 -0.52632101471E+02  0.12948351806E+03  0.14004121630E+03  0.00000000000E+00 0. -1.
<mgrwt>
<rscale>  0 0.13687254E+03</rscale>
<asrwt>0</asrwt>
<pdfrwt beam="1">  1        1 0.42592941E-01 0.14423665E+03</pdfrwt>
<pdfrwt beam="2">  1       -1 0.10893760E-01 0.14423665E+03</pdfrwt>
<totfact> 0.49763846E+03</totfact>
</mgrwt>
</event>
<event>
 7    1  0.1254976E-005  0.1437847E+03  0.7546771E-02  0.1218478E+00
          2   -1    0    0  501    0  0.00000000000E+00  0.00000000000E+00  0.66049464280E+03  0.66049464280E+03  0.00000000000E+00 0.  1.
         -2   -1    0    0    0  501 -0.00000000000E+00 -0.00000000000E+00 -0.25555938600E+02  0.25555938600E+02  0.00000000000E+00 0. -1.
         23    2    1    2    0    0  0.47196372864E+02  0.53123299003E+02  0.29518182638E+03  0.31712136236E+03  0.91564541864E+02 0.  0.
          5    1    1    2  502    0  0.21886528872E+02  0.61846738507E+01  0.20450026270E+03  0.20581476570E+03  0.47000000000E+01 0.  1.
         -5    1    1    2    0  502 -0.69082901736E+02 -0.59307972854E+02  0.13525661512E+03  0.16311445334E+03  0.47000000000E+01 0.  1.
        -11    1    3    3    0    0  0.55681148860E+02  0.54161843302E+01  0.87453515231E+02  0.10381638944E+03  0.00000000000E+00 0. -1.
         11    1    3    3    0    0 -0.84847759965E+01  0.47707114673E+02  0.20772831115E+03  0.21330497291E+03  0.00000000000E+00 0.  1.
<mgrwt>
<rscale>  0 0.13624127E+03</rscale>
<asrwt>0</asrwt>
<pdfrwt beam="1">  1        2 0.10161455E+00 0.14378467E+03</pdfrwt>
<pdfrwt beam="2">  1       -2 0.39316834E-02 0.14378467E+03</pdfrwt>
<totfact> 0.12153430E+04</totfact>
</mgrwt>
</event>
<event>
 7    1  0.1254976E-005  0.1325276E+03  0.7546771E-02  0.1236786E+00
         -2   -1    0    0    0  501 -0.00000000000E+00  0.00000000000E+00  0.37266508942E+02  0.37266508942E+02  0.00000000000E+00 0. -1.
          2   -1    0    0  501    0  0.00000000000E+00 -0.00000000000E+00 -0.40238073100E+03  0.40238073100E+03  0.00000000000E+00 0.  1.
         23    2    1    2    0    0 -0.43803766371E+02 -0.45691621404E+01 -0.22524866855E+03  0.24696628795E+03  0.91190665696E+02 0.  0.
          5    1    1    2  502    0 -0.32600659338E+02 -0.24929348450E+01 -0.10155060171E+03  0.10678779153E+03  0.47000000000E+01 0.  1.
         -5    1    1    2    0  502  0.76404425709E+02  0.70620969855E+01 -0.38314951799E+02  0.85893160456E+02  0.47000000000E+01 0.  1.
        -11    1    3    3    0    0 -0.34253498398E+02  0.39495649366E+02 -0.15417180443E+03  0.16279482102E+03  0.00000000000E+00 0.  1.
         11    1    3    3    0    0 -0.95502679734E+01 -0.44064811506E+02 -0.71076864118E+02  0.84171466925E+02  0.00000000000E+00 0. -1.
<mgrwt>
<rscale>  0 0.12390786E+03</rscale>
<asrwt>0</asrwt>
<pdfrwt beam="2">  1        2 0.61904727E-01 0.13252764E+03</pdfrwt>
<pdfrwt beam="1">  1       -2 0.57333091E-02 0.13252764E+03</pdfrwt>
<totfact> 0.11894530E+04</totfact>
</mgrwt>
</event>
<event>
 7    1  0.1254976E-005  0.2614365E+03  0.7546771E-02  0.1108560E+00
         -2   -1    0    0    0  501 -0.00000000000E+00  0.00000000000E+00  0.22209358793E+03  0.22209358793E+03  0.00000000000E+00 0.  1.
          2   -1    0    0  501    0  0.00000000000E+00 -0.00000000000E+00 -0.33062474043E+03  0.33062474043E+03  0.00000000000E+00 0. -1.
         23    2    1    2    0    0  0.22637485780E+03  0.38433266900E+02 -0.14902358486E+03  0.28816458320E+03  0.90045021617E+02 0.  0.
          5    1    1    2  502    0 -0.11703806324E+02 -0.25841721181E+02  0.40244861100E+02  0.49462232876E+02  0.47000000000E+01 0.  1.
         -5    1    1    2    0  502 -0.21467105147E+03 -0.12591545718E+02  0.24757126020E+00  0.21509151228E+03  0.47000000000E+01 0.  1.
        -11    1    3    3    0    0  0.16094618197E+03  0.14539005973E+00 -0.13710096779E+03  0.21142462014E+03  0.00000000000E+00 0.  1.
         11    1    3    3    0    0  0.65428675822E+02  0.38287876840E+02 -0.11922617067E+02  0.76739963060E+02  0.00000000000E+00 0. -1.
<mgrwt>
<rscale>  0 0.25765591E+03</rscale>
<asrwt>0</asrwt>
<pdfrwt beam="2">  1        2 0.50865345E-01 0.26143651E+03</pdfrwt>
<pdfrwt beam="1">  1       -2 0.34168244E-01 0.26143651E+03</pdfrwt>
<totfact> 0.79209996E+02</totfact>
</mgrwt>
</event>
<event>
 7    1  0.1254976E-005  0.1366023E+03  0.7546771E-02  0.1233600E+00
         -1   -1    0    0    0  501 -0.00000000000E+00  0.00000000000E+00  0.80947268422E+02  0.80947268422E+02  0.00000000000E+00 0.  1.
          1   -1    0    0  501    0  0.00000000000E+00 -0.00000000000E+00 -0.18320997849E+03  0.18320997849E+03  0.00000000000E+00 0. -1.
         23    2    1    2    0    0  0.17642394246E+02 -0.52258610441E+02 -0.77114771245E+02  0.12525940629E+03  0.81859724409E+02 0.  0.
          5    1    1    2  502    0 -0.10947641711E+02  0.24834738105E+02  0.50772459843E+02  0.57762857913E+02  0.47000000000E+01 0. -1.
         -5    1    1    2    0  502 -0.66947525345E+01  0.27423872336E+02 -0.75920398665E+02  0.81134982707E+02  0.47000000000E+01 0. -1.
        -11    1    3    3    0    0 -0.23676539715E+02  0.72145249669E+01 -0.29874625030E+02  0.38795890556E+02  0.00000000000E+00 0. -1.
         11    1    3    3    0    0  0.41318933961E+02 -0.59473135407E+02 -0.47240146216E+02  0.86463515735E+02  0.00000000000E+00 0.  1.
<mgrwt>
<rscale>  0 0.12594514E+03</rscale>
<asrwt>0</asrwt>
<pdfrwt beam="2">  1        1 0.28186150E-01 0.13660231E+03</pdfrwt>
<pdfrwt beam="1">  1       -1 0.12453426E-01 0.13660231E+03</pdfrwt>
<totfact> 0.67352278E+03</totfact>
</mgrwt>
</event>
<event>
 7    1  0.1254976E-005  0.1311080E+03  0.7546771E-02  0.1239314E+00
          2   -1    0    0  501    0  0.00000000000E+00  0.00000000000E+00  0.40255188410E+03  0.40255188410E+03  0.00000000000E+00 0. -1.
         -2   -1    0    0    0  501 -0.00000000000E+00 -0.00000000000E+00 -0.33429372295E+02  0.33429372295E+02  0.00000000000E+00 0.  1.
         23    2    1    2    0    0 -0.37098734162E+02 -0.13736476536E+02  0.18444567144E+03  0.20949758836E+03  0.91126433871E+02 0.  0.
          5    1    1    2  502    0  0.95386962772E+01 -0.97078669525E+01  0.18917368430E+03  0.18972085346E+03  0.47000000000E+01 0. -1.
         -5    1    1    2    0  502  0.27560037884E+02  0.23444343489E+02 -0.44968439376E+01  0.36762814572E+02  0.47000000000E+01 0. -1.
        -11    1    3    3    0    0 -0.17432383770E+02 -0.49778593611E+02  0.68207307757E+02  0.86220839808E+02  0.00000000000E+00 0.  1.
         11    1    3    3    0    0 -0.19666350391E+02  0.36042117074E+02  0.11623836368E+03  0.12327674855E+03  0.00000000000E+00 0. -1.
<mgrwt>
<rscale>  0 0.12232249E+03</rscale>
<asrwt>0</asrwt>
<pdfrwt beam="1">  1        2 0.61931056E-01 0.13110803E+03</pdfrwt>
<pdfrwt beam="2">  1       -2 0.51429806E-02 0.13110803E+03</pdfrwt>
<totfact> 0.13991909E+04</totfact>
</mgrwt>
</event>
<event>
 7    1  0.1254976E-005  0.1291890E+03  0.7546771E-02  0.1241918E+00
         -1   -1    0    0    0  501 -0.00000000000E+00  0.00000000000E+00  0.38030121999E+02  0.38030121999E+02  0.00000000000E+00 0.  1.
          1   -1    0    0  501    0  0.00000000000E+00 -0.00000000000E+00 -0.34125004655E+03  0.34125004655E+03  0.00000000000E+00 0. -1.
         23    2    1    2    0    0 -0.27030512777E+02 -0.18241485275E+02 -0.13818154597E+03  0.16969136735E+03  0.92938797611E+02 0.  0.
          5    1    1    2  502    0 -0.20818971914E+02 -0.14054050092E+02 -0.14659216444E+03  0.14880288502E+03  0.47000000000E+01 0. -1.
         -5    1    1    2    0  502  0.47849484691E+02  0.32295535367E+02 -0.18446214152E+02  0.60785916184E+02  0.47000000000E+01 0. -1.
        -11    1    3    3    0    0 -0.59732897751E+02  0.22436077971E+01 -0.88189855859E+02  0.10653874190E+03  0.00000000000E+00 0.  1.
         11    1    3    3    0    0  0.32702384974E+02 -0.20485093072E+02 -0.49991690106E+02  0.63152625446E+02  0.00000000000E+00 0. -1.
<mgrwt>
<rscale>  0 0.12071781E+03</rscale>
<asrwt>0</asrwt>
<pdfrwt beam="2">  1        1 0.52500007E-01 0.12918901E+03</pdfrwt>
<pdfrwt beam="1">  1       -1 0.58507880E-02 0.12918901E+03</pdfrwt>
<totfact> 0.97432697E+03</totfact>
</mgrwt>
</event>
<event>
 7    1  0.1254976E-005  0.1270976E+03  0.7546771E-02  0.1246466E+00
         -1   -1    0    0    0  501 -0.00000000000E+00  0.00000000000E+00  0.62387316155E+03  0.62387316155E+03  0.00000000000E+00 0.  1.
          1   -1    0    0  501    0  0.00000000000E+00 -0.00000000000E+00 -0.20810497823E+02  0.20810497823E+02  0.00000000000E+00 0. -1.
         23    2    1    2    0    0  0.58535613729E+00  0.23006541670E+02  0.18426342258E+03  0.20702327904E+03  0.91520410631E+02 0.  0.
          5    1    1    2  502    0 -0.20858122274E+01  0.48634227113E+02  0.24090692179E+03  0.24582081610E+03  0.47000000000E+01 0.  1.
         -5    1    1    2    0  502  0.15004560901E+01 -0.71640768783E+02  0.17789231935E+03  0.19183956423E+03  0.47000000000E+01 0.  1.
        -11    1    3    3    0    0 -0.43848789478E+02  0.16431735596E+02  0.69702657777E+02  0.83971297326E+02  0.00000000000E+00 0. -1.
         11    1    3    3    0    0  0.44434145615E+02  0.65748060741E+01  0.11456076481E+03  0.12305198172E+03  0.00000000000E+00 0.  1.
<mgrwt>
<rscale>  0 0.11798074E+03</rscale>
<asrwt>0</asrwt>
<pdfrwt beam="2">  1        1 0.32016155E-02 0.12709762E+03</pdfrwt>
<pdfrwt beam="1">  1       -1 0.95980472E-01 0.12709762E+03</pdfrwt>
<totfact> 0.32887117E+03</totfact>
</mgrwt>
</event>
<event>
 7    1  0.1254976E-005  0.1286598E+03  0.7546771E-02  0.1243574E+00
         -1   -1    0    0    0  501 -0.00000000000E+00  0.00000000000E+00  0.68066879775E+02  0.68066879775E+02  0.00000000000E+00 0.  1.
          1   -1    0    0  501    0  0.00000000000E+00 -0.00000000000E+00 -0.19410822753E+03  0.19410822753E+03  0.00000000000E+00 0. -1.
         23    2    1    2    0    0  0.97497993478E+01 -0.28858228831E+02 -0.80754109330E+02  0.12577756475E+03  0.91492697314E+02 0.  0.
          5    1    1    2  502    0 -0.31447725007E+02 -0.24174461528E+02  0.23816737352E+02  0.46504741440E+02  0.47000000000E+01 0.  1.
         -5    1    1    2    0  502  0.21697925659E+02  0.53032690359E+02 -0.69103975781E+02  0.89892801121E+02  0.47000000000E+01 0.  1.
        -11    1    3    3    0    0  0.39924332416E+02 -0.46563070021E+02 -0.48519786141E+02  0.78206402907E+02  0.00000000000E+00 0.  1.
         11    1    3    3    0    0 -0.30174533068E+02  0.17704841189E+02 -0.32234323189E+02  0.47571161841E+02  0.00000000000E+00 0. -1.
<mgrwt>
<rscale>  0 0.11971138E+03</rscale>
<asrwt>0</asrwt>
<pdfrwt beam="2">  1        1 0.29862804E-01 0.12865984E+03</pdfrwt>
<pdfrwt beam="1">  1       -1 0.10471828E-01 0.12865984E+03</pdfrwt>
<totfact> 0.81464322E+03</totfact>
</mgrwt>
</event>
<event>
 7    1  0.1254976E-005  0.1210049E+03  0.7546771E-02  0.1249382E+00
         -2   -1    0    0    0  501 -0.00000000000E+00  0.00000000000E+00  0.64833316866E+02  0.64833316866E+02  0.00000000000E+00 0.  1.
          2   -1    0    0  501    0  0.00000000000E+00 -0.00000000000E+00 -0.23680976820E+03  0.23680976820E+03  0.00000000000E+00 0. -1.
         23    2    1    2    0    0 -0.38547763875E+02 -0.18344699697E+02 -0.14453600366E+03  0.17756579137E+03  0.93896196965E+02 0.  0.
          5    1    1    2  502    0  0.36360390426E+02  0.63916605502E+02 -0.26168213163E+02  0.78193834994E+02  0.47000000000E+01 0. -1.
         -5    1    1    2    0  502  0.21873734482E+01 -0.45571905805E+02 -0.12722345058E+01  0.45883458696E+02  0.47000000000E+01 0.  1.
        -11    1    3    3    0    0 -0.68930577840E+02 -0.14402936968E+02 -0.83175530811E+02  0.10898182454E+03  0.00000000000E+00 0.  1.
         11    1    3    3    0    0  0.30382813965E+02 -0.39417627297E+01 -0.61360472853E+02  0.68583966833E+02  0.00000000000E+00 0. -1.
<mgrwt>
<rscale>  0 0.11626921E+03</rscale>
<asrwt>0</asrwt>
<pdfrwt beam="2">  1        2 0.36432272E-01 0.12100494E+03</pdfrwt>
<pdfrwt beam="1">  1       -2 0.99743564E-02 0.12100494E+03</pdfrwt>
<totfact> 0.88472898E+03</totfact>
</mgrwt>
</event>
<event>
 7    1  0.1254976E-005  0.1366316E+03  0.7546771E-02  0.1229192E+00
          2   -1    0    0  501    0  0.00000000000E+00  0.00000000000E+00  0.17559873608E+03  0.17559873608E+03  0.00000000000E+00 0. -1.
         -2   -1    0    0    0  501 -0.00000000000E+00 -0.00000000000E+00 -0.10285982754E+03  0.10285982754E+03  0.00000000000E+00 0.  1.
         23    2    1    2    0    0  0.26006335658E+02  0.48647508022E+02  0.90182711617E+02  0.14071797468E+03  0.92874740336E+02 0.  0.
          5    1    1    2  502    0  0.34076180790E+02 -0.54976998357E+02  0.18303048771E+02  0.67385072827E+02  0.47000000000E+01 0.  1.
         -5    1    1    2    0  502 -0.60082516447E+02  0.63294903347E+01 -0.35746851851E+02  0.70355516115E+02  0.47000000000E+01 0.  1.
        -11    1    3    3    0    0 -0.21044712800E+01  0.64808251912E+02  0.86469365848E+02  0.10808093979E+03  0.00000000000E+00 0. -1.
         11    1    3    3    0    0  0.28110806938E+02 -0.16160743890E+02  0.37133457687E+01  0.32637034893E+02  0.00000000000E+00 0.  1.
<mgrwt>
<rscale>  0 0.12883704E+03</rscale>
<asrwt>0</asrwt>
<pdfrwt beam="1">  1        2 0.27015190E-01 0.13663156E+03</pdfrwt>
<pdfrwt beam="2">  1       -2 0.15824589E-01 0.13663156E+03</pdfrwt>
<totfact> 0.58787009E+03</totfact>
</mgrwt>
</event>
<event>
 7    1  0.1254976E-005  0.1521308E+03  0.7546771E-02  0.1207155E+00
          2   -1    0    0  501    0  0.00000000000E+00  0.00000000000E+00  0.87651752863E+02  0.87651752863E+02  0.00000000000E+00 0. -1.
         -2   -1    0    0    0  501 -0.00000000000E+00 -0.00000000000E+00 -0.25779733259E+03  0.25779733259E+03  0.00000000000E+00 0.  1.
         23    2    1    2    0    0  0.28682007908E+02 -0.81800433922E+02 -0.10489074308E+02  0.12491795175E+03  0.89333674632E+02 0.  0.
          5    1    1    2  502    0 -0.51120807252E+02  0.16517079978E+01 -0.11502595713E+03  0.12597271882E+03  0.47000000000E+01 0. -1.
         -5    1    1    2    0  502  0.22438799344E+02  0.80148725924E+02 -0.44630548284E+02  0.94558414873E+02  0.47000000000E+01 0. -1.
        -11    1    3    3    0    0 -0.30466071915E+02 -0.30520349036E+02 -0.17025371327E+02  0.46363094289E+02  0.00000000000E+00 0.  1.
         11    1    3    3    0    0  0.59148079824E+02 -0.51280084886E+02  0.65362970192E+01  0.78554857466E+02  0.00000000000E+00 0. -1.
<mgrwt>
<rscale>  0 0.14468882E+03</rscale>
<asrwt>0</asrwt>
<pdfrwt beam="1">  1        2 0.13484885E-01 0.15213080E+03</pdfrwt>
<pdfrwt beam="2">  1       -2 0.39661128E-01 0.15213080E+03</pdfrwt>
<totfact> 0.26024673E+03</totfact>
</mgrwt>
</event>
<event>
 7    1  0.1254976E-005  0.1363869E+03  0.7546771E-02  0.1229983E+00
         -3   -1    0    0    0  501 -0.00000000000E+00  0.00000000000E+00  0.11904803107E+03  0.11904803107E+03  0.00000000000E+00 0.  1.
          3   -1    0    0  501    0  0.00000000000E+00 -0.00000000000E+00 -0.12789195226E+03  0.12789195226E+03  0.00000000000E+00 0. -1.
         23    2    1    2    0    0 -0.23963497118E+02 -0.49012015928E+02 -0.24623849767E+02  0.10964327123E+03  0.91863409735E+02 0.  0.
          5    1    1    2  502    0  0.61302131973E+02  0.78820886125E+01 -0.26416069833E+02  0.67379354781E+02  0.47000000000E+01 0. -1.
         -5    1    1    2    0  502 -0.37338634854E+02  0.41129927315E+02  0.42195998408E+02  0.69917357326E+02  0.47000000000E+01 0. -1.
        -11    1    3    3    0    0 -0.16923078576E+02  0.26250959026E+02 -0.81131435474E+01  0.32269591514E+02  0.00000000000E+00 0. -1.
         11    1    3    3    0    0 -0.70404185427E+01 -0.75262974954E+02 -0.16510706220E+02  0.77373679711E+02  0.00000000000E+00 0.  1.
<mgrwt>
<rscale>  0 0.12831145E+03</rscale>
<asrwt>0</asrwt>
<pdfrwt beam="2">  1        3 0.19675685E-01 0.13638688E+03</pdfrwt>
<pdfrwt beam="1">  1       -3 0.18315082E-01 0.13638688E+03</pdfrwt>
<totfact> 0.13938447E+03</totfact>
</mgrwt>
</event>
<event>
 7    1  0.1254976E-005  0.2937743E+03  0.7546771E-02  0.1090063E+00
          2   -1    0    0  501    0  0.00000000000E+00  0.00000000000E+00  0.10397395985E+04  0.10397395985E+04  0.00000000000E+00 0. -1.
         -2   -1    0    0    0  501 -0.00000000000E+00 -0.00000000000E+00 -0.85036935413E+02  0.85036935413E+02  0.00000000000E+00 0.  1.
         23    2    1    2    0    0 -0.31188064452E+02  0.26401814516E+03  0.61152778305E+03  0.67303284121E+03  0.91261709198E+02 0.  0.
          5    1    1    2  502    0 -0.15714120404E+02  0.72101314296E+01  0.14804009025E+02  0.23241520142E+02  0.47000000000E+01 0.  1.
         -5    1    1    2    0  502  0.46902184856E+02 -0.27122827658E+03  0.32837087102E+03  0.42850217257E+03  0.47000000000E+01 0.  1.
        -11    1    3    3    0    0 -0.26019144012E+02  0.13452092413E+03  0.41994713226E+03  0.44173348161E+03  0.00000000000E+00 0. -1.
         11    1    3    3    0    0 -0.51689204401E+01  0.12949722102E+03  0.19158065079E+03  0.23129935959E+03  0.00000000000E+00 0.  1.
<mgrwt>
<rscale>  0 0.29054846E+03</rscale>
<asrwt>0</asrwt>
<pdfrwt beam="1">  1        2 0.15995993E+00 0.29377434E+03</pdfrwt>
<pdfrwt beam="2">  1       -2 0.13082606E-01 0.29377434E+03</pdfrwt>
<totfact> 0.10664853E+03</totfact>
</mgrwt>
</event>
<event>
 7    1  0.1254976E-005  0.1308438E+03  0.7546771E-02  0.1239540E+00
         -2   -1    0    0    0  501 -0.00000000000E+00  0.00000000000E+00  0.17265214740E+03  0.17265214740E+03  0.00000000000E+00 0.  1.
          2   -1    0    0  501    0  0.00000000000E+00 -0.00000000000E+00 -0.97109505883E+02  0.97109505883E+02  0.00000000000E+00 0. -1.
         23    2    1    2    0    0  0.29428149381E+02 -0.25078116943E+02 -0.27494925668E+02  0.10321783290E+03  0.91667999683E+02 0.  0.
          5    1    1    2  502    0 -0.70408735013E+02  0.45203462731E+02  0.76832010460E+02  0.11369252764E+03  0.47000000000E+01 0. -1.
         -5    1    1    2    0  502  0.40980585632E+02 -0.20125345788E+02  0.26205556729E+02  0.52851292750E+02  0.47000000000E+01 0. -1.
        -11    1    3    3    0    0  0.25132110243E+02 -0.56640902154E+02 -0.34037404757E+02  0.70699078386E+02  0.00000000000E+00 0. -1.
         11    1    3    3    0    0  0.42960391380E+01  0.31562785211E+02  0.65424790891E+01  0.32518754515E+02  0.00000000000E+00 0.  1.
<mgrwt>
<rscale>  0 0.12218223E+03</rscale>
<asrwt>0</asrwt>
<pdfrwt beam="2">  1        2 0.14939924E-01 0.13084381E+03</pdfrwt>
<pdfrwt beam="1">  1       -2 0.26561869E-01 0.13084381E+03</pdfrwt>
<totfact> 0.47511775E+03</totfact>
</mgrwt>
</event>
<event>
 7    1  0.1254976E-005  0.1399653E+03  0.7546771E-02  0.1224544E+00
          2   -1    0    0  501    0  0.00000000000E+00  0.00000000000E+00  0.66307636675E+03  0.66307636675E+03  0.00000000000E+00 0. -1.
         -2   -1    0    0    0  501 -0.00000000000E+00 -0.00000000000E+00 -0.23706203267E+02  0.23706203267E+02  0.00000000000E+00 0.  1.
         23    2    1    2    0    0  0.13701655858E+02  0.61667153558E+02  0.29310141954E+03  0.31329583725E+03  0.90858496036E+02 0.  0.
          5    1    1    2  502    0  0.30226785527E+02  0.26402387665E+02  0.81219908319E+02  0.90716636540E+02  0.47000000000E+01 0. -1.
         -5    1    1    2    0  502 -0.43928441385E+02 -0.88069541223E+02  0.26504883562E+03  0.28277009622E+03  0.47000000000E+01 0. -1.
        -11    1    3    3    0    0  0.25902079692E+02 -0.15512558414E+02  0.11321594574E+03  0.11717255469E+03  0.00000000000E+00 0.  1.
         11    1    3    3    0    0 -0.12200423833E+02  0.77179711971E+02  0.17988547379E+03  0.19612328256E+03  0.00000000000E+00 0. -1.
<mgrwt>
<rscale>  0 0.13198177E+03</rscale>
<asrwt>0</asrwt>
<pdfrwt beam="1">  1        2 0.10201173E+00 0.13996534E+03</pdfrwt>
<pdfrwt beam="2">  1       -2 0.36471087E-02 0.13996534E+03</pdfrwt>
<totfact> 0.13500224E+04</totfact>
</mgrwt>
</event>
<event>
 7    1  0.1254976E-005  0.1456305E+03  0.7546771E-02  0.1215737E+00
         -1   -1    0    0    0  501 -0.00000000000E+00  0.00000000000E+00  0.26253239502E+03  0.26253239502E+03  0.00000000000E+00 0.  1.
          1   -1    0    0  501    0  0.00000000000E+00 -0.00000000000E+00 -0.11372679592E+03  0.11372679592E+03  0.00000000000E+00 0. -1.
         23    2    1    2    0    0 -0.66128174264E+02  0.34794018169E+02 -0.51236461802E+02  0.12882218458E+03  0.91577404913E+02 0.  0.
          5    1    1    2  502    0  0.89814927147E+02 -0.61748863321E+02  0.15734686464E+03  0.19146740994E+03  0.47000000000E+01 0. -1.
         -5    1    1    2    0  502 -0.23686752882E+02  0.26954845152E+02  0.42695196263E+02  0.55969596418E+02  0.47000000000E+01 0. -1.
        -11    1    3    3    0    0  0.17033964317E+02 -0.13722413502E+02 -0.10818011130E+02  0.24402662508E+02  0.00000000000E+00 0.  1.
         11    1    3    3    0    0 -0.83162138581E+02  0.48516431672E+02 -0.40418450673E+02  0.10441952207E+03  0.00000000000E+00 0. -1.
<mgrwt>
<rscale>  0 0.13822569E+03</rscale>
<asrwt>0</asrwt>
<pdfrwt beam="2">  1        1 0.17496430E-01 0.14563051E+03</pdfrwt>
<pdfrwt beam="1">  1       -1 0.40389599E-01 0.14563051E+03</pdfrwt>
<totfact> 0.18059687E+03</totfact>
</mgrwt>
</event>
<event>
 7    1  0.1254976E-005  0.3372672E+03  0.7546771E-02  0.1069261E+00
          1   -1    0    0  501    0  0.00000000000E+00  0.00000000000E+00  0.64661314189E+03  0.64661314189E+03  0.00000000000E+00 0. -1.
         -1   -1    0    0    0  501 -0.00000000000E+00 -0.00000000000E+00 -0.34107461555E+03  0.34107461555E+03  0.00000000000E+00 0.  1.
         23    2    1    2    0    0 -0.17155418795E+03 -0.25900006694E+03  0.50133165767E+03  0.59770810956E+03  0.97003500816E+02 0.  0.
          5    1    1    2  502    0 -0.72775699095E+01  0.43277617206E+02  0.61356291839E+01  0.44560645420E+02  0.47000000000E+01 0. -1.
         -5    1    1    2    0  502  0.17883175786E+03  0.21572244973E+03 -0.20192876052E+03  0.34541900246E+03  0.47000000000E+01 0.  1.
        -11    1    3    3    0    0 -0.17051867261E+03 -0.21456102104E+03  0.46724250883E+03  0.54169051267E+03  0.00000000000E+00 0. -1.
         11    1    3    3    0    0 -0.10355153421E+01 -0.44439045899E+02  0.34089148838E+02  0.56017596886E+02  0.00000000000E+00 0.  1.
<mgrwt>
<rscale>  0 0.33427480E+03</rscale>
<asrwt>0</asrwt>
<pdfrwt beam="1">  1        1 0.99478945E-01 0.33726722E+03</pdfrwt>
<pdfrwt beam="2">  1       -1 0.52473018E-01 0.33726722E+03</pdfrwt>
<totfact> 0.11892977E+02</totfact>
</mgrwt>
</event>
<event>
 7    1  0.1254976E-005  0.1411560E+03  0.7546771E-02  0.1231524E+00
         -1   -1    0    0    0  501 -0.00000000000E+00  0.00000000000E+00  0.10674957074E+03  0.10674957074E+03  0.00000000000E+00 0.  1.
          1   -1    0    0  501    0  0.00000000000E+00 -0.00000000000E+00 -0.43109298505E+03  0.43109298505E+03  0.00000000000E+00 0. -1.
         23    2    1    2    0    0 -0.27729937590E+01  0.94191090617E+01 -0.37608675336E+03  0.38750167067E+03  0.92843360590E+02 0.  0.
          5    1    1    2  502    0  0.12148136361E+02 -0.69100848620E+02 -0.52032909359E+00  0.70319735774E+02  0.47000000000E+01 0. -1.
         -5    1    1    2    0  502 -0.93751426024E+01  0.59681739558E+02  0.52263668147E+02  0.80021149352E+02  0.47000000000E+01 0.  1.
        -11    1    3    3    0    0  0.96650902250E+01  0.49624273222E+02 -0.22887921683E+03  0.23439641285E+03  0.00000000000E+00 0. -1.
         11    1    3    3    0    0 -0.12438083984E+02 -0.40205164161E+02 -0.14720753653E+03  0.15310525782E+03  0.00000000000E+00 0.  1.
<mgrwt>
<rscale>  0 0.12729635E+03</rscale>
<asrwt>0</asrwt>
<pdfrwt beam="2">  1        1 0.66321997E-01 0.14115597E+03</pdfrwt>
<pdfrwt beam="1">  1       -1 0.16423011E-01 0.14115597E+03</pdfrwt>
<totfact> 0.15083768E+03</totfact>
</mgrwt>
</event>
<event>
 7    1  0.1254976E-005  0.1593334E+03  0.7546771E-02  0.1203299E+00
         -1   -1    0    0    0  501 -0.00000000000E+00  0.00000000000E+00  0.62684076699E+02  0.62684076699E+02  0.00000000000E+00 0.  1.
          1   -1    0    0  501    0  0.00000000000E+00 -0.00000000000E+00 -0.44120768936E+03  0.44120768936E+03  0.00000000000E+00 0. -1.
         23    2    1    2    0    0  0.53166755186E+02  0.51445826134E+02 -0.30784125731E+03  0.32958423543E+03  0.91575933845E+02 0.  0.
          5    1    1    2  502    0 -0.16821151655E+02  0.19547060193E+02 -0.88627542894E+02  0.92422778927E+02  0.47000000000E+01 0. -1.
         -5    1    1    2    0  502 -0.36345603531E+02 -0.70992886327E+02  0.17945187543E+02  0.81884751700E+02  0.47000000000E+01 0.  1.
        -11    1    3    3    0    0  0.30394352572E+02  0.67647026645E+02 -0.28176290953E+03  0.29135935555E+03  0.00000000000E+00 0. -1.
         11    1    3    3    0    0  0.22772402614E+02 -0.16201200511E+02 -0.26078347782E+02  0.38224879880E+02  0.00000000000E+00 0.  1.
<mgrwt>
<rscale>  0 0.14772316E+03</rscale>
<asrwt>0</asrwt>
<pdfrwt beam="2">  1        1 0.67878108E-01 0.15933336E+03</pdfrwt>
<pdfrwt beam="1">  1       -1 0.96437038E-02 0.15933336E+03</pdfrwt>
<totfact> 0.33594825E+03</totfact>
</mgrwt>
</event>
<event>
 7    1  0.1254976E-005  0.1501560E+03  0.7546771E-02  0.1211610E+00
          2   -1    0    0  501    0  0.00000000000E+00  0.00000000000E+00  0.36818631775E+03  0.36818631775E+03  0.00000000000E+00 0. -1.
         -2   -1    0    0    0  501 -0.00000000000E+00 -0.00000000000E+00 -0.49203170045E+02  0.49203170045E+02  0.00000000000E+00 0.  1.
         23    2    1    2    0    0 -0.35477359836E+02  0.75270584221E+02  0.16099430236E+03  0.19942782913E+03  0.83234546494E+02 0.  0.
          5    1    1    2  502    0  0.15348695718E+02 -0.42494332831E+02 -0.91945602847E+01  0.46346312926E+02  0.47000000000E+01 0. -1.
         -5    1    1    2    0  502  0.20128664118E+02 -0.32776251390E+02  0.16718340564E+03  0.17161534574E+03  0.47000000000E+01 0. -1.
        -11    1    3    3    0    0  0.78548627828E+01  0.64982616276E+02  0.12878486754E+03  0.14446446412E+03  0.00000000000E+00 0.  1.
         11    1    3    3    0    0 -0.43332222619E+02  0.10287967945E+02  0.32209434820E+02  0.54963365008E+02  0.00000000000E+00 0. -1.
<mgrwt>
<rscale>  0 0.14128535E+03</rscale>
<asrwt>0</asrwt>
<pdfrwt beam="1">  1        2 0.56644047E-01 0.15015595E+03</pdfrwt>
<pdfrwt beam="2">  1       -2 0.75697187E-02 0.15015595E+03</pdfrwt>
<totfact> 0.86331332E+03</totfact>
</mgrwt>
</event>
<event>
 7    1  0.1254976E-005  0.1291518E+03  0.7546771E-02  0.1242476E+00
          2   -1    0    0  501    0  0.00000000000E+00  0.00000000000E+00  0.53042205975E+03  0.53042205975E+03  0.00000000000E+00 0. -1.
         -2   -1    0    0    0  501 -0.00000000000E+00 -0.00000000000E+00 -0.34045540455E+02  0.34045540455E+02  0.00000000000E+00 0.  1.
         23    2    1    2    0    0  0.22968468045E+02  0.22966933459E+02  0.37418839590E+03  0.38667520517E+03  0.91900642593E+02 0.  0.
          5    1    1    2  502    0 -0.56576687983E+02 -0.41068104293E+02  0.12038190751E+03  0.13928892443E+03  0.47000000000E+01 0.  1.
         -5    1    1    2    0  502  0.33608219939E+02  0.18101170834E+02  0.18062158874E+01  0.38503470608E+02  0.47000000000E+01 0.  1.
        -11    1    3    3    0    0 -0.74074907960E+01  0.53601660217E+02  0.19522322926E+03  0.20258360778E+03  0.00000000000E+00 0. -1.
         11    1    3    3    0    0  0.30375958841E+02 -0.30634726758E+02  0.17896516664E+03  0.18409159739E+03  0.00000000000E+00 0.  1.
<mgrwt>
<rscale>  0 0.12037748E+03</rscale>
<asrwt>0</asrwt>
<pdfrwt beam="1">  1        2 0.81603388E-01 0.12915184E+03</pdfrwt>
<pdfrwt beam="2">  1       -2 0.52377758E-02 0.12915184E+03</pdfrwt>
<totfact> 0.10080310E+04</totfact>
</mgrwt>
</event>
<event>
 7    1  0.1254976E-005  0.1361617E+03  0.7546771E-02  0.1230884E+00
         -1   -1    0    0    0  501 -0.00000000000E+00  0.00000000000E+00  0.45590512060E+02  0.45590512060E+02  0.00000000000E+00 0.  1.
          1   -1    0    0  501    0  0.00000000000E+00 -0.00000000000E+00 -0.33861172527E+03  0.33861172527E+03  0.00000000000E+00 0. -1.
         23    2    1    2    0    0 -0.53974843865E+02 -0.10184961255E+01 -0.17360689471E+03  0.20309509196E+03  0.90520392074E+02 0.  0.
          5    1    1    2  502    0  0.25148690371E+02  0.31186896037E+02 -0.13138995941E+03  0.13744268094E+03  0.47000000000E+01 0.  1.
         -5    1    1    2    0  502  0.28826153494E+02 -0.30168399912E+02  0.11975640911E+02  0.43664464427E+02  0.47000000000E+01 0.  1.
        -11    1    3    3    0    0 -0.86694982238E+01  0.22973340227E+02 -0.27446750857E+01  0.24707646630E+02  0.00000000000E+00 0.  1.
         11    1    3    3    0    0 -0.45305345641E+02 -0.23991836353E+02 -0.17086221962E+03  0.17838744533E+03  0.00000000000E+00 0. -1.
<mgrwt>
<rscale>  0 0.12771652E+03</rscale>
<asrwt>0</asrwt>
<pdfrwt beam="2">  1        1 0.52094111E-01 0.13616174E+03</pdfrwt>
<pdfrwt beam="1">  1       -1 0.70139250E-02 0.13616174E+03</pdfrwt>
<totfact> 0.75329607E+03</totfact>
</mgrwt>
</event>
<event>
 7    1  0.1254976E-005  0.1551760E+03  0.7546771E-02  0.1202720E+00
          2   -1    0    0  501    0  0.00000000000E+00  0.00000000000E+00  0.14643413544E+03  0.14643413544E+03  0.00000000000E+00 0. -1.
         -2   -1    0    0    0  501 -0.00000000000E+00 -0.00000000000E+00 -0.13804871540E+03  0.13804871540E+03  0.00000000000E+00 0.  1.
         23    2    1    2    0    0  0.37688885165E+02 -0.83871910404E+02  0.81490542081E+01  0.12930666202E+03  0.90547536353E+02 0.  0.
          5    1    1    2  502    0 -0.35372895204E+02  0.10575408076E+03  0.32129637679E+02  0.11614461214E+03  0.47000000000E+01 0.  1.
         -5    1    1    2    0  502 -0.23159899610E+01 -0.21882170354E+02 -0.31893271843E+02  0.39031576676E+02  0.47000000000E+01 0.  1.
        -11    1    3    3    0    0  0.18512146178E+01 -0.78929721328E+02  0.32837907333E+02  0.85508222192E+02  0.00000000000E+00 0. -1.
         11    1    3    3    0    0  0.35837670547E+02 -0.49421890758E+01 -0.24688853125E+02  0.43798439832E+02  0.00000000000E+00 0.  1.
<mgrwt>
<rscale>  0 0.14818615E+03</rscale>
<asrwt>0</asrwt>
<pdfrwt beam="1">  1        2 0.22528328E-01 0.15517601E+03</pdfrwt>
<pdfrwt beam="2">  1       -2 0.21238264E-01 0.15517601E+03</pdfrwt>
<totfact> 0.44239008E+03</totfact>
</mgrwt>
</event>
<event>
 7    1  0.1254976E-005  0.1254414E+03  0.7546771E-02  0.1252889E+00
         -3   -1    0    0    0  501 -0.00000000000E+00  0.00000000000E+00  0.19261995033E+02  0.19261995033E+02  0.00000000000E+00 0.  1.
          3   -1    0    0  501    0  0.00000000000E+00 -0.00000000000E+00 -0.59218222677E+03  0.59218222677E+03  0.00000000000E+00 0. -1.
         23    2    1    2    0    0  0.28307218936E+01 -0.10138434040E+02 -0.27374531846E+03  0.28703524599E+03  0.85685075873E+02 0.  0.
          5    1    1    2  502    0 -0.27708484357E+02  0.48596472932E+02 -0.25317558126E+03  0.25932478137E+03  0.47000000000E+01 0. -1.
         -5    1    1    2    0  502  0.24877762464E+02 -0.38458038892E+02 -0.45999332011E+02  0.65084194441E+02  0.47000000000E+01 0. -1.
        -11    1    3    3    0    0 -0.35766887112E+02 -0.26341993217E+02 -0.14571039655E+03  0.15233085861E+03  0.00000000000E+00 0.  1.
         11    1    3    3    0    0  0.38597609006E+02  0.16203559177E+02 -0.12803492191E+03  0.13470438738E+03  0.00000000000E+00 0. -1.
<mgrwt>
<rscale>  0 0.11425369E+03</rscale>
<asrwt>0</asrwt>
<pdfrwt beam="2">  1        3 0.91104954E-01 0.12544144E+03</pdfrwt>
<pdfrwt beam="1">  1       -3 0.29633840E-02 0.12544144E+03</pdfrwt>
<totfact> 0.13217411E+03</totfact>
</mgrwt>
</event>
<event>
 7    1  0.1254976E-005  0.1386621E+03  0.7546771E-02  0.1226487E+00
         -1   -1    0    0    0  501 -0.00000000000E+00  0.00000000000E+00  0.42243893909E+02  0.42243893909E+02  0.00000000000E+00 0.  1.
          1   -1    0    0  501    0  0.00000000000E+00 -0.00000000000E+00 -0.38246623186E+03  0.38246623186E+03  0.00000000000E+00 0. -1.
         23    2    1    2    0    0  0.59979179748E+02 -0.14452215563E+01 -0.19744775365E+03  0.22568307984E+03  0.91365455378E+02 0.  0.
          5    1    1    2  502    0  0.46961407122E+01  0.21705473540E+02  0.15026775167E+02  0.27222698087E+02  0.47000000000E+01 0.  1.
         -5    1    1    2    0  502 -0.64675320460E+02 -0.20260251984E+02 -0.15780135947E+03  0.17180434784E+03  0.47000000000E+01 0.  1.
        -11    1    3    3    0    0  0.14409246881E+02  0.81800405250E+01  0.55009996871E+01  0.17458535340E+02  0.00000000000E+00 0.  1.
         11    1    3    3    0    0  0.45569932868E+02 -0.96252620813E+01 -0.20294875333E+03  0.20822454450E+03  0.00000000000E+00 0. -1.
<mgrwt>
<rscale>  0 0.13065523E+03</rscale>
<asrwt>0</asrwt>
<pdfrwt beam="2">  1        1 0.58840957E-01 0.13866212E+03</pdfrwt>
<pdfrwt beam="1">  1       -1 0.64990608E-02 0.13866212E+03</pdfrwt>
<totfact> 0.72598289E+03</totfact>
</mgrwt>
</event>
<event>
 7    1  0.1254976E-005  0.3569271E+03  0.7546771E-02  0.1060742E+00
         -1   -1    0    0    0  501 -0.00000000000E+00  0.00000000000E+00  0.14434914411E+03  0.14434914411E+03  0.00000000000E+00 0.  1.
          1   -1    0    0  501    0  0.00000000000E+00 -0.00000000000E+00 -0.10305692628E+04  0.10305692628E+04  0.00000000000E+00 0. -1.
         23    2    1    2    0    0  0.24350692156E+03 -0.22907780056E+03 -0.67730503756E+03  0.76134560516E+03  0.95565459480E+02 0.  0.
          5    1    1    2  502    0 -0.89613347019E+01  0.47165629873E+02 -0.71987265316E+02  0.86655401036E+02  0.47000000000E+01 0. -1.
         -5    1    1    2    0  502 -0.23454558686E+03  0.18191217069E+03 -0.13692781585E+03  0.32691740075E+03  0.47000000000E+01 0. -1.
        -11    1    3    3    0    0  0.31045917979E+02 -0.44111416417E+02 -0.49385757082E+02  0.73134253835E+02  0.00000000000E+00 0.  1.
         11    1    3    3    0    0  0.21246100358E+03 -0.18496638415E+03 -0.62791928048E+03  0.68821135133E+03  0.00000000000E+00 0. -1.
<mgrwt>
<rscale>  0 0.35460118E+03</rscale>
<asrwt>0</asrwt>
<pdfrwt beam="2">  1        1 0.15854913E+00 0.35692710E+03</pdfrwt>
<pdfrwt beam="1">  1       -1 0.22207559E-01 0.35692710E+03</pdfrwt>
<totfact> 0.25656348E+02</totfact>
</mgrwt>
</event>
<event>
 7    1  0.1254976E-005  0.2572846E+03  0.7546771E-02  0.1111163E+00
          1   -1    0    0  501    0  0.00000000000E+00  0.00000000000E+00  0.41336601671E+03  0.41336601671E+03  0.00000000000E+00 0. -1.
         -1   -1    0    0    0  501 -0.00000000000E+00 -0.00000000000E+00 -0.15172786795E+03  0.15172786795E+03  0.00000000000E+00 0.  1.
         23    2    1    2    0    0  0.21957859020E+03 -0.48602325583E+02  0.14816548834E+03  0.28389748206E+03  0.89821072463E+02 0.  0.
          5    1    1    2  502    0 -0.14297115149E+03  0.75759368991E+02  0.11696432277E+03  0.19970722307E+03  0.47000000000E+01 0. -1.
         -5    1    1    2    0  502 -0.76607438717E+02 -0.27157043409E+02 -0.34916623446E+01  0.81489179523E+02  0.47000000000E+01 0. -1.
        -11    1    3    3    0    0  0.57027740878E+02  0.26728043898E+02  0.36630381224E+02  0.72858330950E+02  0.00000000000E+00 0. -1.
         11    1    3    3    0    0  0.16255084932E+03 -0.75330369481E+02  0.11153510711E+03  0.21103915111E+03  0.00000000000E+00 0.  1.
<mgrwt>
<rscale>  0 0.25341891E+03</rscale>
<asrwt>0</asrwt>
<pdfrwt beam="1">  1        1 0.63594771E-01 0.25728461E+03</pdfrwt>
<pdfrwt beam="2">  1       -1 0.23342749E-01 0.25728461E+03</pdfrwt>
<totfact> 0.90843174E+02</totfact>
</mgrwt>
</event>
<event>
 7    1  0.1254976E-005  0.1289067E+03  0.7546771E-02  0.1241484E+00
         -1   -1    0    0    0  501 -0.00000000000E+00  0.00000000000E+00  0.27336932495E+03  0.27336932495E+03  0.00000000000E+00 0.  1.
          1   -1    0    0  501    0  0.00000000000E+00 -0.00000000000E+00 -0.94356344705E+02  0.94356344705E+02  0.00000000000E+00 0. -1.
         23    2    1    2    0    0 -0.85455784950E+01  0.30310815432E+02 -0.44684010099E+02  0.10954495662E+03  0.94929786257E+02 0.  0.
          5    1    1    2  502    0 -0.27955655683E+02  0.40084392974E+02  0.76021953429E+02  0.90496986955E+02  0.47000000000E+01 0. -1.
         -5    1    1    2    0  502  0.36501234178E+02 -0.70395208406E+02  0.14767503691E+03  0.16768372608E+03  0.47000000000E+01 0. -1.
        -11    1    3    3    0    0  0.30573402087E+02  0.45646468877E+02 -0.38472792779E+02  0.67070774712E+02  0.00000000000E+00 0. -1.
         11    1    3    3    0    0 -0.39118980582E+02 -0.15335653445E+02 -0.62112173200E+01  0.42474181911E+02  0.00000000000E+00 0.  1.
<mgrwt>
<rscale>  0 0.12098326E+03</rscale>
<asrwt>0</asrwt>
<pdfrwt beam="2">  1        1 0.14516361E-01 0.12890670E+03</pdfrwt>
<pdfrwt beam="1">  1       -1 0.42056819E-01 0.12890670E+03</pdfrwt>
<totfact> 0.21294239E+03</totfact>
</mgrwt>
</event>
<event>
 7    1  0.1254976E-005  0.1299024E+03  0.7546771E-02  0.1244389E+00
         -2   -1    0    0    0  501 -0.00000000000E+00  0.00000000000E+00  0.30004413500E+02  0.30004413500E+02  0.00000000000E+00 0.  1.
          2   -1    0    0  501    0  0.00000000000E+00 -0.00000000000E+00 -0.42151753099E+03  0.42151753099E+03  0.00000000000E+00 0. -1.
         23    2    1    2    0    0  0.10599486341E+02 -0.33368119352E+02 -0.19869459156E+03  0.21902758318E+03  0.85251164088E+02 0.  0.
          5    1    1    2  502    0  0.53420820582E+02  0.93999637173E+01 -0.12377762760E+03  0.13522253689E+03  0.47000000000E+01 0.  1.
         -5    1    1    2    0  502 -0.64020306923E+02  0.23968155635E+02 -0.69040898324E+02  0.97271824412E+02  0.47000000000E+01 0.  1.
        -11    1    3    3    0    0  0.31367028464E+02 -0.12337572698E+02 -0.22861770710E+02  0.40727960110E+02  0.00000000000E+00 0.  1.
         11    1    3    3    0    0 -0.20767542123E+02 -0.21030546654E+02 -0.17583282085E+03  0.17829962307E+03  0.00000000000E+00 0. -1.
<mgrwt>
<rscale>  0 0.11921999E+03</rscale>
<asrwt>0</asrwt>
<pdfrwt beam="2">  1        2 0.64848845E-01 0.12990244E+03</pdfrwt>
<pdfrwt beam="1">  1       -2 0.46160641E-02 0.12990244E+03</pdfrwt>
<totfact> 0.15648516E+04</totfact>
</mgrwt>
</event>
<event>
 7    1  0.1254976E-005  0.2228229E+03  0.7546771E-02  0.1134575E+00
          2   -1    0    0  501    0  0.00000000000E+00  0.00000000000E+00  0.17502482478E+04  0.17502482478E+04  0.00000000000E+00 0. -1.
         -2   -1    0    0    0  501 -0.00000000000E+00 -0.00000000000E+00 -0.27488787039E+02  0.27488787039E+02  0.00000000000E+00 0.  1.
         23    2    1    2    0    0 -0.14712937177E+03  0.11124892129E+03  0.99852634214E+03  0.10200011655E+04  0.96561623735E+02 0.  0.
          5    1    1    2  502    0  0.56638267106E+02  0.20746549876E+02  0.15417069442E+03  0.16561704517E+03  0.47000000000E+01 0. -1.
         -5    1    1    2    0  502  0.90491104665E+02 -0.13199547117E+03  0.57006242418E+03  0.59211882414E+03  0.47000000000E+01 0. -1.
        -11    1    3    3    0    0 -0.12332811031E+03  0.35158957181E+02  0.59200975017E+03  0.60574047195E+03  0.00000000000E+00 0.  1.
         11    1    3    3    0    0 -0.23801261460E+02  0.76089964110E+02  0.40651659197E+03  0.41426069357E+03  0.00000000000E+00 0. -1.
<mgrwt>
<rscale>  0 0.21907377E+03</rscale>
<asrwt>0</asrwt>
<pdfrwt beam="1">  1        2 0.26926888E+00 0.22282288E+03</pdfrwt>
<pdfrwt beam="2">  1       -2 0.42290455E-02 0.22282288E+03</pdfrwt>
<totfact> 0.25413026E+03</totfact>
</mgrwt>
</event>
<event>
 6    1  0.1254976E-005  0.3938568E+03  0.7546771E-02  0.1045928E+00
         -1   -1    0    0    0  501 -0.00000000000E+00  0.00000000000E+00  0.53653543582E+02  0.53653543582E+02  0.00000000000E+00 0.  1.
          1   -1    0    0  501    0  0.00000000000E+00 -0.00000000000E+00 -0.72280026961E+03  0.72280026961E+03  0.00000000000E+00 0. -1.
          5    1    1    2  502    0  0.19127525076E+01  0.45368607514E+02 -0.15944974623E+02  0.48355986037E+02  0.47000000000E+01 0. -1.
         -5    1    1    2    0  502  0.43537006545E+02 -0.68674899087E+02 -0.33178475085E+02  0.87946653788E+02  0.47000000000E+01 0.  1.
        -11    1    1    2    0    0  0.20124988921E+02 -0.43670724208E+02 -0.91348576816E+02  0.10323134126E+03  0.00000000000E+00 0.  1.
         11    1    1    2    0    0 -0.65574747974E+02  0.66977015781E+02 -0.52867469951E+03  0.53691983211E+03  0.00000000000E+00 0. -1.
<mgrwt>
<rscale>  0 0.39385681E+03</rscale>
<asrwt>0</asrwt>
<pdfrwt beam="2">  1        1 0.11120004E+00 0.39385681E+03</pdfrwt>
<pdfrwt beam="1">  1       -1 0.82543916E-02 0.39385681E+03</pdfrwt>
<totfact> 0.22125623E+03</totfact>
</mgrwt>
</event>
<event>
 7    1  0.1254976E-005  0.2101449E+03  0.7546771E-02  0.1144801E+00
          2   -1    0    0  501    0  0.00000000000E+00  0.00000000000E+00  0.28313697448E+03  0.28313697448E+03  0.00000000000E+00 0. -1.
         -2   -1    0    0    0  501 -0.00000000000E+00 -0.00000000000E+00 -0.17370363912E+03  0.17370363912E+03  0.00000000000E+00 0.  1.
         23    2    1    2    0    0 -0.13862261845E+03  0.96568606352E+02  0.14703124189E+03  0.24335877192E+03  0.95202834527E+02 0.  0.
          5    1    1    2  502    0  0.10295299191E+03 -0.23264835128E+02  0.27360716109E+02  0.10913876434E+03  0.47000000000E+01 0. -1.
         -5    1    1    2    0  502  0.35669626540E+02 -0.73303771223E+02 -0.64958622640E+02  0.10434307734E+03  0.47000000000E+01 0. -1.
        -11    1    3    3    0    0 -0.42308237422E+02  0.40486475468E+02  0.11224777668E+03  0.12660452211E+03  0.00000000000E+00 0. -1.
         11    1    3    3    0    0 -0.96314381024E+02  0.56082130884E+02  0.34783465210E+02  0.11675424981E+03  0.00000000000E+00 0.  1.
<mgrwt>
<rscale>  0 0.20596591E+03</rscale>
<asrwt>0</asrwt>
<pdfrwt beam="1">  1        2 0.43559534E-01 0.21014494E+03</pdfrwt>
<pdfrwt beam="2">  1       -2 0.26723637E-01 0.21014494E+03</pdfrwt>
<totfact> 0.14599976E+03</totfact>
</mgrwt>
</event>
<event>
 7    1  0.1254976E-005  0.1258453E+03  0.7546771E-02  0.1249706E+00
         -3   -1    0    0    0  501 -0.00000000000E+00  0.00000000000E+00  0.45360243888E+03  0.45360243888E+03  0.00000000000E+00 0.  1.
          3   -1    0    0  501    0  0.00000000000E+00 -0.00000000000E+00 -0.27906586387E+02  0.27906586387E+02  0.00000000000E+00 0. -1.
         23    2    1    2    0    0  0.13743472860E+01 -0.14481458685E+02  0.11802582438E+03  0.14909681295E+03  0.89934214488E+02 0.  0.
          5    1    1    2  502    0 -0.48732435529E+02  0.48806307253E+01  0.49777807796E+02  0.69989934832E+02  0.47000000000E+01 0.  1.
         -5    1    1    2    0  502  0.47358088243E+02  0.96008279594E+01  0.25789222032E+03  0.26242227748E+03  0.47000000000E+01 0.  1.
        -11    1    3    3    0    0  0.12383294044E+02 -0.23661654797E+02  0.12856217650E+03  0.13130671387E+03  0.00000000000E+00 0.  1.
         11    1    3    3    0    0 -0.11008946759E+02  0.91801961122E+01 -0.10536352123E+02  0.17790099085E+02  0.00000000000E+00 0. -1.
<mgrwt>
<rscale>  0 0.11608094E+03</rscale>
<asrwt>0</asrwt>
<pdfrwt beam="2">  1        3 0.42933213E-02 0.12584527E+03</pdfrwt>
<pdfrwt beam="1">  1       -3 0.69784985E-01 0.12584527E+03</pdfrwt>
<totfact> 0.13218027E+03</totfact>
</mgrwt>
</event>
<event>
 7    1  0.1254976E-005  0.1266563E+03  0.7546771E-02  0.1247470E+00
          3   -1    0    0  501    0  0.00000000000E+00  0.00000000000E+00  0.15892421388E+02  0.15892421388E+02  0.00000000000E+00 0. -1.
         -3   -1    0    0    0  501 -0.00000000000E+00 -0.00000000000E+00 -0.92721704570E+03  0.92721704570E+03  0.00000000000E+00 0.  1.
         23    2    1    2    0    0 -0.10283355354E+02 -0.17611182286E+02 -0.20207365111E+03  0.22263825249E+03  0.91203782050E+02 0.  0.
          5    1    1    2  502    0 -0.57304059795E+02  0.50629755703E+01 -0.31494572339E+03  0.32019101748E+03  0.47000000000E+01 0.  1.
         -5    1    1    2    0  502  0.67587415148E+02  0.12548206716E+02 -0.39430524980E+03  0.40028019711E+03  0.47000000000E+01 0.  1.
        -11    1    3    3    0    0  0.36615834542E+02  0.68056704871E+01 -0.11381367279E+03  0.11975219666E+03  0.00000000000E+00 0.  1.
         11    1    3    3    0    0 -0.46899189895E+02 -0.24416852773E+02 -0.88259978325E+02  0.10288605584E+03  0.00000000000E+00 0. -1.
<mgrwt>
<rscale>  0 0.11738755E+03</rscale>
<asrwt>0</asrwt>
<pdfrwt beam="1">  1        3 0.24449870E-02 0.12665634E+03</pdfrwt>
<pdfrwt beam="2">  1       -3 0.14264883E+00 0.12665634E+03</pdfrwt>
<totfact> 0.62433283E+02</totfact>
</mgrwt>
</event>
<event>
 7    1  0.1254976E-005  0.1286477E+03  0.7546771E-02  0.1237547E+00
          2   -1    0    0  501    0  0.00000000000E+00  0.00000000000E+00  0.23044455356E+03  0.23044455356E+03  0.00000000000E+00 0. -1.
         -2   -1    0    0    0  501 -0.00000000000E+00 -0.00000000000E+00 -0.89917126723E+02  0.89917126723E+02  0.00000000000E+00 0.  1.
         23    2    1    2    0    0 -0.29466309980E+02 -0.75529654784E+01  0.15650641944E+03  0.19072539420E+03  0.10467380740E+03 0.  0.
          5    1    1    2  502    0  0.90641133465E+01 -0.29382303366E+02 -0.60554865936E+02  0.68076866044E+02  0.47000000000E+01 0. -1.
         -5    1    1    2    0  502  0.20402196634E+02  0.36935268844E+02  0.44575873332E+02  0.61559420038E+02  0.47000000000E+01 0. -1.
        -11    1    3    3    0    0  0.85753196607E+01  0.38256559955E+02  0.10469252479E+03  0.11179277810E+03  0.00000000000E+00 0. -1.
         11    1    3    3    0    0 -0.38041629641E+02 -0.45809525433E+02  0.51813894644E+02  0.78932616100E+02  0.00000000000E+00 0.  1.
<mgrwt>
<rscale>  0 0.12342764E+03</rscale>
<asrwt>0</asrwt>
<pdfrwt beam="1">  1        2 0.35453008E-01 0.12864773E+03</pdfrwt>
<pdfrwt beam="2">  1       -2 0.13833404E-01 0.12864773E+03</pdfrwt>
<totfact> 0.54367095E+03</totfact>
</mgrwt>
</event>
<event>
 7    1  0.1254976E-005  0.1711991E+03  0.7546771E-02  0.1182091E+00
         -1   -1    0    0    0  501 -0.00000000000E+00  0.00000000000E+00  0.67520421231E+02  0.67520421231E+02  0.00000000000E+00 0.  1.
          1   -1    0    0  501    0  0.00000000000E+00 -0.00000000000E+00 -0.38515353753E+03  0.38515353753E+03  0.00000000000E+00 0. -1.
         23    2    1    2    0    0 -0.74370196876E+02  0.90325376769E+02 -0.15128345681E+03  0.21396629682E+03  0.95944212956E+02 0.  0.
          5    1    1    2  502    0  0.57393054137E+02 -0.10308751355E+03 -0.64475334676E+02  0.13453682357E+03  0.47000000000E+01 0.  1.
         -5    1    1    2    0  502  0.16977142739E+02  0.12762136783E+02 -0.10187432482E+03  0.10417083838E+03  0.47000000000E+01 0.  1.
        -11    1    3    3    0    0 -0.16840196769E+02 -0.25689443250E+01 -0.83859408357E+02  0.85572145422E+02  0.00000000000E+00 0.  1.
         11    1    3    3    0    0 -0.57530000107E+02  0.92894321094E+02 -0.67424048450E+02  0.12839415140E+03  0.00000000000E+00 0. -1.
<mgrwt>
<rscale>  0 0.16599441E+03</rscale>
<asrwt>0</asrwt>
<pdfrwt beam="2">  1        1 0.59254389E-01 0.17119912E+03</pdfrwt>
<pdfrwt beam="1">  1       -1 0.10387757E-01 0.17119912E+03</pdfrwt>
<totfact> 0.35743046E+03</totfact>
</mgrwt>
</event>
<event>
 7    1  0.1254976E-005  0.1287432E+03  0.7546771E-02  0.1245129E+00
          1   -1    0    0  501    0  0.00000000000E+00  0.00000000000E+00  0.16772059979E+03  0.16772059979E+03  0.00000000000E+00 0. -1.
         -1   -1    0    0    0  501 -0.00000000000E+00 -0.00000000000E+00 -0.12203258398E+03  0.12203258398E+03  0.00000000000E+00 0.  1.
         23    2    1    2    0    0  0.30772509765E+02 -0.17154159630E+01  0.11133255843E+03  0.14524015812E+03  0.88033374099E+02 0.  0.
          5    1    1    2  502    0  0.10260659343E+02  0.32638664609E+02  0.23319061371E+02  0.41670519326E+02  0.47000000000E+01 0. -1.
         -5    1    1    2    0  502 -0.41033169108E+02 -0.30923248646E+02 -0.88963603988E+02  0.10284250633E+03  0.47000000000E+01 0. -1.
        -11    1    3    3    0    0 -0.17968966820E+02  0.70356543950E+01  0.88731446479E+02  0.90805582404E+02  0.00000000000E+00 0. -1.
         11    1    3    3    0    0  0.48741476585E+02 -0.87510703581E+01  0.22601111950E+02  0.54434575717E+02  0.00000000000E+00 0.  1.
<mgrwt>
<rscale>  0 0.11877680E+03</rscale>
<asrwt>0</asrwt>
<pdfrwt beam="1">  1        1 0.25803169E-01 0.12874319E+03</pdfrwt>
<pdfrwt beam="2">  1       -1 0.18774244E-01 0.12874319E+03</pdfrwt>
<totfact> 0.39351059E+03</totfact>
</mgrwt>
</event>
<event>
 7    1  0.1254976E-005  0.1295900E+03  0.7546771E-02  0.1242040E+00
         -1   -1    0    0    0  501 -0.00000000000E+00  0.00000000000E+00  0.70500175990E+03  0.70500175990E+03  0.00000000000E+00 0.  1.
          1   -1    0    0  501    0  0.00000000000E+00 -0.00000000000E+00 -0.26180200387E+02  0.26180200387E+02  0.00000000000E+00 0. -1.
         23    2    1    2    0    0  0.14532575906E+02  0.30927416204E+02  0.10612295660E+03  0.14400459531E+03  0.91145711461E+02 0.  0.
          5    1    1    2  502    0  0.14540666075E+01  0.18784830633E+02  0.48217767894E+03  0.48256853217E+03  0.47000000000E+01 0.  1.
         -5    1    1    2    0  502 -0.15986642513E+02 -0.49712246837E+02  0.90520923971E+02  0.10460883281E+03  0.47000000000E+01 0.  1.
        -11    1    3    3    0    0  0.38241668530E+02  0.44518548932E+02  0.10007597965E+03  0.11601520639E+03  0.00000000000E+00 0.  1.
         11    1    3    3    0    0 -0.23709092625E+02 -0.13591132728E+02  0.60469769503E+01  0.27989388921E+02  0.00000000000E+00 0. -1.
<mgrwt>
<rscale>  0 0.12064308E+03</rscale>
<asrwt>0</asrwt>
<pdfrwt beam="2">  1        1 0.40277237E-02 0.12959000E+03</pdfrwt>
<pdfrwt beam="1">  1       -1 0.10846180E+00 0.12959000E+03</pdfrwt>
<totfact> 0.18310288E+03</totfact>
</mgrwt>
</event>
<event>
 7    1  0.1254976E-005  0.1304551E+03  0.7546771E-02  0.1240537E+00
         -1   -1    0    0    0  501 -0.00000000000E+00  0.00000000000E+00  0.63619558585E+02  0.63619558585E+02  0.00000000000E+00 0.  1.
          1   -1    0    0  501    0  0.00000000000E+00 -0.00000000000E+00 -0.20605068367E+03  0.20605068367E+03  0.00000000000E+00 0. -1.
         23    2    1    2    0    0  0.10986555040E+02 -0.35585552620E+02 -0.56180611079E+02  0.11328073478E+03  0.91045196820E+02 0.  0.
          5    1    1    2  502    0 -0.61192388437E+02  0.29031563032E+02 -0.80359078784E+02  0.10519986501E+03  0.47000000000E+01 0.  1.
         -5    1    1    2    0  502  0.50205833397E+02  0.65539895877E+01 -0.58914352183E+01  0.51189642464E+02  0.47000000000E+01 0.  1.
        -11    1    3    3    0    0  0.20851724332E+02 -0.87697891635E+01  0.21071075736E+02  0.30914298346E+02  0.00000000000E+00 0.  1.
         11    1    3    3    0    0 -0.98651692918E+01 -0.26815763457E+02 -0.77251686815E+02  0.82366436433E+02  0.00000000000E+00 0. -1.
<mgrwt>
<rscale>  0 0.12156518E+03</rscale>
<asrwt>0</asrwt>
<pdfrwt beam="2">  1        1 0.31700104E-01 0.13045508E+03</pdfrwt>
<pdfrwt beam="1">  1       -1 0.97876246E-02 0.13045508E+03</pdfrwt>
<totfact> 0.83948326E+03</totfact>
</mgrwt>
</event>
<event>
 7    1  0.1254976E-005  0.1577278E+03  0.7546771E-02  0.1192242E+00
         -2   -1    0    0    0  501 -0.00000000000E+00  0.00000000000E+00  0.11792891470E+03  0.11792891470E+03  0.00000000000E+00 0.  1.
          2   -1    0    0  501    0  0.00000000000E+00 -0.00000000000E+00 -0.21480900388E+03  0.21480900388E+03  0.00000000000E+00 0. -1.
         23    2    1    2    0    0 -0.60561973539E+02 -0.74742049194E+02 -0.80496251662E+02  0.17416144445E+03  0.12082398622E+03 0.  0.
          5    1    1    2  502    0  0.61693188415E+02  0.85906326133E+02 -0.54140251919E+02  0.11890838172E+03  0.47000000000E+01 0. -1.
         -5    1    1    2    0  502 -0.11312148764E+01 -0.11164276938E+02  0.37756414396E+02  0.39668092400E+02  0.47000000000E+01 0. -1.
        -11    1    3    3    0    0 -0.21744906920E+02 -0.11498977665E+02 -0.95360447931E+02  0.98481889166E+02  0.00000000000E+00 0. -1.
         11    1    3    3    0    0 -0.38817066619E+02 -0.63243071530E+02  0.14864196269E+02  0.75679555285E+02  0.00000000000E+00 0.  1.
<mgrwt>
<rscale>  0 0.15690007E+03</rscale>
<asrwt>0</asrwt>
<pdfrwt beam="2">  1        2 0.33047539E-01 0.15772783E+03</pdfrwt>
<pdfrwt beam="1">  1       -2 0.18142910E-01 0.15772783E+03</pdfrwt>
<totfact> 0.37956181E+03</totfact>
</mgrwt>
</event>
<event>
 7    1  0.1254976E-005  0.1300666E+03  0.7546771E-02  0.1241066E+00
         -1   -1    0    0    0  501 -0.00000000000E+00  0.00000000000E+00  0.15853795370E+02  0.15853795370E+02  0.00000000000E+00 0.  1.
          1   -1    0    0  501    0  0.00000000000E+00 -0.00000000000E+00 -0.83249956724E+03  0.83249956724E+03  0.00000000000E+00 0. -1.
         23    2    1    2    0    0  0.26669573596E+02 -0.24101463318E+02 -0.40008776377E+03  0.41196146041E+03  0.91377674807E+02 0.  0.
          5    1    1    2  502    0 -0.63085700972E+02  0.15447069704E+02 -0.37354970622E+03  0.37918318877E+03  0.47000000000E+01 0. -1.
         -5    1    1    2    0  502  0.36416127376E+02  0.86543936132E+01 -0.43008301883E+02  0.57208713433E+02  0.47000000000E+01 0. -1.
        -11    1    3    3    0    0  0.58963543423E+02 -0.31285311275E+01 -0.21864388552E+03  0.22647656797E+03  0.00000000000E+00 0. -1.
         11    1    3    3    0    0 -0.32293969827E+02 -0.20972932190E+02 -0.18144387824E+03  0.18548489244E+03  0.00000000000E+00 0.  1.
<mgrwt>
<rscale>  0 0.12123984E+03</rscale>
<asrwt>0</asrwt>
<pdfrwt beam="2">  1        1 0.12807686E+00 0.13006659E+03</pdfrwt>
<pdfrwt beam="1">  1       -1 0.24390454E-02 0.13006659E+03</pdfrwt>
<totfact> 0.10615980E+04</totfact>
</mgrwt>
</event>
