<event>
 7    1  0.8653652E-006  0.7826037E+02  0.7561462E-02  0.1334062E+00
          1   -1    0    0  501    0  0.00000000000E+00  0.00000000000E+00  0.19296386680E+03  0.19296386680E+03  0.00000000000E+00 0. -1.
         -1   -1    0    0    0  501 -0.00000000000E+00 -0.00000000000E+00 -0.78892284249E+02  0.78892284249E+02  0.00000000000E+00 0.  1.
         23    2    1    2    0    0  0.48237657184E+01 -0.99459335831E+01 -0.67913037174E+01  0.12576158384E+03  0.12509062256E+03 0.  0.
          5    1    3    3  502    0  0.39164015480E+02 -0.78110211301E+01  0.46971486715E+02  0.61795025073E+02  0.41800000000E+01 0.  1.
         -5    1    3    3    0  502 -0.34340249762E+02 -0.21349124530E+01 -0.53762790432E+02  0.63966558762E+02  0.41800000000E+01 0.  1.
        -11    1    1    2    0    0  0.21073047703E+00  0.45649970106E+02  0.60637535065E+02  0.75900427118E+02  0.00000000000E+00 0.  1.
         11    1    1    2    0    0 -0.50344961954E+01 -0.35704036523E+02  0.60225351205E+02  0.70194140095E+02  0.00000000000E+00 0. -1.
</event>
<event>
 7    1  0.8653652E-006  0.1125520E+03  0.7561462E-02  0.1255916E+00
         -1   -1    0    0    0  501 -0.00000000000E+00  0.00000000000E+00  0.18655623404E+02  0.18655623404E+02  0.00000000000E+00 0.  1.
          1   -1    0    0  501    0  0.00000000000E+00 -0.00000000000E+00 -0.83486087320E+03  0.83486087320E+03  0.00000000000E+00 0. -1.
         23    2    1    2    0    0 -0.37169588848E+02  0.47452520666E+02 -0.40960511882E+03  0.43250117118E+03  0.12509032598E+03 0.  0.
          5    1    3    3  502    0  0.33668152796E+02  0.80375274423E+01 -0.35755654868E+02  0.49940821130E+02  0.41800000000E+01 0. -1.
         -5    1    3    3    0  502 -0.70837741644E+02  0.39414993223E+02 -0.37384946395E+03  0.38256035005E+03  0.41800000000E+01 0. -1.
        -11    1    1    2    0    0  0.58484557558E+02 -0.60441436009E+02 -0.32280125838E+03  0.33357797150E+03  0.00000000000E+00 0.  1.
         11    1    1    2    0    0 -0.21314968710E+02  0.12988915343E+02 -0.83798872596E+02  0.87437353924E+02  0.00000000000E+00 0. -1.
</event>
<event>
 7    1  0.8653652E-006  0.1267120E+03  0.7561462E-02  0.1232418E+00
          1   -1    0    0  501    0  0.00000000000E+00  0.00000000000E+00  0.50147631608E+02  0.50147631608E+02  0.00000000000E+00 0. -1.
         -1   -1    0    0    0  501 -0.00000000000E+00 -0.00000000000E+00 -0.45038806132E+03  0.45038806132E+03  0.00000000000E+00 0.  1.
         23    2    1    2    0    0  0.10108169349E+03 -0.21540481310E+02 -0.25299912828E+03  0.30052767430E+03  0.12500729186E+03 0.  0.
          5    1    3    3  502    0  0.91416852943E+01  0.24395682440E+02  0.10895577534E+01  0.26407939485E+02  0.41800000000E+01 0.  1.
         -5    1    3    3    0  502  0.91940008194E+02 -0.45936163749E+02 -0.25408868604E+03  0.27411973482E+03  0.41800000000E+01 0.  1.
        -11    1    1    2    0    0 -0.72081444801E+02  0.46613546441E+02 -0.60045738419E+02  0.10475709092E+03  0.00000000000E+00 0. -1.
         11    1    1    2    0    0 -0.29000248687E+02 -0.25073065131E+02 -0.87195563010E+02  0.95250927700E+02  0.00000000000E+00 0.  1.
</event>
<event>
 7    1  0.8653652E-006  0.9887615E+02  0.7561462E-02  0.1282677E+00
         -1   -1    0    0    0  501 -0.00000000000E+00  0.00000000000E+00  0.14761342288E+03  0.14761342288E+03  0.00000000000E+00 0.  1.
          1   -1    0    0  501    0  0.00000000000E+00 -0.00000000000E+00 -0.82240003321E+02  0.82240003321E+02  0.00000000000E+00 0. -1.
         23    2    1    2    0    0 -0.97839433711E+01  0.19743347248E+02  0.51992407844E+02  0.13724577513E+03  0.12509063518E+03 0.  0.
          5    1    3    3  502    0 -0.57636836888E+02 -0.13468712289E+02  0.51922682569E+02  0.78846994504E+02  0.41800000000E+01 0. -1.
         -5    1    3    3    0  502  0.47852893517E+02  0.33212059537E+02  0.69725274956E-01  0.58398780623E+02  0.41800000000E+01 0. -1.
        -11    1    1    2    0    0  0.41017232954E+02  0.33783494133E+01  0.29396398675E+02  0.50576426317E+02  0.00000000000E+00 0.  1.
         11    1    1    2    0    0 -0.31233289583E+02 -0.23121696661E+02 -0.16015386962E+02  0.42031224753E+02  0.00000000000E+00 0. -1.
</event>
<event>
 7    1  0.8653652E-006  0.5166746E+02  0.7561462E-02  0.1436550E+00
          4   -1    0    0  501    0  0.00000000000E+00  0.00000000000E+00  0.99293674840E+02  0.99293674840E+02  0.00000000000E+00 0. -1.
         -4   -1    0    0    0  501 -0.00000000000E+00 -0.00000000000E+00 -0.92098607479E+02  0.92098607479E+02  0.00000000000E+00 0.  1.
         23    2    1    2    0    0  0.23717302446E+02  0.19297291603E+02 -0.41588786199E+02  0.12181125506E+03  0.11033339850E+03 0.  0.
          5    1    3    3  502    0 -0.85465207386E+01  0.21433124170E+02  0.32956579733E+02  0.40447872331E+02  0.41800000000E+01 0. -1.
         -5    1    3    3    0  502  0.32263823184E+02 -0.21358325668E+01 -0.74545365933E+02  0.81363382730E+02  0.41800000000E+01 0.  1.
        -11    1    1    2    0    0 -0.15803214554E+02 -0.30037188876E+02  0.43635185382E+02  0.55281133392E+02  0.00000000000E+00 0. -1.
         11    1    1    2    0    0 -0.79140878916E+01  0.10739897272E+02  0.51486681785E+01  0.14299893866E+02  0.00000000000E+00 0.  1.
</event>
<event>
 7    1  0.8653652E-006  0.1626251E+03  0.7561462E-02  0.1185765E+00
          1   -1    0    0  501    0  0.00000000000E+00  0.00000000000E+00  0.70132523379E+02  0.70132523379E+02  0.00000000000E+00 0. -1.
         -1   -1    0    0    0  501 -0.00000000000E+00 -0.00000000000E+00 -0.50365212749E+03  0.50365212749E+03  0.00000000000E+00 0.  1.
         23    2    1    2    0    0  0.33081324199E+02 -0.13041267423E+03 -0.33908762005E+03  0.38565388005E+03  0.12508661605E+03 0.  0.
          5    1    3    3  502    0  0.46640388214E+02 -0.19255865363E+02 -0.20374371824E+03  0.20994068040E+03  0.41800000000E+01 0. -1.
         -5    1    3    3    0  502 -0.13559064015E+02 -0.11115680886E+03 -0.13534390180E+03  0.17571319964E+03  0.41800000000E+01 0. -1.
        -11    1    1    2    0    0  0.31982545854E+02  0.43284730153E+02 -0.35148081309E+02  0.64279380235E+02  0.00000000000E+00 0.  1.
         11    1    1    2    0    0 -0.65063870053E+02  0.87127944074E+02 -0.59283902754E+02  0.12385139059E+03  0.00000000000E+00 0. -1.
</event>
<event>
 7    1  0.8653652E-006  0.2024274E+03  0.7561462E-02  0.1147707E+00
          1   -1    0    0  501    0  0.00000000000E+00  0.00000000000E+00  0.16695146144E+03  0.16695146144E+03  0.00000000000E+00 0. -1.
         -1   -1    0    0    0  501 -0.00000000000E+00 -0.00000000000E+00 -0.30866803830E+03  0.30866803830E+03  0.00000000000E+00 0.  1.
         23    2    1    2    0    0  0.43974868043E+02 -0.17328350002E+03 -0.16573748313E+03  0.27400468095E+03  0.12509472999E+03 0.  0.
          5    1    3    3  502    0  0.20403530159E+02  0.13715393025E+02 -0.40869947675E+02  0.47877354477E+02  0.41800000000E+01 0.  1.
         -5    1    3    3    0  502  0.23571337884E+02 -0.18699889304E+03 -0.12486753546E+03  0.22612732648E+03  0.41800000000E+01 0.  1.
        -11    1    1    2    0    0 -0.51378163863E+01  0.14042735898E+03  0.43563945510E+02  0.14711919540E+03  0.00000000000E+00 0. -1.
         11    1    1    2    0    0 -0.38837051656E+02  0.32856141037E+02 -0.19543039246E+02  0.54495623385E+02  0.00000000000E+00 0.  1.
</event>
<event>
 7    1  0.8653652E-006  0.7840041E+02  0.7561462E-02  0.1333653E+00
          1   -1    0    0  501    0  0.00000000000E+00  0.00000000000E+00  0.40579942612E+03  0.40579942612E+03  0.00000000000E+00 0. -1.
         -1   -1    0    0    0  501 -0.00000000000E+00 -0.00000000000E+00 -0.61054261564E+02  0.61054261564E+02  0.00000000000E+00 0.  1.
         23    2    1    2    0    0 -0.16170231444E+02  0.44622017487E+02  0.14436110199E+02  0.12173196818E+03  0.11116505732E+03 0.  0.
          5    1    3    3  502    0 -0.31531781445E+02  0.44029266539E+02  0.55517855335E+02  0.77669390458E+02  0.41800000000E+01 0. -1.
         -5    1    3    3    0  502  0.15361550001E+02  0.59275094722E+00 -0.41081745136E+02  0.44062577722E+02  0.41800000000E+01 0.  1.
        -11    1    1    2    0    0 -0.15343542504E+02  0.13500146096E+02  0.22944683954E+02  0.30726808538E+02  0.00000000000E+00 0.  1.
         11    1    1    2    0    0  0.31513773949E+02 -0.58122163582E+02  0.30736437040E+03  0.31439491096E+03  0.00000000000E+00 0. -1.
</event>
<event>
 7    1  0.8653652E-006  0.1157334E+03  0.7561462E-02  0.1250306E+00
         -1   -1    0    0    0  501 -0.00000000000E+00  0.00000000000E+00  0.46912816901E+03  0.46912816901E+03  0.00000000000E+00 0.  1.
          1   -1    0    0  501    0  0.00000000000E+00 -0.00000000000E+00 -0.52306827710E+02  0.52306827710E+02  0.00000000000E+00 0. -1.
         23    2    1    2    0    0 -0.18075651274E+02 -0.47989955965E+02  0.38859973957E+03  0.41144453146E+03  0.12508828815E+03 0.  0.
          5    1    3    3  502    0  0.20199644029E+02  0.36482965462E+02  0.10586589996E+03  0.11385997348E+03  0.41800000000E+01 0.  1.
         -5    1    3    3    0  502 -0.38275295302E+02 -0.84472921427E+02  0.28273383961E+03  0.29758455798E+03  0.41800000000E+01 0.  1.
        -11    1    1    2    0    0 -0.28742940794E+02 -0.12588557067E+01 -0.11836641690E+02  0.31110246699E+02  0.00000000000E+00 0. -1.
         11    1    1    2    0    0  0.46818592067E+02  0.49248811672E+02  0.40058243422E+02  0.78880218562E+02  0.00000000000E+00 0.  1.
</event>
<event>
 7    1  0.8653652E-006  0.6955117E+02  0.7561462E-02  0.1361626E+00
         -2   -1    0    0    0  501 -0.00000000000E+00  0.00000000000E+00  0.45958861660E+03  0.45958861660E+03  0.00000000000E+00 0.  1.
          2   -1    0    0  501    0  0.00000000000E+00 -0.00000000000E+00 -0.31605251976E+02  0.31605251976E+02  0.00000000000E+00 0. -1.
         23    2    1    2    0    0 -0.39333157901E+02  0.10605731722E+02  0.32173481749E+03  0.34759061393E+03  0.12508542384E+03 0.  0.
          5    1    3    3  502    0  0.95173571390E+01  0.36659176815E+02  0.24696173040E+02  0.45407584108E+02  0.41800000000E+01 0.  1.
         -5    1    3    3    0  502 -0.48850515040E+02 -0.26053445093E+02  0.29703864444E+03  0.30218302983E+03  0.41800000000E+01 0.  1.
        -11    1    1    2    0    0  0.61574188559E+01 -0.10648676065E+02 -0.14131607041E+02  0.18735272255E+02  0.00000000000E+00 0. -1.
         11    1    1    2    0    0  0.33175739045E+02  0.42944342532E-01  0.12038015418E+03  0.12486798239E+03  0.00000000000E+00 0.  1.
</event>
<event>
 7    1  0.8653652E-006  0.1227109E+03  0.7561462E-02  0.1238691E+00
          3   -1    0    0  501    0  0.00000000000E+00  0.00000000000E+00  0.49959919718E+02  0.49959919718E+02  0.00000000000E+00 0. -1.
         -3   -1    0    0    0  501 -0.00000000000E+00 -0.00000000000E+00 -0.58367715760E+03  0.58367715760E+03  0.00000000000E+00 0.  1.
         23    2    1    2    0    0  0.53609011837E+02 -0.46835874490E+01 -0.49510719396E+03  0.51349221940E+03  0.12508902322E+03 0.  0.
          5    1    3    3  502    0  0.45631870266E+02 -0.61487373120E+02 -0.23875473554E+03  0.25076734392E+03  0.41800000000E+01 0.  1.
         -5    1    3    3    0  502  0.79771415704E+01  0.56803785671E+02 -0.25635245843E+03  0.26272487548E+03  0.41800000000E+01 0.  1.
        -11    1    1    2    0    0 -0.55519247919E+02  0.44629354647E+02 -0.36642245999E+02  0.80105058376E+02  0.00000000000E+00 0. -1.
         11    1    1    2    0    0  0.19102360819E+01 -0.39945767198E+02 -0.19677979260E+01  0.40039799545E+02  0.00000000000E+00 0.  1.
</event>
<event>
 7    1  0.8653652E-006  0.6432563E+02  0.7561462E-02  0.1380526E+00
          1   -1    0    0  501    0  0.00000000000E+00  0.00000000000E+00  0.42412703474E+02  0.42412703474E+02  0.00000000000E+00 0. -1.
         -1   -1    0    0    0  501 -0.00000000000E+00 -0.00000000000E+00 -0.33150944741E+03  0.33150944741E+03  0.00000000000E+00 0.  1.
         23    2    1    2    0    0 -0.47973686074E+02  0.19691033709E+01 -0.15431516087E+03  0.20436548646E+03  0.12508689482E+03 0.  0.
          5    1    3    3  502    0 -0.60486872827E+02 -0.42538278506E+01 -0.17142527144E+03  0.18188142545E+03  0.41800000000E+01 0.  1.
         -5    1    3    3    0  502  0.12513186753E+02  0.62229312216E+01  0.17110110565E+02  0.22484061005E+02  0.41800000000E+01 0.  1.
        -11    1    1    2    0    0  0.69945744245E+01  0.84813799219E+01  0.12311096974E+02  0.16505180564E+02  0.00000000000E+00 0. -1.
         11    1    1    2    0    0  0.40979111650E+02 -0.10450483293E+02 -0.14709268003E+03  0.15305148386E+03  0.00000000000E+00 0.  1.
</event>
<event>
 7    1  0.8653652E-006  0.8014686E+02  0.7561462E-02  0.1328635E+00
          3   -1    0    0  501    0  0.00000000000E+00  0.00000000000E+00  0.17552863687E+03  0.17552863687E+03  0.00000000000E+00 0. -1.
         -3   -1    0    0    0  501 -0.00000000000E+00 -0.00000000000E+00 -0.10322983832E+03  0.10322983832E+03  0.00000000000E+00 0.  1.
         23    2    1    2    0    0  0.87673329484E+01  0.72535662067E+02  0.40616295040E+01  0.14491802130E+03  0.12508576124E+03 0.  0.
          5    1    3    3  502    0  0.15791177455E+02  0.31383509665E+02  0.63187607172E+02  0.72418451133E+02  0.41800000000E+01 0. -1.
         -5    1    3    3    0  502 -0.70238445066E+01  0.41152152402E+02 -0.59125977668E+02  0.72499570166E+02  0.41800000000E+01 0. -1.
        -11    1    1    2    0    0 -0.24393697321E+02 -0.48494767106E+02 -0.56569063127E+01  0.54578342726E+02  0.00000000000E+00 0.  1.
         11    1    1    2    0    0  0.15626364373E+02 -0.24040894961E+02  0.73894075356E+02  0.79262111167E+02  0.00000000000E+00 0. -1.
</event>
<event>
 7    1  0.8653652E-006  0.1886338E+03  0.7561462E-02  0.1159699E+00
          2   -1    0    0  501    0  0.00000000000E+00  0.00000000000E+00  0.33486970367E+02  0.33486970367E+02  0.00000000000E+00 0. -1.
         -2   -1    0    0    0  501 -0.00000000000E+00 -0.00000000000E+00 -0.12685589952E+04  0.12685589952E+04  0.00000000000E+00 0.  1.
         23    2    1    2    0    0  0.88889336436E+02  0.14994164357E+03 -0.59378198504E+03  0.63135456854E+03  0.12509090634E+03 0.  0.
          5    1    3    3  502    0  0.85829407901E+02  0.88522734758E+02 -0.52364840798E+03  0.53798521300E+03  0.41800000000E+01 0. -1.
         -5    1    3    3    0  502  0.30599285344E+01  0.61418908808E+02 -0.70133577059E+02  0.93369355534E+02  0.41800000000E+01 0. -1.
        -11    1    1    2    0    0 -0.67825146793E+02 -0.36783312097E+02 -0.19277745698E+03  0.20764491447E+03  0.00000000000E+00 0.  1.
         11    1    1    2    0    0 -0.21064189643E+02 -0.11315833147E+03 -0.44851258284E+03  0.46304648258E+03  0.00000000000E+00 0. -1.
</event>
<event>
 7    1  0.8653652E-006  0.1811826E+03  0.7561462E-02  0.1166663E+00
         -1   -1    0    0    0  501 -0.00000000000E+00  0.00000000000E+00  0.19044974676E+03  0.19044974676E+03  0.00000000000E+00 0.  1.
          1   -1    0    0  501    0  0.00000000000E+00 -0.00000000000E+00 -0.19031252609E+03  0.19031252609E+03  0.00000000000E+00 0. -1.
         23    2    1    2    0    0 -0.14912196609E+03 -0.35695455586E+02 -0.28362100362E+02  0.19991077766E+03  0.12509350090E+03 0.  0.
          5    1    3    3  502    0  0.35594621931E+01  0.30321160272E+02  0.15299180928E+01  0.30852156824E+02  0.41800000000E+01 0. -1.
         -5    1    3    3    0  502 -0.15268142828E+03 -0.66016615858E+02 -0.29892018455E+02  0.16905862083E+03  0.41800000000E+01 0. -1.
        -11    1    1    2    0    0  0.13719912855E+01 -0.10316454616E+02  0.23862629833E+02  0.26033376624E+02  0.00000000000E+00 0.  1.
         11    1    1    2    0    0  0.14774997480E+03  0.46011910202E+02  0.46366911979E+01  0.15481811858E+03  0.00000000000E+00 0. -1.
</event>
<event>
 6    1  0.8653652E-006  0.1511488E+03  0.7561462E-02  0.1199068E+00
          1   -1    0    0  501    0  0.00000000000E+00  0.00000000000E+00  0.13567614463E+04  0.13567614463E+04  0.00000000000E+00 0. -1.
         -1   -1    0    0    0  501 -0.00000000000E+00 -0.00000000000E+00 -0.18590804909E+02  0.18590804909E+02  0.00000000000E+00 0.  1.
          5    1    1    2  502    0  0.33739948871E+02  0.32234563545E+02  0.35980405118E+03  0.36284139632E+03  0.41800000000E+01 0. -1.
         -5    1    1    2    0  502 -0.10564019865E+03 -0.77922763476E+02  0.40194141247E+03  0.42285479789E+03  0.41800000000E+01 0.  1.
        -11    1    1    2    0    0  0.31601220357E+02  0.70170678965E+02  0.36876783494E+03  0.37671245984E+03  0.00000000000E+00 0. -1.
         11    1    1    2    0    0  0.40299029425E+02 -0.24482479033E+02  0.20765734281E+03  0.21294359717E+03  0.00000000000E+00 0.  1.
</event>
<event>
 7    1  0.8653652E-006  0.1491620E+03  0.7561462E-02  0.1201506E+00
         -2   -1    0    0    0  501 -0.00000000000E+00  0.00000000000E+00  0.22614463435E+03  0.22614463435E+03  0.00000000000E+00 0.  1.
          2   -1    0    0  501    0  0.00000000000E+00 -0.00000000000E+00 -0.18784227651E+03  0.18784227651E+03  0.00000000000E+00 0. -1.
         23    2    1    2    0    0 -0.13378005057E+03 -0.38289490069E+02  0.12632463306E+03  0.22576361937E+03  0.12509241358E+03 0.  0.
          5    1    3    3  502    0  0.82608274542E+00 -0.12213614707E+02 -0.20874615563E+02  0.24557621461E+02  0.41800000000E+01 0.  1.
         -5    1    3    3    0  502 -0.13460613332E+03 -0.26075875362E+02  0.14719924862E+03  0.20120599791E+03  0.41800000000E+01 0.  1.
        -11    1    1    2    0    0  0.69617630684E+02  0.46222727758E+02 -0.90943172065E+02  0.12350633833E+03  0.00000000000E+00 0.  1.
         11    1    1    2    0    0  0.64162419888E+02 -0.79332376890E+01  0.29208968519E+01  0.64716953146E+02  0.00000000000E+00 0. -1.
</event>
<event>
 7    1  0.8653652E-006  0.1203097E+03  0.7561462E-02  0.1242587E+00
         -1   -1    0    0    0  501 -0.00000000000E+00  0.00000000000E+00  0.57898996455E+03  0.57898996455E+03  0.00000000000E+00 0.  1.
          1   -1    0    0  501    0  0.00000000000E+00 -0.00000000000E+00 -0.27674601294E+02  0.27674601294E+02  0.00000000000E+00 0. -1.
         23    2    1    2    0    0  0.48204120465E+02  0.24218512947E+02  0.39468453909E+03  0.41753219349E+03  0.12508826325E+03 0.  0.
          5    1    3    3  502    0  0.79631598228E+02 -0.18909544512E+02  0.25961752906E+03  0.27224528666E+03  0.41800000000E+01 0. -1.
         -5    1    3    3    0  502 -0.31427477763E+02  0.43128057458E+02  0.13506701003E+03  0.14528690683E+03  0.41800000000E+01 0. -1.
        -11    1    1    2    0    0 -0.50489253455E+02 -0.54776620283E+02  0.12144970707E+03  0.14247692512E+03  0.00000000000E+00 0.  1.
         11    1    1    2    0    0  0.22851329904E+01  0.30558107337E+02  0.35181117093E+02  0.46655447235E+02  0.00000000000E+00 0. -1.
</event>
<event>
 7    1  0.8653652E-006  0.2343772E+03  0.7561462E-02  0.1123596E+00
          1   -1    0    0  501    0  0.00000000000E+00  0.00000000000E+00  0.36374299638E+03  0.36374299638E+03  0.00000000000E+00 0. -1.
         -1   -1    0    0    0  501 -0.00000000000E+00 -0.00000000000E+00 -0.44656916099E+03  0.44656916099E+03  0.00000000000E+00 0.  1.
         23    2    1    2    0    0 -0.14247831412E+03  0.15203448139E+03 -0.37095990874E+03  0.44347952553E+03  0.12509309393E+03 0.  0.
          5    1    3    3  502    0 -0.16441729053E+03  0.14508843364E+03 -0.34154625554E+03  0.40590025385E+03  0.41800000000E+01 0. -1.
         -5    1    3    3    0  502  0.21938976418E+02  0.69460477571E+01 -0.29413653204E+02  0.37579271687E+02  0.41800000000E+01 0. -1.
        -11    1    1    2    0    0  0.22256318113E+00 -0.52325384177E+02  0.81828308943E+02  0.97128098448E+02  0.00000000000E+00 0. -1.
         11    1    1    2    0    0  0.14225575094E+03 -0.99709097216E+02  0.20630543519E+03  0.26970453339E+03  0.00000000000E+00 0.  1.
</event>
<event>
 7    1  0.8653652E-006  0.1843670E+03  0.7561462E-02  0.1163642E+00
         -3   -1    0    0    0  501 -0.00000000000E+00  0.00000000000E+00  0.10109120555E+03  0.10109120555E+03  0.00000000000E+00 0. -1.
          3   -1    0    0  501    0  0.00000000000E+00 -0.00000000000E+00 -0.41370595174E+03  0.41370595174E+03  0.00000000000E+00 0.  1.
         23    2    1    2    0    0  0.13020071757E+03 -0.94856007248E+02 -0.83136710639E+02  0.22024404448E+03  0.12508332226E+03 0.  0.
          5    1    3    3  502    0  0.27330194176E+02 -0.82937524508E+02 -0.75570831763E-01  0.87424542299E+02  0.41800000000E+01 0. -1.
         -5    1    3    3    0  502  0.10287052340E+03 -0.11918482740E+02 -0.83061139807E+02  0.13281950219E+03  0.41800000000E+01 0. -1.
        -11    1    1    2    0    0 -0.12993638615E+03  0.60537029502E+02 -0.14749752640E+03  0.20567867338E+03  0.00000000000E+00 0. -1.
         11    1    1    2    0    0 -0.26433142120E+00  0.34318977746E+02 -0.81980509145E+02  0.88874439431E+02  0.00000000000E+00 0.  1.
</event>
<event>
 7    1  0.8653652E-006  0.1242807E+03  0.7561462E-02  0.1236198E+00
         -2   -1    0    0    0  501 -0.00000000000E+00  0.00000000000E+00  0.86691963084E+02  0.86691963084E+02  0.00000000000E+00 0.  1.
          2   -1    0    0  501    0  0.00000000000E+00 -0.00000000000E+00 -0.21903138459E+03  0.21903138459E+03  0.00000000000E+00 0. -1.
         23    2    1    2    0    0 -0.32189670546E+02  0.80158656757E+02 -0.85837016433E+02  0.17457474328E+03  0.12508701955E+03 0.  0.
          5    1    3    3  502    0  0.48234525319E+02  0.32662690518E+02 -0.36336207745E+02  0.68783814796E+02  0.41800000000E+01 0. -1.
         -5    1    3    3    0  502 -0.80424195865E+02  0.47495966239E+02 -0.49500808688E+02  0.10579092849E+03  0.41800000000E+01 0. -1.
        -11    1    1    2    0    0  0.38383575944E+02 -0.37860698193E+02  0.15262487857E+02  0.56032802050E+02  0.00000000000E+00 0.  1.
         11    1    1    2    0    0 -0.61939053988E+01 -0.42297958564E+02 -0.61764892934E+02  0.75115802345E+02  0.00000000000E+00 0. -1.
</event>
<event>
 7    1  0.8653652E-006  0.2127934E+03  0.7561462E-02  0.1139373E+00
         -2   -1    0    0    0  501 -0.00000000000E+00  0.00000000000E+00  0.14072793926E+03  0.14072793926E+03  0.00000000000E+00 0.  1.
          2   -1    0    0  501    0  0.00000000000E+00 -0.00000000000E+00 -0.39083121735E+03  0.39083121735E+03  0.00000000000E+00 0. -1.
         23    2    1    2    0    0 -0.76949930079E+01  0.20276227160E+03 -0.17802843205E+03  0.29751405778E+03  0.12509492498E+03 0.  0.
          5    1    3    3  502    0  0.13998117711E+02  0.10203737237E+03 -0.16363587401E+03  0.19339530584E+03  0.41800000000E+01 0. -1.
         -5    1    3    3    0  502 -0.21693110719E+02  0.10072489923E+03 -0.14392558042E+02  0.10411875194E+03  0.41800000000E+01 0. -1.
        -11    1    1    2    0    0  0.45075767856E+02 -0.91197003015E+02 -0.53460798021E+02  0.11492073413E+03  0.00000000000E+00 0.  1.
         11    1    1    2    0    0 -0.37380774848E+02 -0.11156526858E+03 -0.18614048019E+02  0.11912436470E+03  0.00000000000E+00 0. -1.
</event>
<event>
 7    1  0.8653652E-006  0.1194726E+03  0.7561462E-02  0.1243970E+00
          3   -1    0    0  501    0  0.00000000000E+00  0.00000000000E+00  0.10463068486E+04  0.10463068486E+04  0.00000000000E+00 0. -1.
         -3   -1    0    0    0  501 -0.00000000000E+00 -0.00000000000E+00 -0.21503506483E+02  0.21503506483E+02  0.00000000000E+00 0.  1.
         23    2    1    2    0    0 -0.37944199725E+01 -0.10295039188E+03  0.50132864711E+03  0.52686951878E+03  0.12509155286E+03 0.  0.
          5    1    3    3  502    0  0.37295103955E+01 -0.66910192812E+02  0.82342115469E+02  0.10624772717E+03  0.41800000000E+01 0. -1.
         -5    1    3    3    0  502 -0.75239303679E+01 -0.36040199065E+02  0.41898653164E+03  0.42062179161E+03  0.41800000000E+01 0. -1.
        -11    1    1    2    0    0 -0.37617757629E+02  0.77479917244E+02  0.37264713317E+03  0.38247106965E+03  0.00000000000E+00 0. -1.
         11    1    1    2    0    0  0.41412177601E+02  0.25470474632E+02  0.15082756187E+03  0.15846976668E+03  0.00000000000E+00 0.  1.
</event>
<event>
 7    1  0.8653652E-006  0.1870057E+03  0.7561462E-02  0.1161190E+00
          1   -1    0    0  501    0  0.00000000000E+00  0.00000000000E+00  0.56356909319E+02  0.56356909319E+02  0.00000000000E+00 0. -1.
         -1   -1    0    0    0  501 -0.00000000000E+00 -0.00000000000E+00 -0.65073626971E+03  0.65073626971E+03  0.00000000000E+00 0.  1.
         23    2    1    2    0    0 -0.14312777794E+03  0.66102316668E+02 -0.30834052269E+03  0.36820577870E+03  0.12508613212E+03 0.  0.
          5    1    3    3  502    0 -0.10881814969E+03 -0.17174066893E+02 -0.15275293955E+03  0.18838065510E+03  0.41800000000E+01 0. -1.
         -5    1    3    3    0  502 -0.34309628247E+02  0.83276383561E+02 -0.15558758314E+03  0.17982512360E+03  0.41800000000E+01 0. -1.
        -11    1    1    2    0    0  0.14699780989E+02 -0.39910150566E+02 -0.12021768621E+03  0.12751939365E+03  0.00000000000E+00 0.  1.
         11    1    1    2    0    0  0.12842799695E+03 -0.26192166102E+02 -0.16582115148E+03  0.21136800667E+03  0.00000000000E+00 0. -1.
</event>
<event>
 7    1  0.8653652E-006  0.9209228E+02  0.7561462E-02  0.1297863E+00
          3   -1    0    0  501    0  0.00000000000E+00  0.00000000000E+00  0.12329567062E+03  0.12329567062E+03  0.00000000000E+00 0.  1.
         -3   -1    0    0    0  501 -0.00000000000E+00 -0.00000000000E+00 -0.19826217744E+03  0.19826217744E+03  0.00000000000E+00 0. -1.
         23    2    1    2    0    0  0.25915355759E+02  0.49610260975E+02 -0.14025728066E+03  0.19609065940E+03  0.12508660307E+03 0.  0.
          5    1    3    3  502    0  0.29496088588E+02  0.73997956609E+02 -0.33625353163E+02  0.86567046846E+02  0.41800000000E+01 0.  1.
         -5    1    3    3    0  502 -0.35807328288E+01 -0.24387695633E+02 -0.10663192749E+03  0.10952361255E+03  0.41800000000E+01 0.  1.
        -11    1    1    2    0    0 -0.40882170862E+02 -0.18464278844E+02  0.76888403400E+02  0.89017459327E+02  0.00000000000E+00 0.  1.
         11    1    1    2    0    0  0.14966815103E+02 -0.31145982131E+02 -0.11597629557E+02  0.36449729335E+02  0.00000000000E+00 0. -1.
</event>
<event>
 7    1  0.8653652E-006  0.1337198E+03  0.7561462E-02  0.1222038E+00
         -2   -1    0    0    0  501 -0.00000000000E+00  0.00000000000E+00  0.26471045428E+03  0.26471045428E+03  0.00000000000E+00 0.  1.
          2   -1    0    0  501    0  0.00000000000E+00 -0.00000000000E+00 -0.74971604171E+02  0.74971604171E+02  0.00000000000E+00 0. -1.
         23    2    1    2    0    0 -0.71574612601E+02  0.51595413824E+02  0.90977056068E+02  0.17807132154E+03  0.12509020317E+03 0.  0.
          5    1    3    3  502    0 -0.49621774280E+02  0.93107079840E+02  0.57295730250E+02  0.12013126947E+03  0.41800000000E+01 0. -1.
         -5    1    3    3    0  502 -0.21952838321E+02 -0.41511666016E+02  0.33681325818E+02  0.57940052076E+02  0.41800000000E+01 0. -1.
        -11    1    1    2    0    0  0.53941410667E+02 -0.70556852621E+02  0.40018172523E+02  0.97413548178E+02  0.00000000000E+00 0. -1.
         11    1    1    2    0    0  0.17633201934E+02  0.18961438796E+02  0.58743621520E+02  0.64197188731E+02  0.00000000000E+00 0.  1.
</event>
<event>
 7    1  0.8653652E-006  0.9063721E+02  0.7561462E-02  0.1301316E+00
          3   -1    0    0  501    0  0.00000000000E+00  0.00000000000E+00  0.16075229394E+03  0.16075229394E+03  0.00000000000E+00 0. -1.
         -3   -1    0    0    0  501 -0.00000000000E+00 -0.00000000000E+00 -0.11561332243E+03  0.11561332243E+03  0.00000000000E+00 0.  1.
         23    2    1    2    0    0 -0.51355796934E+02  0.14480384026E+02 -0.39354733536E+02  0.14157944703E+03  0.12509534511E+03 0.  0.
          5    1    3    3  502    0 -0.51375474033E+02  0.50355160049E+02 -0.65191233134E+02  0.97172273582E+02  0.41800000000E+01 0.  1.
         -5    1    3    3    0  502  0.19677098876E-01 -0.35874776024E+02  0.25836499597E+02  0.44407173445E+02  0.41800000000E+01 0.  1.
        -11    1    1    2    0    0  0.56345235621E+02  0.14910175732E+01  0.85364264021E+01  0.57007712516E+02  0.00000000000E+00 0.  1.
         11    1    1    2    0    0 -0.49894386873E+01 -0.15971401599E+02  0.75957278645E+02  0.77778456828E+02  0.00000000000E+00 0. -1.
</event>
<event>
 7    1  0.8653652E-006  0.9824265E+02  0.7561462E-02  0.1284035E+00
         -2   -1    0    0    0  501 -0.00000000000E+00  0.00000000000E+00  0.83622313236E+02  0.83622313236E+02  0.00000000000E+00 0.  1.
          2   -1    0    0  501    0  0.00000000000E+00 -0.00000000000E+00 -0.24191944974E+03  0.24191944974E+03  0.00000000000E+00 0. -1.
         23    2    1    2    0    0  0.43476165297E+02  0.60271305876E+02 -0.30250171801E+02  0.14861370878E+03  0.12509258284E+03 0.  0.
          5    1    3    3  502    0  0.24126590971E+02  0.30241455083E+02 -0.78981368920E+02  0.88046391374E+02  0.41800000000E+01 0. -1.
         -5    1    3    3    0  502  0.19349574325E+02  0.30029850793E+02  0.48731197119E+02  0.60567317407E+02  0.41800000000E+01 0. -1.
        -11    1    1    2    0    0  0.20537374159E+02  0.13003518188E+02 -0.19554848302E+02  0.31197232485E+02  0.00000000000E+00 0.  1.
         11    1    1    2    0    0 -0.64013539456E+02 -0.73274824064E+02 -0.10849211640E+03  0.14573082171E+03  0.00000000000E+00 0. -1.
</event>
<event>
 7    1  0.8653652E-006  0.9228116E+02  0.7561462E-02  0.1297420E+00
         -1   -1    0    0    0  501 -0.00000000000E+00  0.00000000000E+00  0.29202842514E+02  0.29202842514E+02  0.00000000000E+00 0.  1.
          1   -1    0    0  501    0  0.00000000000E+00 -0.00000000000E+00 -0.54910894736E+03  0.54910894736E+03  0.00000000000E+00 0. -1.
         23    2    1    2    0    0  0.67573527204E+02 -0.69140114819E+01 -0.27652540527E+03  0.31101119020E+03  0.12509066927E+03 0.  0.
          5    1    3    3  502    0  0.65677601171E+02  0.26452108261E+02 -0.26663672673E+03  0.27590918391E+03  0.41800000000E+01 0. -1.
         -5    1    3    3    0  502  0.18959260324E+01 -0.33366119743E+02 -0.98886785377E+01  0.35102006288E+02  0.41800000000E+01 0. -1.
        -11    1    1    2    0    0 -0.27375803391E+02  0.23875578908E+02 -0.23799569722E+02  0.43426920205E+02  0.00000000000E+00 0.  1.
         11    1    1    2    0    0 -0.40197723813E+02 -0.16961567427E+02 -0.21958112985E+03  0.22387367947E+03  0.00000000000E+00 0. -1.
</event>
<event>
 7    1  0.8653652E-006  0.1201695E+03  0.7561462E-02  0.1242818E+00
          1   -1    0    0  501    0  0.00000000000E+00  0.00000000000E+00  0.31107745265E+03  0.31107745265E+03  0.00000000000E+00 0. -1.
         -1   -1    0    0    0  501 -0.00000000000E+00 -0.00000000000E+00 -0.69185825807E+02  0.69185825807E+02  0.00000000000E+00 0.  1.
         23    2    1    2    0    0  0.82247896506E+02  0.57943333318E+02  0.11947905933E+03  0.20011118028E+03  0.12508833878E+03 0.  0.
          5    1    3    3  502    0  0.32958948918E+00  0.21448497478E+02 -0.22986594004E+02  0.31717543682E+02  0.41800000000E+01 0.  1.
         -5    1    3    3    0  502  0.81918307016E+02  0.36494835840E+02  0.14246565334E+03  0.16839363660E+03  0.41800000000E+01 0.  1.
        -11    1    1    2    0    0 -0.49181885460E+02 -0.76382978250E+02  0.66324017240E+02  0.11248152064E+03  0.00000000000E+00 0.  1.
         11    1    1    2    0    0 -0.33066011045E+02  0.18439644932E+02  0.56088550269E+02  0.67670577528E+02  0.00000000000E+00 0. -1.
</event>
<event>
 7    1  0.8653652E-006  0.1378877E+03  0.7561462E-02  0.1216200E+00
         -2   -1    0    0    0  501 -0.00000000000E+00  0.00000000000E+00  0.26376632196E+02  0.26376632196E+02  0.00000000000E+00 0.  1.
          2   -1    0    0  501    0  0.00000000000E+00 -0.00000000000E+00 -0.75716021057E+03  0.75716021057E+03  0.00000000000E+00 0. -1.
         23    2    1    2    0    0  0.64750625412E+02 -0.47622184563E+02 -0.33931293683E+03  0.37046134618E+03  0.12509126251E+03 0.  0.
          5    1    3    3  502    0 -0.31469431880E+02 -0.41001808956E+02 -0.10763903826E+03  0.11947848526E+03  0.41800000000E+01 0.  1.
         -5    1    3    3    0  502  0.96220057292E+02 -0.66203756071E+01 -0.23167389857E+03  0.25098286092E+03  0.41800000000E+01 0.  1.
        -11    1    1    2    0    0 -0.47022841519E+02  0.78657012641E+02 -0.22768301438E+03  0.24543355170E+03  0.00000000000E+00 0.  1.
         11    1    1    2    0    0 -0.17727783893E+02 -0.31034828078E+02 -0.16378762716E+03  0.16764194489E+03  0.00000000000E+00 0. -1.
</event>
<event>
 7    1  0.8653652E-006  0.5938309E+02  0.7561462E-02  0.1400439E+00
          2   -1    0    0  501    0  0.00000000000E+00  0.00000000000E+00  0.39519960852E+02  0.39519960852E+02  0.00000000000E+00 0. -1.
         -2   -1    0    0    0  501 -0.00000000000E+00 -0.00000000000E+00 -0.30345579992E+03  0.30345579992E+03  0.00000000000E+00 0.  1.
         23    2    1    2    0    0 -0.13879909656E+02  0.67336578291E+01 -0.17365475606E+03  0.21458440746E+03  0.12510994999E+03 0.  0.
          5    1    3    3  502    0 -0.40131841395E+01  0.19466874834E+02  0.14966999031E+02  0.25229909289E+02  0.41800000000E+01 0. -1.
         -5    1    3    3    0  502 -0.98667255164E+01 -0.12733217004E+02 -0.18862175509E+03  0.18935449818E+03  0.41800000000E+01 0. -1.
        -11    1    1    2    0    0 -0.90607288804E+01 -0.40216872679E+02 -0.16942914398E+02  0.44570797662E+02  0.00000000000E+00 0. -1.
         11    1    1    2    0    0  0.22940638536E+02  0.33483214850E+02 -0.73338168617E+02  0.83820555648E+02  0.00000000000E+00 0.  1.
</event>
<event>
 7    1  0.8653652E-006  0.1096770E+03  0.7561462E-02  0.1261169E+00
          1   -1    0    0  501    0  0.00000000000E+00  0.00000000000E+00  0.92489902831E+02  0.92489902831E+02  0.00000000000E+00 0. -1.
         -1   -1    0    0    0  501 -0.00000000000E+00 -0.00000000000E+00 -0.14262147335E+03  0.14262147335E+03  0.00000000000E+00 0.  1.
         23    2    1    2    0    0 -0.28323279755E+02 -0.32967803954E+02 -0.24731029922E+02  0.13610409550E+03  0.12658442517E+03 0.  0.
          5    1    3    3  502    0 -0.39421048520E+02  0.41119416032E+02 -0.21419404842E+02  0.61000727414E+02  0.41800000000E+01 0. -1.
         -5    1    3    3    0  502  0.11097768765E+02 -0.74087219986E+02 -0.33116250799E+01  0.75103368084E+02  0.41800000000E+01 0.  1.
        -11    1    1    2    0    0  0.10933638918E+02  0.56723058574E+02  0.33410523981E+01  0.57863740503E+02  0.00000000000E+00 0. -1.
         11    1    1    2    0    0  0.17389640837E+02 -0.23755254620E+02 -0.28741592991E+02  0.41143540175E+02  0.00000000000E+00 0.  1.
</event>
<event>
 7    1  0.8653652E-006  0.1425490E+03  0.7561462E-02  0.1209940E+00
          2   -1    0    0  501    0  0.00000000000E+00  0.00000000000E+00  0.60477490406E+02  0.60477490406E+02  0.00000000000E+00 0. -1.
         -2   -1    0    0    0  501 -0.00000000000E+00 -0.00000000000E+00 -0.48351837836E+03  0.48351837836E+03  0.00000000000E+00 0.  1.
         23    2    1    2    0    0  0.10243972875E+03  0.77597992699E+02 -0.26258671240E+03  0.31798502416E+03  0.12508935830E+03 0.  0.
          5    1    3    3  502    0  0.27648880928E+02 -0.35393762809E+01 -0.17440583144E+03  0.17666876985E+03  0.41800000000E+01 0. -1.
         -5    1    3    3    0  502  0.74790847826E+02  0.81137368980E+02 -0.88180880963E+02  0.14131625431E+03  0.41800000000E+01 0. -1.
        -11    1    1    2    0    0 -0.61135470923E+02 -0.29941827043E+01 -0.25360492511E+02  0.66254550903E+02  0.00000000000E+00 0. -1.
         11    1    1    2    0    0 -0.41304257832E+02 -0.74603809995E+02 -0.13509368305E+03  0.15975629371E+03  0.00000000000E+00 0.  1.
</event>
<event>
 7    1  0.8653652E-006  0.1560240E+03  0.7561462E-02  0.1193260E+00
          1   -1    0    0  501    0  0.00000000000E+00  0.00000000000E+00  0.40294620215E+03  0.40294620215E+03  0.00000000000E+00 0. -1.
         -1   -1    0    0    0  501 -0.00000000000E+00 -0.00000000000E+00 -0.74204228987E+02  0.74204228987E+02  0.00000000000E+00 0.  1.
         23    2    1    2    0    0 -0.13142803003E+03  0.79708241600E+01  0.14746978554E+03  0.23394825766E+03  0.12509032137E+03 0.  0.
          5    1    3    3  502    0 -0.11601158599E+03 -0.21037482409E+02  0.45013650088E+02  0.12627337345E+03  0.41800000000E+01 0.  1.
         -5    1    3    3    0  502 -0.15416444039E+02  0.29008306569E+02  0.10245613545E+03  0.10767488420E+03  0.41800000000E+01 0.  1.
        -11    1    1    2    0    0  0.91541000644E+02  0.38853285471E+02  0.12592425360E+03  0.16045638110E+03  0.00000000000E+00 0.  1.
         11    1    1    2    0    0  0.39887029382E+02 -0.46824109631E+02  0.55347934022E+02  0.82745792377E+02  0.00000000000E+00 0. -1.
</event>
<event>
 7    1  0.8653652E-006  0.8137757E+02  0.7561462E-02  0.1325187E+00
          3   -1    0    0  501    0  0.00000000000E+00  0.00000000000E+00  0.40296010163E+02  0.40296010163E+02  0.00000000000E+00 0. -1.
         -3   -1    0    0    0  501 -0.00000000000E+00 -0.00000000000E+00 -0.51640255832E+03  0.51640255832E+03  0.00000000000E+00 0.  1.
         23    2    1    2    0    0  0.52122087406E+02  0.33658386762E+02 -0.40505886483E+03  0.42504578711E+03  0.11287886503E+03 0.  0.
          5    1    3    3  502    0  0.26596206214E+02 -0.37260539425E+01 -0.12591470541E+02  0.29954285058E+02  0.41800000000E+01 0. -1.
         -5    1    3    3    0  502  0.25525881192E+02  0.37384440704E+02 -0.39246739429E+03  0.39509150205E+03  0.41800000000E+01 0.  1.
        -11    1    1    2    0    0  0.99538343011E+01 -0.25664306430E+02 -0.62742808110E+02  0.68515658147E+02  0.00000000000E+00 0.  1.
         11    1    1    2    0    0 -0.62075921707E+02 -0.79940803321E+01 -0.83048752148E+01  0.63137123219E+02  0.00000000000E+00 0. -1.
</event>
<event>
 7    1  0.8653652E-006  0.2415283E+03  0.7561462E-02  0.1118779E+00
         -1   -1    0    0    0  501 -0.00000000000E+00  0.00000000000E+00  0.11927236449E+03  0.11927236449E+03  0.00000000000E+00 0.  1.
          1   -1    0    0  501    0  0.00000000000E+00 -0.00000000000E+00 -0.64968516869E+03  0.64968516869E+03  0.00000000000E+00 0. -1.
         23    2    1    2    0    0  0.87962943792E+02 -0.21422551832E+03 -0.12062187255E+03  0.28952892862E+03  0.12508921694E+03 0.  0.
          5    1    3    3  502    0  0.97999616860E+02 -0.21778414783E+03 -0.87316803249E+02  0.25431389361E+03  0.41800000000E+01 0.  1.
         -5    1    3    3    0  502 -0.10036673068E+02  0.35586295148E+01 -0.33305069296E+02  0.35215035015E+02  0.41800000000E+01 0.  1.
        -11    1    1    2    0    0 -0.77706140123E+02  0.16370645757E+03 -0.23240136119E+03  0.29470059577E+03  0.00000000000E+00 0.  1.
         11    1    1    2    0    0 -0.10256803669E+02  0.50519060744E+02 -0.17738957047E+03  0.18472800879E+03  0.00000000000E+00 0. -1.
</event>
<event>
 7    1  0.8653652E-006  0.1328081E+03  0.7561462E-02  0.1223347E+00
         -1   -1    0    0    0  501 -0.00000000000E+00  0.00000000000E+00  0.68373050714E+02  0.68373050714E+02  0.00000000000E+00 0.  1.
          1   -1    0    0  501    0  0.00000000000E+00 -0.00000000000E+00 -0.47766533980E+03  0.47766533980E+03  0.00000000000E+00 0. -1.
         23    2    1    2    0    0 -0.50315406800E+02 -0.83383416708E+02 -0.54811555085E+02  0.16773845681E+03  0.12508976368E+03 0.  0.
          5    1    3    3  502    0  0.31426812867E+02 -0.58450136424E+02 -0.69457791042E+00  0.66498254514E+02  0.41800000000E+01 0. -1.
         -5    1    3    3    0  502 -0.81742219667E+02 -0.24933280284E+02 -0.54116977174E+02  0.10124020229E+03  0.41800000000E+01 0. -1.
        -11    1    1    2    0    0  0.29365443591E+02  0.19013177743E+01 -0.26168534008E+02  0.39379391294E+02  0.00000000000E+00 0.  1.
         11    1    1    2    0    0  0.20949963210E+02  0.81482098934E+02 -0.32831219999E+03  0.33892054241E+03  0.00000000000E+00 0. -1.
</event>
<event>
 7    1  0.8653652E-006  0.1230222E+03  0.7561462E-02  0.1238193E+00
         -1   -1    0    0    0  501 -0.00000000000E+00  0.00000000000E+00  0.17240918336E+03  0.17240918336E+03  0.00000000000E+00 0.  1.
          1   -1    0    0  501    0  0.00000000000E+00 -0.00000000000E+00 -0.13025661666E+03  0.13025661666E+03  0.00000000000E+00 0. -1.
         23    2    1    2    0    0 -0.96468700434E+02 -0.20270571801E+02  0.40376788468E+01  0.15931311063E+03  0.12508900081E+03 0.  0.
          5    1    3    3  502    0 -0.37135257691E+02 -0.30669094579E+02  0.59954007282E+02  0.77016726204E+02  0.41800000000E+01 0. -1.
         -5    1    3    3    0  502 -0.59333442743E+02  0.10398522778E+02 -0.55916328435E+02  0.82296384425E+02  0.41800000000E+01 0. -1.
        -11    1    1    2    0    0  0.47423490693E+02  0.58374890926E+02  0.12838028478E+02  0.76298298378E+02  0.00000000000E+00 0. -1.
         11    1    1    2    0    0  0.49045209741E+02 -0.38104319125E+02  0.25276859377E+02  0.67054391016E+02  0.00000000000E+00 0.  1.
</event>
<event>
 7    1  0.8653652E-006  0.1672302E+03  0.7561462E-02  0.1180767E+00
         -1   -1    0    0    0  501 -0.00000000000E+00  0.00000000000E+00  0.11742310245E+03  0.11742310245E+03  0.00000000000E+00 0.  1.
          1   -1    0    0  501    0  0.00000000000E+00 -0.00000000000E+00 -0.29786060366E+03  0.29786060366E+03  0.00000000000E+00 0. -1.
         23    2    1    2    0    0 -0.96322947509E+02  0.10571410870E+03 -0.38171372610E+02  0.19378973921E+03  0.12507528268E+03 0.  0.
          5    1    3    3  502    0  0.29866519214E+02  0.25962783130E+02 -0.15666120802E+02  0.42766515159E+02  0.41800000000E+01 0. -1.
         -5    1    3    3    0  502 -0.12618946672E+03  0.79751325572E+02 -0.22505251808E+02  0.15102322405E+03  0.41800000000E+01 0. -1.
        -11    1    1    2    0    0  0.24924873089E+01 -0.13652229729E+02 -0.70250229710E+02  0.71607895123E+02  0.00000000000E+00 0. -1.
         11    1    1    2    0    0  0.93830460201E+02 -0.92061878974E+02 -0.72015898882E+02  0.14988607178E+03  0.00000000000E+00 0.  1.
</event>
<event>
 7    1  0.8653652E-006  0.1339550E+03  0.7561462E-02  0.1221702E+00
          3   -1    0    0  501    0  0.00000000000E+00  0.00000000000E+00  0.22418944682E+02  0.22418944682E+02  0.00000000000E+00 0. -1.
         -3   -1    0    0    0  501 -0.00000000000E+00 -0.00000000000E+00 -0.99133375376E+03  0.99133375376E+03  0.00000000000E+00 0.  1.
         23    2    1    2    0    0 -0.79828232210E+02 -0.57258051985E+02 -0.61676456524E+03  0.63694361754E+03  0.12509041457E+03 0.  0.
          5    1    3    3  502    0 -0.42062064338E+01 -0.74215769284E+02 -0.20916541399E+03  0.22202097962E+03  0.41800000000E+01 0. -1.
         -5    1    3    3    0  502 -0.75622025776E+02  0.16957717299E+02 -0.40759915125E+03  0.41492263792E+03  0.41800000000E+01 0. -1.
        -11    1    1    2    0    0  0.66286713472E+02  0.70595481164E+02 -0.34162014421E+03  0.35508023498E+03  0.00000000000E+00 0.  1.
         11    1    1    2    0    0  0.13541518738E+02 -0.13337429179E+02 -0.10530099629E+02  0.21728845921E+02  0.00000000000E+00 0. -1.
</event>
<event>
 7    1  0.8653652E-006  0.1623742E+03  0.7561462E-02  0.1186042E+00
         -3   -1    0    0    0  501 -0.00000000000E+00  0.00000000000E+00  0.58475758010E+03  0.58475758010E+03  0.00000000000E+00 0.  1.
          3   -1    0    0  501    0  0.00000000000E+00 -0.00000000000E+00 -0.53235433172E+02  0.53235433172E+02  0.00000000000E+00 0. -1.
         23    2    1    2    0    0  0.88618924876E+02  0.10605357082E+03  0.30347900650E+03  0.35615551506E+03  0.12508624942E+03 0.  0.
          5    1    3    3  502    0  0.43621544395E+02 -0.23112268712E+02  0.82996915250E+02  0.96659073250E+02  0.41800000000E+01 0.  1.
         -5    1    3    3    0  502  0.44997380481E+02  0.12916583953E+03  0.22048209125E+03  0.25949644181E+03  0.41800000000E+01 0.  1.
        -11    1    1    2    0    0 -0.49040126950E+02 -0.63763209245E+02  0.50246800747E+02  0.94844197977E+02  0.00000000000E+00 0. -1.
         11    1    1    2    0    0 -0.39578797926E+02 -0.42290361575E+02  0.17779633969E+03  0.18699330024E+03  0.00000000000E+00 0.  1.
</event>
<event>
 7    1  0.8653652E-006  0.1024348E+03  0.7561462E-02  0.1275258E+00
          2   -1    0    0  501    0  0.00000000000E+00  0.00000000000E+00  0.55424653636E+03  0.55424653636E+03  0.00000000000E+00 0. -1.
         -2   -1    0    0    0  501 -0.00000000000E+00 -0.00000000000E+00 -0.22168819619E+02  0.22168819619E+02  0.00000000000E+00 0.  1.
         23    2    1    2    0    0 -0.45368623977E+01  0.22515503973E+02  0.23457689459E+03  0.26288212265E+03  0.11641803939E+03 0.  0.
          5    1    3    3  502    0  0.29874735992E+02 -0.33392672473E+02  0.14447989641E+03  0.15132575224E+03  0.41800000000E+01 0. -1.
         -5    1    3    3    0  502 -0.34411598390E+02  0.55908176447E+02  0.90096998177E+02  0.11155637040E+03  0.41800000000E+01 0.  1.
        -11    1    1    2    0    0  0.14964552997E+02 -0.56546842126E+02  0.13412138496E+03  0.14632166314E+03  0.00000000000E+00 0. -1.
         11    1    1    2    0    0 -0.10427690600E+02  0.34031338152E+02  0.16337943719E+03  0.16721157019E+03  0.00000000000E+00 0.  1.
</event>
<event>
 7    1  0.8653652E-006  0.1099876E+03  0.7561462E-02  0.1260593E+00
         -2   -1    0    0    0  501 -0.00000000000E+00  0.00000000000E+00  0.48068987794E+03  0.48068987794E+03  0.00000000000E+00 0.  1.
          2   -1    0    0  501    0  0.00000000000E+00 -0.00000000000E+00 -0.29975221478E+02  0.29975221478E+02  0.00000000000E+00 0. -1.
         23    2    1    2    0    0 -0.32404563512E+02  0.30968722737E+01  0.33977469299E+03  0.36353144884E+03  0.12509446808E+03 0.  0.
          5    1    3    3  502    0 -0.50799883900E+02 -0.50911842662E+02  0.19158480415E+03  0.20468232339E+03  0.41800000000E+01 0.  1.
         -5    1    3    3    0  502  0.18395320388E+02  0.54008714936E+02  0.14818988884E+03  0.15884912544E+03  0.41800000000E+01 0.  1.
        -11    1    1    2    0    0  0.60984475632E+02  0.45052350935E+01  0.96448399944E+02  0.11420025071E+03  0.00000000000E+00 0.  1.
         11    1    1    2    0    0 -0.28579912121E+02 -0.76021073672E+01  0.14491563530E+02  0.32933399867E+02  0.00000000000E+00 0. -1.
</event>
<event>
 7    1  0.8653652E-006  0.1467973E+03  0.7561462E-02  0.1204465E+00
         -3   -1    0    0    0  501 -0.00000000000E+00  0.00000000000E+00  0.11790455258E+03  0.11790455258E+03  0.00000000000E+00 0.  1.
          3   -1    0    0  501    0  0.00000000000E+00 -0.00000000000E+00 -0.23679166193E+03  0.23679166193E+03  0.00000000000E+00 0. -1.
         23    2    1    2    0    0  0.12115787707E+03 -0.27499847825E+01 -0.23207574729E+02  0.17564973583E+03  0.12500977793E+03 0.  0.
          5    1    3    3  502    0  0.76179936869E+02  0.41183115840E+02 -0.57379291394E+02  0.10396772236E+03  0.41800000000E+01 0.  1.
         -5    1    3    3    0  502  0.44977940200E+02 -0.43933100623E+02  0.34171716666E+02  0.71682013468E+02  0.41800000000E+01 0.  1.
        -11    1    1    2    0    0 -0.47063994407E+02  0.39252418525E+02 -0.13957974726E+02  0.62853774652E+02  0.00000000000E+00 0.  1.
         11    1    1    2    0    0 -0.74093882663E+02 -0.36502433742E+02 -0.81721559903E+02  0.11619270403E+03  0.00000000000E+00 0. -1.
</event>
<event>
 7    1  0.8653652E-006  0.1194101E+03  0.7561462E-02  0.1244073E+00
          2   -1    0    0  501    0  0.00000000000E+00  0.00000000000E+00  0.39047880399E+03  0.39047880399E+03  0.00000000000E+00 0. -1.
         -2   -1    0    0    0  501 -0.00000000000E+00 -0.00000000000E+00 -0.37492329620E+02  0.37492329620E+02  0.00000000000E+00 0.  1.
         23    2    1    2    0    0 -0.35557662697E+01 -0.66227812533E+02  0.21884797878E+03  0.26065703015E+03  0.12509549524E+03 0.  0.
          5    1    3    3  502    0 -0.62495197495E+02 -0.29188095358E+02  0.13450707426E+03  0.15121911270E+03  0.41800000000E+01 0.  1.
         -5    1    3    3    0  502  0.58939431226E+02 -0.37039717175E+02  0.84340904515E+02  0.10943791745E+03  0.41800000000E+01 0.  1.
        -11    1    1    2    0    0  0.35802395692E+02  0.55406468269E+02  0.86789750151E+02  0.10901444397E+03  0.00000000000E+00 0.  1.
         11    1    1    2    0    0 -0.32246629423E+02  0.10821344263E+02  0.47348745446E+02  0.58299659485E+02  0.00000000000E+00 0. -1.
</event>
<event>
 7    1  0.8653652E-006  0.1199267E+03  0.7561462E-02  0.1243218E+00
          1   -1    0    0  501    0  0.00000000000E+00  0.00000000000E+00  0.54257251696E+03  0.54257251696E+03  0.00000000000E+00 0. -1.
         -1   -1    0    0    0  501 -0.00000000000E+00 -0.00000000000E+00 -0.26906342350E+02  0.26906342350E+02  0.00000000000E+00 0.  1.
         23    2    1    2    0    0  0.13331154658E+02 -0.47940393976E+02  0.27057858774E+03  0.30221913191E+03  0.12509048919E+03 0.  0.
          5    1    3    3  502    0 -0.50256772425E+02 -0.49639228443E+02  0.14854589459E+03  0.16453920923E+03  0.41800000000E+01 0. -1.
         -5    1    3    3    0  502  0.63587927083E+02  0.16988344675E+01  0.12203269316E+03  0.13767992268E+03  0.41800000000E+01 0. -1.
        -11    1    1    2    0    0 -0.50851466229E+02  0.44662671277E+02  0.17614893471E+03  0.18870366458E+03  0.00000000000E+00 0.  1.
         11    1    1    2    0    0  0.37520311571E+02  0.32777226989E+01  0.68938652154E+02  0.78556062830E+02  0.00000000000E+00 0. -1.
</event>
<event>
 7    1  0.8653652E-006  0.1229728E+03  0.7561462E-02  0.1238272E+00
          2   -1    0    0  501    0  0.00000000000E+00  0.00000000000E+00  0.63627214896E+03  0.63627214896E+03  0.00000000000E+00 0. -1.
         -2   -1    0    0    0  501 -0.00000000000E+00 -0.00000000000E+00 -0.31605464864E+02  0.31605464864E+02  0.00000000000E+00 0.  1.
         23    2    1    2    0    0 -0.22408660084E+02  0.88149149671E+02  0.33295349721E+03  0.36712056587E+03  0.12508820068E+03 0.  0.
          5    1    3    3  502    0  0.87059501268E+01 -0.10706741582E+02  0.18976871973E+03  0.19031570422E+03  0.41800000000E+01 0.  1.
         -5    1    3    3    0  502 -0.31114610211E+02  0.98855891253E+02  0.14318477748E+03  0.17680486166E+03  0.41800000000E+01 0.  1.
        -11    1    1    2    0    0 -0.27753123972E+02 -0.16350889066E+01  0.76979080801E+02  0.81845514764E+02  0.00000000000E+00 0. -1.
         11    1    1    2    0    0  0.50161784056E+02 -0.86514060764E+02  0.19473410609E+03  0.21891153319E+03  0.00000000000E+00 0.  1.
</event>
<event>
 7    1  0.8653652E-006  0.1454712E+03  0.7561462E-02  0.1206151E+00
          3   -1    0    0  501    0  0.00000000000E+00  0.00000000000E+00  0.15988432094E+03  0.15988432094E+03  0.00000000000E+00 0. -1.
         -3   -1    0    0    0  501 -0.00000000000E+00 -0.00000000000E+00 -0.13542479864E+03  0.13542479864E+03  0.00000000000E+00 0.  1.
         23    2    1    2    0    0  0.52235390028E+02  0.81440147079E+02 -0.72083372583E+01  0.15830970904E+03  0.12509584454E+03 0.  0.
          5    1    3    3  502    0  0.91580755199E+02  0.73638363125E+02 -0.90708184235E+01  0.11793809984E+03  0.41800000000E+01 0. -1.
         -5    1    3    3    0  502 -0.39345365171E+02  0.78017839535E+01  0.18624811652E+01  0.40371609200E+02  0.41800000000E+01 0. -1.
        -11    1    1    2    0    0 -0.76791672069E+02 -0.44761332370E+02  0.25198359045E+02  0.92387743090E+02  0.00000000000E+00 0. -1.
         11    1    1    2    0    0  0.24556282041E+02 -0.36678814709E+02  0.64695005146E+01  0.44611667454E+02  0.00000000000E+00 0.  1.
</event>
<event>
 7    1  0.8653652E-006  0.2264668E+03  0.7561462E-02  0.1129152E+00
          1   -1    0    0  501    0  0.00000000000E+00  0.00000000000E+00  0.60532124390E+02  0.60532124390E+02  0.00000000000E+00 0. -1.
         -1   -1    0    0    0  501 -0.00000000000E+00 -0.00000000000E+00 -0.89993932925E+03  0.89993932925E+03  0.00000000000E+00 0.  1.
         23    2    1    2    0    0 -0.15973634300E+03  0.12951707905E+03 -0.39525521720E+03  0.46277936034E+03  0.12509067349E+03 0.  0.
          5    1    3    3  502    0 -0.20826946866E+02  0.76958030328E+02 -0.21401549345E+03  0.22842154886E+03  0.41800000000E+01 0. -1.
         -5    1    3    3    0  502 -0.13890939613E+03  0.52559048723E+02 -0.18123972375E+03  0.23435781148E+03  0.41800000000E+01 0. -1.
        -11    1    1    2    0    0  0.33491500062E+02  0.11346832820E+02 -0.73420388271E+02  0.81492236473E+02  0.00000000000E+00 0.  1.
         11    1    1    2    0    0  0.12624484294E+03 -0.14086391187E+03 -0.37073159939E+03  0.41619985682E+03  0.00000000000E+00 0. -1.
</event>
<event>
 7    1  0.2181239E-005  0.4582237E+03  0.7561462E-02  0.1025298E+00
         -1   -1    0    0    0  501 -0.00000000000E+00  0.00000000000E+00  0.91632958348E+02  0.91632958348E+02  0.00000000000E+00 0. -1.
          1   -1    0    0  501    0  0.00000000000E+00 -0.00000000000E+00 -0.25479395753E+04  0.25479395753E+04  0.00000000000E+00 0.  1.
         23    2    1    2    0    0 -0.14535979357E+03  0.42096714886E+03 -0.82473690642E+03  0.94561140219E+03  0.12508856522E+03 0.  0.
          5    1    3    3  502    0 -0.10594073802E+03  0.40578120518E+03 -0.76333240977E+03  0.87096249441E+03  0.41800000000E+01 0. -1.
         -5    1    3    3    0  502 -0.39419055551E+02  0.15185943676E+02 -0.61404496646E+02  0.74648907790E+02  0.41800000000E+01 0. -1.
        -11    1    1    2    0    0  0.21753288194E+01 -0.13277181954E+03 -0.42925001470E+03  0.44932022349E+03  0.00000000000E+00 0. -1.
         11    1    1    2    0    0  0.14318446475E+03 -0.28819532932E+03 -0.12023196959E+04  0.12446409080E+04  0.00000000000E+00 0.  1.
</event>
<event>
 7    1  0.8653652E-006  0.1270045E+03  0.7561462E-02  0.1231969E+00
          1   -1    0    0  501    0  0.00000000000E+00  0.00000000000E+00  0.45655169812E+03  0.45655169812E+03  0.00000000000E+00 0. -1.
         -1   -1    0    0    0  501 -0.00000000000E+00 -0.00000000000E+00 -0.36800135026E+02  0.36800135026E+02  0.00000000000E+00 0.  1.
         23    2    1    2    0    0  0.45843553142E+02 -0.53079103608E+02  0.20997834140E+03  0.25427842402E+03  0.12509032922E+03 0.  0.
          5    1    3    3  502    0  0.34527928034E+02  0.37838733651E+02  0.67628746141E+02  0.84941552160E+02  0.41800000000E+01 0.  1.
         -5    1    3    3    0  502  0.11315625107E+02 -0.90917837259E+02  0.14234959526E+03  0.16933687186E+03  0.41800000000E+01 0.  1.
        -11    1    1    2    0    0  0.20908786058E+02 -0.60058048491E+01  0.20655539489E+02  0.29998305584E+02  0.00000000000E+00 0.  1.
         11    1    1    2    0    0 -0.66752339200E+02  0.59084908457E+02  0.18911768221E+03  0.20907510354E+03  0.00000000000E+00 0. -1.
</event>
<event>
 7    1  0.8653652E-006  0.5659743E+02  0.7561462E-02  0.1412692E+00
         -1   -1    0    0    0  501 -0.00000000000E+00  0.00000000000E+00  0.30727771039E+03  0.30727771039E+03  0.00000000000E+00 0.  1.
          1   -1    0    0  501    0  0.00000000000E+00 -0.00000000000E+00 -0.38519849063E+02  0.38519849063E+02  0.00000000000E+00 0. -1.
         23    2    1    2    0    0 -0.31569068328E+01 -0.79148075811E+01  0.18393924369E+03  0.22262421052E+03  0.12512107537E+03 0.  0.
          5    1    3    3  502    0 -0.16814612857E+02 -0.31474992309E+01  0.19990431196E+03  0.20067845997E+03  0.41800000000E+01 0. -1.
         -5    1    3    3    0  502  0.13657706024E+02 -0.47673083502E+01 -0.15965068264E+02  0.21945750555E+02  0.41800000000E+01 0. -1.
        -11    1    1    2    0    0  0.40840162324E+02 -0.39236170246E+01  0.16426254250E+02  0.44194292142E+02  0.00000000000E+00 0.  1.
         11    1    1    2    0    0 -0.37683255492E+02  0.11838424606E+02  0.68392363386E+02  0.78979056788E+02  0.00000000000E+00 0. -1.
</event>
<event>
 7    1  0.8653652E-006  0.1028496E+03  0.7561462E-02  0.1274415E+00
          2   -1    0    0  501    0  0.00000000000E+00  0.00000000000E+00  0.39486198179E+03  0.39486198179E+03  0.00000000000E+00 0. -1.
         -2   -1    0    0    0  501 -0.00000000000E+00 -0.00000000000E+00 -0.34462310873E+02  0.34462310873E+02  0.00000000000E+00 0.  1.
         23    2    1    2    0    0 -0.19205653890E+02 -0.38722005292E+02  0.17638995201E+03  0.22051620950E+03  0.12508290310E+03 0.  0.
          5    1    3    3  502    0 -0.29739249611E+02  0.32515297628E+02  0.12315105709E+03  0.13086375667E+03  0.41800000000E+01 0. -1.
         -5    1    3    3    0  502  0.10533595722E+02 -0.71237302920E+02  0.53238894919E+02  0.89652452830E+02  0.41800000000E+01 0. -1.
        -11    1    1    2    0    0 -0.61242449476E+01 -0.22357204261E+02  0.95810178821E+02  0.98574547040E+02  0.00000000000E+00 0. -1.
         11    1    1    2    0    0  0.25329898837E+02  0.61079209553E+02  0.88199540083E+02  0.11023353612E+03  0.00000000000E+00 0.  1.
</event>
<event>
 6    1  0.8653652E-006  0.1715625E+03  0.7561462E-02  0.1176228E+00
          1   -1    0    0  501    0  0.00000000000E+00  0.00000000000E+00  0.77778068724E+03  0.77778068724E+03  0.00000000000E+00 0. -1.
         -1   -1    0    0    0  501 -0.00000000000E+00 -0.00000000000E+00 -0.88644704994E+02  0.88644704994E+02  0.00000000000E+00 0.  1.
          5    1    1    2  502    0  0.81623436148E+02 -0.18200874889E+02  0.17540142238E+03  0.19436251838E+03  0.41800000000E+01 0. -1.
         -5    1    1    2    0  502 -0.10451710563E+03 -0.73633431113E+02 -0.13434276390E+02  0.12862215878E+03  0.41800000000E+01 0.  1.
        -11    1    1    2    0    0  0.18803308328E+02 -0.15312213812E+02  0.79892458434E+02  0.83491515800E+02  0.00000000000E+00 0.  1.
         11    1    1    2    0    0  0.40903611557E+01  0.10714651981E+03  0.44727637781E+03  0.45994919928E+03  0.00000000000E+00 0. -1.
</event>
<event>
 7    1  0.8653652E-006  0.1291302E+03  0.7561462E-02  0.1228752E+00
          3   -1    0    0  501    0  0.00000000000E+00  0.00000000000E+00  0.38528943300E+03  0.38528943300E+03  0.00000000000E+00 0. -1.
         -3   -1    0    0    0  501 -0.00000000000E+00 -0.00000000000E+00 -0.74459463378E+02  0.74459463378E+02  0.00000000000E+00 0.  1.
         23    2    1    2    0    0 -0.62200965780E+02 -0.78051316544E+02  0.52949571334E+02  0.16856048741E+03  0.12509201675E+03 0.  0.
          5    1    3    3  502    0  0.33091578332E+02  0.26803200459E+00  0.25855826518E+02  0.42203324070E+02  0.41800000000E+01 0.  1.
         -5    1    3    3    0  502 -0.95292544112E+02 -0.78319348549E+02  0.27093744817E+02  0.12635716335E+03  0.41800000000E+01 0.  1.
        -11    1    1    2    0    0  0.14375726611E+02  0.73953613044E+01 -0.32352322550E+01  0.16486952786E+02  0.00000000000E+00 0.  1.
         11    1    1    2    0    0  0.47825239169E+02  0.70655955240E+02  0.26111563054E+03  0.27470145618E+03  0.00000000000E+00 0. -1.
</event>
<event>
 7    1  0.8653652E-006  0.9487619E+02  0.7561462E-02  0.1291455E+00
         -2   -1    0    0    0  501 -0.00000000000E+00  0.00000000000E+00  0.24840065871E+02  0.24840065871E+02  0.00000000000E+00 0.  1.
          2   -1    0    0  501    0  0.00000000000E+00 -0.00000000000E+00 -0.79246060722E+03  0.79246060722E+03  0.00000000000E+00 0. -1.
         23    2    1    2    0    0 -0.86271401643E+02  0.46559900267E+01 -0.37388576983E+03  0.40361200566E+03  0.12509056418E+03 0.  0.
          5    1    3    3  502    0 -0.48334717621E+02 -0.24116788741E+02 -0.34174664779E+03  0.34601460678E+03  0.41800000000E+01 0. -1.
         -5    1    3    3    0  502 -0.37936684021E+02  0.28772778767E+02 -0.32139122039E+02  0.57597398882E+02  0.41800000000E+01 0. -1.
        -11    1    1    2    0    0  0.70961991761E+02 -0.97797349075E+01 -0.39076167533E+03  0.39727312317E+03  0.00000000000E+00 0. -1.
         11    1    1    2    0    0  0.15309409881E+02  0.51237448808E+01 -0.29730961962E+01  0.16415544265E+02  0.00000000000E+00 0.  1.
</event>
<event>
 6    1  0.8653652E-006  0.1446258E+03  0.7561462E-02  0.1207237E+00
         -1   -1    0    0    0  501 -0.00000000000E+00  0.00000000000E+00  0.47146269697E+02  0.47146269697E+02  0.00000000000E+00 0.  1.
          1   -1    0    0  501    0  0.00000000000E+00 -0.00000000000E+00 -0.63698975830E+03  0.63698975830E+03  0.00000000000E+00 0. -1.
          5    1    1    2  502    0 -0.41917793182E+02 -0.17726621206E+02 -0.47146126577E+02  0.65662501748E+02  0.41800000000E+01 0. -1.
         -5    1    1    2    0  502  0.12107979336E+03  0.73999844281E+00 -0.94221283004E+02  0.15347959646E+03  0.41800000000E+01 0.  1.
        -11    1    1    2    0    0  0.21011908174E+02  0.38641360898E+01 -0.94320756723E+02  0.96710066599E+02  0.00000000000E+00 0.  1.
         11    1    1    2    0    0 -0.10017390836E+03  0.13122486673E+02 -0.35415532230E+03  0.36828386319E+03  0.00000000000E+00 0. -1.
</event>
<event>
 7    1  0.8653652E-006  0.3252889E+03  0.7561462E-02  0.1073241E+00
         -3   -1    0    0    0  501 -0.00000000000E+00  0.00000000000E+00  0.98863018080E+02  0.98863018080E+02  0.00000000000E+00 0.  1.
          3   -1    0    0  501    0  0.00000000000E+00 -0.00000000000E+00 -0.10915402515E+04  0.10915402515E+04  0.00000000000E+00 0. -1.
         23    2    1    2    0    0 -0.31000073133E+03 -0.44871767921E+01 -0.51704231291E+03  0.61572305340E+03  0.12514606251E+03 0.  0.
          5    1    3    3  502    0 -0.31953480107E+03  0.47150498798E+01 -0.48543299134E+03  0.58119478858E+03  0.41800000000E+01 0. -1.
         -5    1    3    3    0  502  0.95340697319E+01 -0.92022266719E+01 -0.31609321567E+02  0.34528264817E+02  0.41800000000E+01 0. -1.
        -11    1    1    2    0    0  0.13599955975E+03  0.34998206195E+02 -0.26381677699E+03  0.29886459562E+03  0.00000000000E+00 0. -1.
         11    1    1    2    0    0  0.17400117158E+03 -0.30511029403E+02 -0.21181814352E+03  0.27581562057E+03  0.00000000000E+00 0.  1.
</event>
<event>
 7    1  0.8653652E-006  0.1158561E+03  0.7561462E-02  0.1250094E+00
          1   -1    0    0  501    0  0.00000000000E+00  0.00000000000E+00  0.75750552972E+02  0.75750552972E+02  0.00000000000E+00 0. -1.
         -1   -1    0    0    0  501 -0.00000000000E+00 -0.00000000000E+00 -0.28763978930E+03  0.28763978930E+03  0.00000000000E+00 0.  1.
         23    2    1    2    0    0 -0.10203386316E+02 -0.10368839271E+03 -0.14002926385E+03  0.21473517452E+03  0.12509040157E+03 0.  0.
          5    1    3    3  502    0  0.26513845633E+02 -0.13727430227E+02 -0.10832597237E+03  0.11244294126E+03  0.41800000000E+01 0.  1.
         -5    1    3    3    0  502 -0.36717231949E+02 -0.89960962486E+02 -0.31703291487E+02  0.10229223326E+03  0.41800000000E+01 0.  1.
        -11    1    1    2    0    0  0.92921762229E+01  0.70715396340E+02 -0.86883950979E+02  0.11240922007E+03  0.00000000000E+00 0.  1.
         11    1    1    2    0    0  0.91121009278E+00  0.32972996373E+02  0.15023978503E+02  0.36245947686E+02  0.00000000000E+00 0. -1.
</event>
<event>
 7    1  0.8653652E-006  0.1024291E+03  0.7561462E-02  0.1275269E+00
          3   -1    0    0  501    0  0.00000000000E+00  0.00000000000E+00  0.14919160015E+02  0.14919160015E+02  0.00000000000E+00 0. -1.
         -3   -1    0    0    0  501 -0.00000000000E+00 -0.00000000000E+00 -0.79754427272E+03  0.79754427272E+03  0.00000000000E+00 0.  1.
         23    2    1    2    0    0 -0.25583136073E+01  0.93027131884E+01 -0.48332196120E+03  0.49934000616E+03  0.12508892089E+03 0.  0.
          5    1    3    3  502    0 -0.58325522595E+02  0.10133633766E+02 -0.14921022537E+03  0.16057932891E+03  0.41800000000E+01 0.  1.
         -5    1    3    3    0  502  0.55767208987E+02 -0.83092057794E+00 -0.33411173583E+03  0.33876067724E+03  0.41800000000E+01 0.  1.
        -11    1    1    2    0    0  0.40333102985E+02 -0.26309057655E+02 -0.19587095736E+03  0.20170363816E+03  0.00000000000E+00 0.  1.
         11    1    1    2    0    0 -0.37774789378E+02  0.17006344467E+02 -0.10343219415E+03  0.11141978842E+03  0.00000000000E+00 0. -1.
</event>
<event>
 7    1  0.8653652E-006  0.8356509E+02  0.7561462E-02  0.1319228E+00
          1   -1    0    0  501    0  0.00000000000E+00  0.00000000000E+00  0.71251513432E+02  0.71251513432E+02  0.00000000000E+00 0. -1.
         -1   -1    0    0    0  501 -0.00000000000E+00 -0.00000000000E+00 -0.19272694680E+03  0.19272694680E+03  0.00000000000E+00 0.  1.
         23    2    1    2    0    0 -0.12233337220E+01  0.31224198896E+02 -0.10546952026E+03  0.16657725867E+03  0.12509083204E+03 0.  0.
          5    1    3    3  502    0 -0.61855105527E+00  0.50936621840E+02  0.76451052623E+01  0.51680190445E+02  0.41800000000E+01 0.  1.
         -5    1    3    3    0  502 -0.60478266670E+00 -0.19712422945E+02 -0.11311462552E+03  0.11489706823E+03  0.41800000000E+01 0.  1.
        -11    1    1    2    0    0  0.34125134016E+02 -0.48025860808E+02 -0.13023037967E+02  0.60337447708E+02  0.00000000000E+00 0.  1.
         11    1    1    2    0    0 -0.32901800294E+02  0.16801661913E+02 -0.29828751432E+01  0.37063753854E+02  0.00000000000E+00 0. -1.
</event>
<event>
 7    1  0.8653652E-006  0.9513143E+02  0.7561462E-02  0.1290880E+00
         -1   -1    0    0    0  501 -0.00000000000E+00  0.00000000000E+00  0.84003734786E+03  0.84003734786E+03  0.00000000000E+00 0.  1.
          1   -1    0    0  501    0  0.00000000000E+00 -0.00000000000E+00 -0.27503837173E+02  0.27503837173E+02  0.00000000000E+00 0. -1.
         23    2    1    2    0    0  0.64185164279E+02 -0.30827936050E+01  0.68513274362E+03  0.69941645502E+03  0.12508901726E+03 0.  0.
          5    1    3    3  502    0  0.52974506892E+02  0.28175351694E+02  0.12960462816E+03  0.14288100246E+03  0.41800000000E+01 0. -1.
         -5    1    3    3    0  502  0.11210657387E+02 -0.31258145299E+02  0.55552811546E+03  0.55653545256E+03  0.41800000000E+01 0. -1.
        -11    1    1    2    0    0 -0.74095030836E+02 -0.15396422210E+02  0.12616268739E+03  0.14711949939E+03  0.00000000000E+00 0.  1.
         11    1    1    2    0    0  0.99098665569E+01  0.18479215815E+02  0.12380796774E+01  0.21005230625E+02  0.00000000000E+00 0. -1.
</event>
<event>
 7    1  0.8653652E-006  0.1217664E+03  0.7561462E-02  0.1240211E+00
          1   -1    0    0  501    0  0.00000000000E+00  0.00000000000E+00  0.51817636266E+03  0.51817636266E+03  0.00000000000E+00 0. -1.
         -1   -1    0    0    0  501 -0.00000000000E+00 -0.00000000000E+00 -0.40903124704E+02  0.40903124704E+02  0.00000000000E+00 0.  1.
         23    2    1    2    0    0 -0.46913950091E+02 -0.78207073779E+02  0.19631703286E+03  0.25001159469E+03  0.12509258566E+03 0.  0.
          5    1    3    3  502    0  0.31801797038E+02 -0.46598708330E+02  0.13157464299E+03  0.14322064443E+03  0.41800000000E+01 0.  1.
         -5    1    3    3    0  502 -0.78715747129E+02 -0.31608365449E+02  0.64742389874E+02  0.10679095027E+03  0.41800000000E+01 0.  1.
        -11    1    1    2    0    0  0.10322644945E+02  0.60516867662E+02  0.25147031763E+03  0.25885549814E+03  0.00000000000E+00 0. -1.
         11    1    1    2    0    0  0.36591305146E+02  0.17690206117E+02  0.29485887474E+02  0.50212394534E+02  0.00000000000E+00 0.  1.
</event>
<event>
 7    1  0.8653652E-006  0.1252373E+03  0.7561462E-02  0.1234699E+00
          1   -1    0    0  501    0  0.00000000000E+00  0.00000000000E+00  0.12656217010E+03  0.12656217010E+03  0.00000000000E+00 0. -1.
         -1   -1    0    0    0  501 -0.00000000000E+00 -0.00000000000E+00 -0.24241256755E+03  0.24241256755E+03  0.00000000000E+00 0.  1.
         23    2    1    2    0    0 -0.50231479425E+02 -0.10002555823E+03 -0.14477810488E+03  0.22166823851E+03  0.12509114473E+03 0.  0.
          5    1    3    3  502    0 -0.28153418830E+02 -0.24659565297E+02 -0.13764196734E+03  0.14270071032E+03  0.41800000000E+01 0. -1.
         -5    1    3    3    0  502 -0.22078060595E+02 -0.75365992929E+02 -0.71361375357E+01  0.78967528192E+02  0.41800000000E+01 0. -1.
        -11    1    1    2    0    0  0.23819864027E+02 -0.62801060926E+01  0.28629349294E+02  0.37768575507E+02  0.00000000000E+00 0. -1.
         11    1    1    2    0    0  0.26411615398E+02  0.10630566432E+03  0.29835813321E+00  0.10953792362E+03  0.00000000000E+00 0.  1.
</event>
<event>
 7    1  0.8653652E-006  0.1444688E+03  0.7561462E-02  0.1207439E+00
          1   -1    0    0  501    0  0.00000000000E+00  0.00000000000E+00  0.54779455929E+03  0.54779455929E+03  0.00000000000E+00 0. -1.
         -1   -1    0    0    0  501 -0.00000000000E+00 -0.00000000000E+00 -0.44673947636E+02  0.44673947636E+02  0.00000000000E+00 0.  1.
         23    2    1    2    0    0 -0.10220499036E+02  0.11592082957E+03  0.27180622406E+03  0.32104147036E+03  0.12508758901E+03 0.  0.
          5    1    3    3  502    0  0.24402958458E+02  0.12593377417E+03  0.17031398148E+03  0.21325839853E+03  0.41800000000E+01 0.  1.
         -5    1    3    3    0  502 -0.34623457494E+02 -0.10012944598E+02  0.10149224258E+03  0.10778307183E+03  0.41800000000E+01 0.  1.
        -11    1    1    2    0    0  0.25787473378E+02 -0.46571276892E+02  0.16802926606E+03  0.17626035251E+03  0.00000000000E+00 0. -1.
         11    1    1    2    0    0 -0.15566974342E+02 -0.69349552677E+02  0.63285121537E+02  0.95166684058E+02  0.00000000000E+00 0.  1.
</event>
<event>
 7    1  0.8653652E-006  0.3661821E+03  0.7561462E-02  0.1056162E+00
          2   -1    0    0  501    0  0.00000000000E+00  0.00000000000E+00  0.79194557589E+03  0.79194557589E+03  0.00000000000E+00 0. -1.
         -2   -1    0    0    0  501 -0.00000000000E+00 -0.00000000000E+00 -0.18223577135E+03  0.18223577135E+03  0.00000000000E+00 0.  1.
         23    2    1    2    0    0  0.78589898406E+02 -0.34181809519E+03  0.18120905299E+03  0.41412863343E+03  0.12509924786E+03 0.  0.
          5    1    3    3  502    0 -0.11972314150E+02 -0.21810765966E+03  0.95552545350E+02  0.23845764578E+03  0.41800000000E+01 0.  1.
         -5    1    3    3    0  502  0.90562212556E+02 -0.12371043553E+03  0.85656507636E+02  0.17567098765E+03  0.41800000000E+01 0.  1.
        -11    1    1    2    0    0  0.82141993249E+00  0.18251044739E+03  0.22364561632E+03  0.28866606977E+03  0.00000000000E+00 0.  1.
         11    1    1    2    0    0 -0.79411318338E+02  0.15930764780E+03  0.20485513524E+03  0.27138664403E+03  0.00000000000E+00 0. -1.
</event>
<event>
 7    1  0.8653652E-006  0.1846758E+03  0.7561462E-02  0.1163353E+00
         -2   -1    0    0    0  501 -0.00000000000E+00  0.00000000000E+00  0.25061876038E+03  0.25061876038E+03  0.00000000000E+00 0.  1.
          2   -1    0    0  501    0  0.00000000000E+00 -0.00000000000E+00 -0.16799790278E+03  0.16799790278E+03  0.00000000000E+00 0. -1.
         23    2    1    2    0    0 -0.13491820019E+03  0.73384502786E+02  0.12662284746E+03  0.23509559955E+03  0.12509352277E+03 0.  0.
          5    1    3    3  502    0 -0.89141381926E+02 -0.18371127578E+02  0.35265827978E+02  0.97697673069E+02  0.41800000000E+01 0.  1.
         -5    1    3    3    0  502 -0.45776818259E+02  0.91755630364E+02  0.91357019483E+02  0.13739792649E+03  0.41800000000E+01 0.  1.
        -11    1    1    2    0    0  0.55508050273E+02  0.14295911950E+02 -0.35830749539E-01  0.57319438478E+02  0.00000000000E+00 0.  1.
         11    1    1    2    0    0  0.79410149912E+02 -0.87680414736E+02 -0.43966159112E+02  0.12620162513E+03  0.00000000000E+00 0. -1.
</event>
<event>
 7    1  0.8653652E-006  0.1724025E+03  0.7561462E-02  0.1175365E+00
          1   -1    0    0  501    0  0.00000000000E+00  0.00000000000E+00  0.61628786015E+02  0.61628786015E+02  0.00000000000E+00 0. -1.
         -1   -1    0    0    0  501 -0.00000000000E+00 -0.00000000000E+00 -0.62785571015E+03  0.62785571015E+03  0.00000000000E+00 0.  1.
         23    2    1    2    0    0  0.50094122479E+02  0.13677857350E+03 -0.42894949275E+03  0.46996089178E+03  0.12509105962E+03 0.  0.
          5    1    3    3  502    0  0.47811802684E+02 -0.66033770331E+01 -0.11487537360E+03  0.12467316040E+03  0.41800000000E+01 0.  1.
         -5    1    3    3    0  502  0.22823197945E+01  0.14338195053E+03 -0.31407411916E+03  0.34528773138E+03  0.41800000000E+01 0.  1.
        -11    1    1    2    0    0 -0.53202680073E+02 -0.80251064709E+02 -0.13097878802E+03  0.16256137753E+03  0.00000000000E+00 0.  1.
         11    1    1    2    0    0  0.31085575946E+01 -0.56527508787E+02 -0.62986433647E+01  0.56962226854E+02  0.00000000000E+00 0. -1.
</event>
<event>
 7    1  0.8653652E-006  0.1083475E+03  0.7561462E-02  0.1263661E+00
          2   -1    0    0  501    0  0.00000000000E+00  0.00000000000E+00  0.45216331398E+03  0.45216331398E+03  0.00000000000E+00 0. -1.
         -2   -1    0    0    0  501 -0.00000000000E+00 -0.00000000000E+00 -0.31534578879E+02  0.31534578879E+02  0.00000000000E+00 0.  1.
         23    2    1    2    0    0  0.24941619023E+02  0.42194292192E+02  0.20998707953E+03  0.24930424852E+03  0.12512230860E+03 0.  0.
          5    1    3    3  502    0 -0.38186303007E+02  0.32487640841E+02  0.30706865744E+02  0.58940856361E+02  0.41800000000E+01 0.  1.
         -5    1    3    3    0  502  0.63127922030E+02  0.97066513512E+01  0.17928021378E+03  0.19036339216E+03  0.41800000000E+01 0.  1.
        -11    1    1    2    0    0 -0.39484761100E+01 -0.68561298560E+02  0.13087443533E+03  0.14779837599E+03  0.00000000000E+00 0.  1.
         11    1    1    2    0    0 -0.20993142913E+02  0.26367006368E+02  0.79767220250E+02  0.86595268350E+02  0.00000000000E+00 0. -1.
</event>
<event>
 7    1  0.8653652E-006  0.1149660E+03  0.7561462E-02  0.1251641E+00
          3   -1    0    0  501    0  0.00000000000E+00  0.00000000000E+00  0.22597273997E+03  0.22597273997E+03  0.00000000000E+00 0. -1.
         -3   -1    0    0    0  501 -0.00000000000E+00 -0.00000000000E+00 -0.71896397655E+02  0.71896397655E+02  0.00000000000E+00 0.  1.
         23    2    1    2    0    0 -0.50445792423E+02  0.41520086509E+02  0.67160179417E+02  0.15629027463E+03  0.12508982648E+03 0.  0.
          5    1    3    3  502    0 -0.71877593554E+02  0.68610094098E+02  0.69632522676E+02  0.12140796548E+03  0.41800000000E+01 0.  1.
         -5    1    3    3    0  502  0.21431801131E+02 -0.27090007589E+02 -0.24723432589E+01  0.34882309156E+02  0.41800000000E+01 0.  1.
        -11    1    1    2    0    0  0.40321951182E+02 -0.61352107146E+02  0.93009589732E+02  0.11849356346E+03  0.00000000000E+00 0. -1.
         11    1    1    2    0    0  0.10123841240E+02  0.19832020636E+02 -0.60934268355E+01  0.23085299534E+02  0.00000000000E+00 0.  1.
</event>
<event>
 7    1  0.8653652E-006  0.1101904E+03  0.7561462E-02  0.1260218E+00
          1   -1    0    0  501    0  0.00000000000E+00  0.00000000000E+00  0.13782709910E+03  0.13782709910E+03  0.00000000000E+00 0. -1.
         -1   -1    0    0    0  501 -0.00000000000E+00 -0.00000000000E+00 -0.99272030407E+02  0.99272030407E+02  0.00000000000E+00 0.  1.
         23    2    1    2    0    0  0.22255831928E+02 -0.38944278475E+02  0.16551918034E+02  0.13387999540E+03  0.12505162253E+03 0.  0.
          5    1    3    3  502    0  0.46714643935E+02  0.29487047136E+02  0.24655460258E+02  0.60639162488E+02  0.41800000000E+01 0. -1.
         -5    1    3    3    0  502 -0.24458812007E+02 -0.68431325611E+02 -0.81035422241E+01  0.73240832916E+02  0.41800000000E+01 0. -1.
        -11    1    1    2    0    0 -0.52793412989E+02  0.21361879132E+02 -0.72634466020E+01  0.57412820795E+02  0.00000000000E+00 0.  1.
         11    1    1    2    0    0  0.30537581060E+02  0.17582399343E+02  0.29266597266E+02  0.45806313311E+02  0.00000000000E+00 0. -1.
</event>
<event>
 7    1  0.8653652E-006  0.1358415E+03  0.7561462E-02  0.1219037E+00
         -1   -1    0    0    0  501 -0.00000000000E+00  0.00000000000E+00  0.62991083008E+02  0.62991083008E+02  0.00000000000E+00 0.  1.
          1   -1    0    0  501    0  0.00000000000E+00 -0.00000000000E+00 -0.43100187624E+03  0.43100187624E+03  0.00000000000E+00 0. -1.
         23    2    1    2    0    0  0.90769725753E+02  0.13284612521E+02 -0.72214772746E+02  0.17110846316E+03  0.12509000248E+03 0.  0.
          5    1    3    3  502    0  0.93133420939E+02  0.57907868020E+02 -0.57355737904E+02  0.12383177438E+03  0.41800000000E+01 0.  1.
         -5    1    3    3    0  502 -0.23636951854E+01 -0.44623255498E+02 -0.14859034841E+02  0.47276688787E+02  0.41800000000E+01 0.  1.
        -11    1    1    2    0    0 -0.39815364709E+02  0.30275052563E+02 -0.61961833006E+02  0.79631092069E+02  0.00000000000E+00 0.  1.
         11    1    1    2    0    0 -0.50954361045E+02 -0.43559665084E+02 -0.23383418748E+03  0.24325340401E+03  0.00000000000E+00 0. -1.
</event>
<event>
 7    1  0.8653652E-006  0.9737468E+02  0.7561462E-02  0.1285916E+00
          1   -1    0    0  501    0  0.00000000000E+00  0.00000000000E+00  0.26539345003E+03  0.26539345003E+03  0.00000000000E+00 0. -1.
         -1   -1    0    0    0  501 -0.00000000000E+00 -0.00000000000E+00 -0.14757502075E+03  0.14757502075E+03  0.00000000000E+00 0.  1.
         23    2    1    2    0    0  0.22680628654E+02 -0.19963195086E+02 -0.11473866507E+03  0.16229990984E+03  0.11074005327E+03 0.  0.
          5    1    3    3  502    0 -0.37475254301E+02 -0.18239911794E+02 -0.12713504311E+02  0.43774360749E+02  0.41800000000E+01 0. -1.
         -5    1    3    3    0  502  0.60155882954E+02 -0.17232832917E+01 -0.10202516076E+03  0.11852554909E+03  0.41800000000E+01 0.  1.
        -11    1    1    2    0    0  0.82655933121E+01 -0.31455521861E+02  0.64878601686E+02  0.72574119664E+02  0.00000000000E+00 0.  1.
         11    1    1    2    0    0 -0.30946221966E+02  0.51418716947E+02  0.16767849268E+03  0.17809444127E+03  0.00000000000E+00 0. -1.
</event>
<event>
 7    1  0.8653652E-006  0.2544811E+03  0.7561462E-02  0.1110505E+00
          2   -1    0    0  501    0  0.00000000000E+00  0.00000000000E+00  0.28982651390E+03  0.28982651390E+03  0.00000000000E+00 0. -1.
         -2   -1    0    0    0  501 -0.00000000000E+00 -0.00000000000E+00 -0.25995668075E+03  0.25995668075E+03  0.00000000000E+00 0.  1.
         23    2    1    2    0    0  0.25093017910E+03  0.93942946087E+01 -0.14499343963E+02  0.28091279350E+03  0.12509020355E+03 0.  0.
          5    1    3    3  502    0  0.64658633783E+02  0.99056662578E+01  0.51385851806E+02  0.83287690042E+02  0.41800000000E+01 0.  1.
         -5    1    3    3    0  502  0.18627154532E+03 -0.51137164909E+00 -0.65885195769E+02  0.19762510346E+03  0.41800000000E+01 0.  1.
        -11    1    1    2    0    0 -0.73453227894E+02  0.22402989735E+02 -0.16544948493E+02  0.78555750635E+02  0.00000000000E+00 0.  1.
         11    1    1    2    0    0 -0.17747695120E+03 -0.31797284344E+02  0.60914125605E+02  0.19031465051E+03  0.00000000000E+00 0. -1.
</event>
<event>
 7    1  0.8653652E-006  0.1626969E+03  0.7561462E-02  0.1185685E+00
         -2   -1    0    0    0  501 -0.00000000000E+00  0.00000000000E+00  0.13245596159E+03  0.13245596159E+03  0.00000000000E+00 0.  1.
          2   -1    0    0  501    0  0.00000000000E+00 -0.00000000000E+00 -0.23899229994E+03  0.23899229994E+03  0.00000000000E+00 0. -1.
         23    2    1    2    0    0  0.90530743155E+02  0.10467759227E+03 -0.27802746762E+02  0.18861104642E+03  0.12509164771E+03 0.  0.
          5    1    3    3  502    0 -0.29838809890E+02  0.22808940276E+02 -0.20033370336E+02  0.42771610435E+02  0.41800000000E+01 0. -1.
         -5    1    3    3    0  502  0.12036955304E+03  0.81868651996E+02 -0.77693764259E+01  0.14583943599E+03  0.41800000000E+01 0. -1.
        -11    1    1    2    0    0 -0.43626957619E+02 -0.74074060899E+02  0.30592401329E+00  0.85967270044E+02  0.00000000000E+00 0.  1.
         11    1    1    2    0    0 -0.46903785535E+02 -0.30603531373E+02 -0.79039515601E+02  0.96869945062E+02  0.00000000000E+00 0. -1.
</event>
<event>
 7    1  0.8653652E-006  0.9974188E+02  0.7561462E-02  0.1280840E+00
          1   -1    0    0  501    0  0.00000000000E+00  0.00000000000E+00  0.29599531632E+03  0.29599531632E+03  0.00000000000E+00 0. -1.
         -1   -1    0    0    0  501 -0.00000000000E+00 -0.00000000000E+00 -0.64618774460E+02  0.64618774460E+02  0.00000000000E+00 0.  1.
         23    2    1    2    0    0 -0.78682513484E+02  0.97446592520E+01  0.80269231475E+02  0.16629962973E+03  0.12217414217E+03 0.  0.
          5    1    3    3  502    0 -0.33382820680E+02  0.27940462210E+02  0.10328857026E+03  0.11216542824E+03  0.41800000000E+01 0. -1.
         -5    1    3    3    0  502 -0.45299692804E+02 -0.18195802958E+02 -0.23019338787E+02  0.54134201496E+02  0.41800000000E+01 0.  1.
        -11    1    1    2    0    0  0.52242693087E+02 -0.40568715940E+02  0.43158500227E+02  0.78979591262E+02  0.00000000000E+00 0.  1.
         11    1    1    2    0    0  0.26439820397E+02  0.30824056688E+02  0.10794881016E+03  0.11533486978E+03  0.00000000000E+00 0. -1.
</event>
<event>
 7    1  0.8653652E-006  0.1161296E+03  0.7561462E-02  0.1249622E+00
         -2   -1    0    0    0  501 -0.00000000000E+00  0.00000000000E+00  0.16717886527E+03  0.16717886527E+03  0.00000000000E+00 0.  1.
          2   -1    0    0  501    0  0.00000000000E+00 -0.00000000000E+00 -0.10431000404E+03  0.10431000404E+03  0.00000000000E+00 0. -1.
         23    2    1    2    0    0  0.28283990354E+02 -0.66506985354E+02  0.58330718821E+02  0.15579451774E+03  0.12508515414E+03 0.  0.
          5    1    3    3  502    0  0.62571004174E+02 -0.41809112506E+02  0.78465674376E+02  0.10880012365E+03  0.41800000000E+01 0. -1.
         -5    1    3    3    0  502 -0.34287013819E+02 -0.24697872848E+02 -0.20134955555E+02  0.46994394081E+02  0.41800000000E+01 0. -1.
        -11    1    1    2    0    0  0.67427163885E+00  0.81715246330E+02  0.10682651033E+02  0.82413319057E+02  0.00000000000E+00 0.  1.
         11    1    1    2    0    0 -0.28958261993E+02 -0.15208260976E+02 -0.61445086241E+01  0.33281032523E+02  0.00000000000E+00 0. -1.
</event>
<event>
 7    1  0.8653652E-006  0.1804149E+03  0.7561462E-02  0.1167402E+00
         -2   -1    0    0    0  501 -0.00000000000E+00  0.00000000000E+00  0.13955205353E+03  0.13955205353E+03  0.00000000000E+00 0.  1.
          2   -1    0    0  501    0  0.00000000000E+00 -0.00000000000E+00 -0.33838869585E+03  0.33838869585E+03  0.00000000000E+00 0. -1.
         23    2    1    2    0    0  0.15986504915E+03  0.34214685905E+02  0.33797294906E+01  0.20588088099E+03  0.12509210972E+03 0.  0.
          5    1    3    3  502    0  0.17144318109E+03  0.45145368691E+02  0.24587964998E+02  0.17903326250E+03  0.41800000000E+01 0.  1.
         -5    1    3    3    0  502 -0.11578131941E+02 -0.10930682786E+02 -0.21208235508E+02  0.26847618493E+02  0.41800000000E+01 0.  1.
        -11    1    1    2    0    0 -0.31849062578E+02  0.68740188561E+01 -0.93948214062E+02  0.99437829058E+02  0.00000000000E+00 0. -1.
         11    1    1    2    0    0 -0.12801598658E+03 -0.41088704761E+02 -0.10826815775E+03  0.17262203932E+03  0.00000000000E+00 0.  1.
</event>
<event>
 7    1  0.8653652E-006  0.7202295E+02  0.7561462E-02  0.1353346E+00
          2   -1    0    0  501    0  0.00000000000E+00  0.00000000000E+00  0.75938409319E+02  0.75938409319E+02  0.00000000000E+00 0. -1.
         -2   -1    0    0    0  501 -0.00000000000E+00 -0.00000000000E+00 -0.18719799663E+03  0.18719799663E+03  0.00000000000E+00 0.  1.
         23    2    1    2    0    0  0.30832001356E+02 -0.19947246531E+02 -0.98935056237E+02  0.16366247070E+03  0.12509497996E+03 0.  0.
          5    1    3    3  502    0  0.28328552397E+02  0.37685309747E+02  0.19536737711E+01  0.47370652232E+02  0.41800000000E+01 0. -1.
         -5    1    3    3    0  502  0.25034489587E+01 -0.57632556278E+02 -0.10088873001E+03  0.11629181847E+03  0.41800000000E+01 0. -1.
        -11    1    1    2    0    0 -0.63024252081E+01  0.11168916574E+02 -0.51141221951E+02  0.52724660677E+02  0.00000000000E+00 0.  1.
         11    1    1    2    0    0 -0.24529576148E+02  0.87783299576E+01  0.38816690874E+02  0.46749274575E+02  0.00000000000E+00 0. -1.
</event>
<event>
 7    1  0.8653652E-006  0.8890951E+02  0.7561462E-02  0.1305514E+00
          1   -1    0    0  501    0  0.00000000000E+00  0.00000000000E+00  0.12843438778E+03  0.12843438778E+03  0.00000000000E+00 0. -1.
         -1   -1    0    0    0  501 -0.00000000000E+00 -0.00000000000E+00 -0.20351048736E+03  0.20351048736E+03  0.00000000000E+00 0.  1.
         23    2    1    2    0    0 -0.78522060121E+02 -0.16035865215E+02 -0.13124317616E+03  0.19822918459E+03  0.12508867030E+03 0.  0.
          5    1    3    3  502    0 -0.11082818595E+01  0.11933162919E+02  0.21328800967E+02  0.24819726361E+02  0.41800000000E+01 0.  1.
         -5    1    3    3    0  502 -0.77413778261E+02 -0.27969028134E+02 -0.15257197713E+03  0.17340945823E+03  0.41800000000E+01 0.  1.
        -11    1    1    2    0    0  0.26758208424E+02  0.15538838450E+02  0.72995308541E+02  0.79282862508E+02  0.00000000000E+00 0. -1.
         11    1    1    2    0    0  0.51763851697E+02  0.49702676548E+00 -0.16828231956E+02  0.54432828044E+02  0.00000000000E+00 0.  1.
</event>
<event>
 7    1  0.8653652E-006  0.1062802E+03  0.7561462E-02  0.1267618E+00
         -1   -1    0    0    0  501 -0.00000000000E+00  0.00000000000E+00  0.58681133388E+02  0.58681133388E+02  0.00000000000E+00 0.  1.
          1   -1    0    0  501    0  0.00000000000E+00 -0.00000000000E+00 -0.23700069736E+03  0.23700069736E+03  0.00000000000E+00 0. -1.
         23    2    1    2    0    0  0.16664663193E+02 -0.40482191669E+02 -0.76965831449E+02  0.15326680942E+03  0.12510178583E+03 0.  0.
          5    1    3    3  502    0  0.17116700701E+02 -0.75529407739E+02 -0.10842447010E+02  0.78311582371E+02  0.41800000000E+01 0. -1.
         -5    1    3    3    0  502 -0.45203750885E+00  0.35047216070E+02 -0.66123384438E+02  0.74955227048E+02  0.41800000000E+01 0. -1.
        -11    1    1    2    0    0  0.35539603484E+02  0.34651913364E+01 -0.30748540703E+02  0.47122645534E+02  0.00000000000E+00 0.  1.
         11    1    1    2    0    0 -0.52204266676E+02  0.37017000332E+02 -0.70605191824E+02  0.95292375799E+02  0.00000000000E+00 0. -1.
</event>
<event>
 7    1  0.8653652E-006  0.6915695E+02  0.7561462E-02  0.1362984E+00
         -2   -1    0    0    0  501 -0.00000000000E+00  0.00000000000E+00  0.17705950867E+03  0.17705950867E+03  0.00000000000E+00 0.  1.
          2   -1    0    0  501    0  0.00000000000E+00 -0.00000000000E+00 -0.87159534744E+02  0.87159534744E+02  0.00000000000E+00 0. -1.
         23    2    1    2    0    0  0.43662600219E+02 -0.10915072375E+02  0.93064447432E+02  0.16221749323E+03  0.12501184852E+03 0.  0.
          5    1    3    3  502    0  0.50701487184E+02 -0.25955136505E+02  0.11850589257E+03  0.13155010029E+03  0.41800000000E+01 0. -1.
         -5    1    3    3    0  502 -0.70388869653E+01  0.15040064129E+02 -0.25441445135E+02  0.30667392933E+02  0.41800000000E+01 0. -1.
        -11    1    1    2    0    0  0.58192186798E+01  0.13322343311E+02  0.36016511904E+02  0.38839892727E+02  0.00000000000E+00 0.  1.
         11    1    1    2    0    0 -0.49481818899E+02 -0.24072709351E+01 -0.39180985414E+02  0.63161657458E+02  0.00000000000E+00 0. -1.
</event>
<event>
 7    1  0.8653652E-006  0.1521911E+03  0.7561462E-02  0.1197806E+00
         -2   -1    0    0    0  501 -0.00000000000E+00  0.00000000000E+00  0.44586083251E+03  0.44586083251E+03  0.00000000000E+00 0.  1.
          2   -1    0    0  501    0  0.00000000000E+00 -0.00000000000E+00 -0.77917011133E+02  0.77917011133E+02  0.00000000000E+00 0. -1.
         23    2    1    2    0    0  0.12990243629E+03  0.61053500964E+02  0.26601495600E+03  0.32712890568E+03  0.12508873323E+03 0.  0.
          5    1    3    3  502    0  0.10289417046E+03  0.55218240542E+02  0.27415812299E+03  0.29802082680E+03  0.41800000000E+01 0.  1.
         -5    1    3    3    0  502  0.27008265838E+02  0.58352604220E+01 -0.81431669884E+01  0.29108078885E+02  0.41800000000E+01 0.  1.
        -11    1    1    2    0    0 -0.35851096364E+02  0.14773633731E+02  0.54443111318E+02  0.66840210458E+02  0.00000000000E+00 0. -1.
         11    1    1    2    0    0 -0.94051339929E+02 -0.75827134695E+02  0.47485754058E+02  0.12980872751E+03  0.00000000000E+00 0.  1.
</event>
<event>
 7    1  0.8653652E-006  0.1503730E+03  0.7561462E-02  0.1200015E+00
         -1   -1    0    0    0  501 -0.00000000000E+00  0.00000000000E+00  0.31217849927E+02  0.31217849927E+02  0.00000000000E+00 0.  1.
          1   -1    0    0  501    0  0.00000000000E+00 -0.00000000000E+00 -0.92357019339E+03  0.92357019339E+03  0.00000000000E+00 0. -1.
         23    2    1    2    0    0 -0.74273255791E+02  0.99476833180E+02 -0.36515076497E+03  0.40545596083E+03  0.12508916078E+03 0.  0.
          5    1    3    3  502    0 -0.10216013584E+03  0.75003636291E+02 -0.20531514871E+03  0.24131726316E+03  0.41800000000E+01 0. -1.
         -5    1    3    3    0  502  0.27886880045E+02  0.24473196888E+02 -0.15983561627E+03  0.16413869767E+03  0.41800000000E+01 0. -1.
        -11    1    1    2    0    0  0.56553441420E+02 -0.28272725274E+02 -0.37585954936E+03  0.38114044600E+03  0.00000000000E+00 0. -1.
         11    1    1    2    0    0  0.17719814371E+02 -0.71204107906E+02 -0.15134202913E+03  0.16819163649E+03  0.00000000000E+00 0.  1.
</event>
<event>
 7    1  0.8653652E-006  0.1868057E+03  0.7561462E-02  0.1161374E+00
          1   -1    0    0  501    0  0.00000000000E+00  0.00000000000E+00  0.81968036117E+03  0.81968036117E+03  0.00000000000E+00 0. -1.
         -1   -1    0    0    0  501 -0.00000000000E+00 -0.00000000000E+00 -0.49765237257E+02  0.49765237257E+02  0.00000000000E+00 0.  1.
         23    2    1    2    0    0 -0.16026017470E+03  0.29341157771E+02  0.30145309410E+03  0.36478363223E+03  0.12509557652E+03 0.  0.
          5    1    3    3  502    0 -0.10052511036E+02  0.34684496548E+02  0.11441697430E+02  0.38111049828E+02  0.41800000000E+01 0. -1.
         -5    1    3    3    0  502 -0.15020766367E+03 -0.53433387764E+01  0.29001139667E+03  0.32667258240E+03  0.41800000000E+01 0. -1.
        -11    1    1    2    0    0  0.48752936927E+02 -0.53941985398E+02  0.20525292864E+03  0.21775066329E+03  0.00000000000E+00 0.  1.
         11    1    1    2    0    0  0.11150723778E+03  0.24600827627E+02  0.26320910118E+03  0.28691130291E+03  0.00000000000E+00 0. -1.
</event>
<event>
 7    1  0.8653652E-006  0.1039469E+03  0.7561462E-02  0.1272208E+00
         -2   -1    0    0    0  501 -0.00000000000E+00  0.00000000000E+00  0.36203852919E+02  0.36203852919E+02  0.00000000000E+00 0.  1.
          2   -1    0    0  501    0  0.00000000000E+00 -0.00000000000E+00 -0.40412688986E+03  0.40412688986E+03  0.00000000000E+00 0. -1.
         23    2    1    2    0    0 -0.93013969312E+01 -0.19416527359E+02 -0.11877076757E+03  0.17383228481E+03  0.12509056917E+03 0.  0.
          5    1    3    3  502    0  0.47602323897E+02  0.21476755712E+02 -0.73654107606E+02  0.90386017965E+02  0.41800000000E+01 0. -1.
         -5    1    3    3    0  502 -0.56903720829E+02 -0.40893283071E+02 -0.45116659967E+02  0.83446266849E+02  0.41800000000E+01 0. -1.
        -11    1    1    2    0    0  0.45500131053E+02  0.18437625123E+02 -0.19687787889E+03  0.20290664638E+03  0.00000000000E+00 0.  1.
         11    1    1    2    0    0 -0.36198734122E+02  0.97890223602E+00 -0.52274390477E+02  0.63591811590E+02  0.00000000000E+00 0. -1.
</event>
<event>
 7    1  0.8653652E-006  0.8574553E+02  0.7561462E-02  0.1313494E+00
          1   -1    0    0  501    0  0.00000000000E+00  0.00000000000E+00  0.54015530502E+03  0.54015530502E+03  0.00000000000E+00 0. -1.
         -1   -1    0    0    0  501 -0.00000000000E+00 -0.00000000000E+00 -0.29708797448E+02  0.29708797448E+02  0.00000000000E+00 0.  1.
         23    2    1    2    0    0 -0.65849697706E+02 -0.18219969486E+02  0.31859699570E+03  0.34902647961E+03  0.12508911951E+03 0.  0.
          5    1    3    3  502    0 -0.34148387096E+02  0.29679905963E+02  0.29327181191E+02  0.54079248477E+02  0.41800000000E+01 0.  1.
         -5    1    3    3    0  502 -0.31701310610E+02 -0.47899875449E+02  0.28926981451E+03  0.29494723113E+03  0.41800000000E+01 0.  1.
        -11    1    1    2    0    0  0.27339606926E+02  0.97971914689E+01  0.45034067605E+01  0.29389109208E+02  0.00000000000E+00 0.  1.
         11    1    1    2    0    0  0.38510090780E+02  0.84227780167E+01  0.18734610510E+03  0.19144851365E+03  0.00000000000E+00 0. -1.
</event>
<event>
 7    1  0.8653652E-006  0.1796020E+03  0.7561462E-02  0.1168189E+00
         -2   -1    0    0    0  501 -0.00000000000E+00  0.00000000000E+00  0.50591670447E+02  0.50591670447E+02  0.00000000000E+00 0.  1.
          2   -1    0    0  501    0  0.00000000000E+00 -0.00000000000E+00 -0.86083795714E+03  0.86083795714E+03  0.00000000000E+00 0. -1.
         23    2    1    2    0    0  0.14590102882E+03  0.47047812045E+01 -0.22932365660E+03  0.29924036231E+03  0.12508481034E+03 0.  0.
          5    1    3    3  502    0  0.14330609867E+03 -0.20193320074E+02 -0.23226086652E+03  0.27369141493E+03  0.41800000000E+01 0.  1.
         -5    1    3    3    0  502  0.25949301501E+01  0.24898101278E+02  0.29372099142E+01  0.25548947372E+02  0.41800000000E+01 0.  1.
        -11    1    1    2    0    0 -0.11398313621E+03  0.50975516534E+02 -0.32021254721E+03  0.34369569974E+03  0.00000000000E+00 0.  1.
         11    1    1    2    0    0 -0.31917892615E+02 -0.55680297739E+02 -0.26071008288E+03  0.26849356555E+03  0.00000000000E+00 0. -1.
</event>
<event>
 7    1  0.8653652E-006  0.1662044E+03  0.7561462E-02  0.1181865E+00
         -2   -1    0    0    0  501 -0.00000000000E+00  0.00000000000E+00  0.85267365918E+03  0.85267365918E+03  0.00000000000E+00 0.  1.
          2   -1    0    0  501    0  0.00000000000E+00 -0.00000000000E+00 -0.35823537701E+02  0.35823537701E+02  0.00000000000E+00 0. -1.
         23    2    1    2    0    0  0.13367542800E+03 -0.29000085055E+02  0.44133636133E+03  0.47868131710E+03  0.12509154459E+03 0.  0.
          5    1    3    3  502    0 -0.34580383915E+01  0.24526465747E+02  0.19268250635E+02  0.31658228537E+02  0.41800000000E+01 0. -1.
         -5    1    3    3    0  502  0.13713346639E+03 -0.53526550802E+02  0.42206811069E+03  0.44702308856E+03  0.41800000000E+01 0. -1.
        -11    1    1    2    0    0 -0.11219168594E+03  0.56101671431E+02  0.32703163903E+03  0.35026285110E+03  0.00000000000E+00 0.  1.
         11    1    1    2    0    0 -0.21483742055E+02 -0.27101586376E+02  0.48482121118E+02  0.59553028679E+02  0.00000000000E+00 0. -1.
</event>
<event>
 7    1  0.8653652E-006  0.1681771E+03  0.7561462E-02  0.1179762E+00
         -1   -1    0    0    0  501 -0.00000000000E+00  0.00000000000E+00  0.79515485287E+02  0.79515485287E+02  0.00000000000E+00 0.  1.
          1   -1    0    0  501    0  0.00000000000E+00 -0.00000000000E+00 -0.45629915647E+03  0.45629915647E+03  0.00000000000E+00 0. -1.
         23    2    1    2    0    0 -0.12484579165E+03 -0.86367196773E+02 -0.14537331457E+03  0.24459743418E+03  0.12509492335E+03 0.  0.
          5    1    3    3  502    0 -0.61464563439E+02  0.79876381133E+01 -0.27644361416E+01  0.62183674936E+02  0.41800000000E+01 0.  1.
         -5    1    3    3    0  502 -0.63381228207E+02 -0.94354834886E+02 -0.14260887843E+03  0.18241375924E+03  0.41800000000E+01 0.  1.
        -11    1    1    2    0    0  0.10356657426E+03  0.91944242476E+02 -0.23085821367E+03  0.26921235827E+03  0.00000000000E+00 0. -1.
         11    1    1    2    0    0  0.21279217383E+02 -0.55770457034E+01 -0.55214295152E+00  0.22004849308E+02  0.00000000000E+00 0.  1.
</event>
<event>
 7    1  0.8653652E-006  0.1170744E+03  0.7561462E-02  0.1248003E+00
         -1   -1    0    0    0  501 -0.00000000000E+00  0.00000000000E+00  0.51534004566E+02  0.51534004566E+02  0.00000000000E+00 0.  1.
          1   -1    0    0  501    0  0.00000000000E+00 -0.00000000000E+00 -0.30979980858E+03  0.30979980858E+03  0.00000000000E+00 0. -1.
         23    2    1    2    0    0 -0.48168731241E+02  0.41874707887E+02 -0.13125653020E+03  0.19217348442E+03  0.12501461340E+03 0.  0.
          5    1    3    3  502    0 -0.76519371722E+01  0.81076379293E+02 -0.94138769142E+02  0.12454521941E+03  0.41800000000E+01 0.  1.
         -5    1    3    3    0  502 -0.40516794069E+02 -0.39201671406E+02 -0.37117761062E+02  0.67628265015E+02  0.41800000000E+01 0.  1.
        -11    1    1    2    0    0  0.66263952760E+02 -0.23562318674E+02 -0.45699321987E+02  0.83872059273E+02  0.00000000000E+00 0.  1.
         11    1    1    2    0    0 -0.18095221519E+02 -0.18312389213E+02 -0.81309951824E+02  0.85288269452E+02  0.00000000000E+00 0. -1.
</event>
<event>
 7    1  0.8653652E-006  0.1684279E+03  0.7561462E-02  0.1179497E+00
          2   -1    0    0  501    0  0.00000000000E+00  0.00000000000E+00  0.12920654824E+04  0.12920654824E+04  0.00000000000E+00 0. -1.
         -2   -1    0    0    0  501 -0.00000000000E+00 -0.00000000000E+00 -0.23455955459E+02  0.23455955459E+02  0.00000000000E+00 0.  1.
         23    2    1    2    0    0  0.12986782554E+03 -0.44877590881E+02  0.69017636013E+03  0.71475131400E+03  0.12508550076E+03 0.  0.
          5    1    3    3  502    0  0.15471369383E+03 -0.42155063275E+02  0.60217579024E+03  0.62317455915E+03  0.41800000000E+01 0.  1.
         -5    1    3    3    0  502 -0.24845868286E+02 -0.27225276062E+01  0.88000569894E+02  0.91576754851E+02  0.41800000000E+01 0.  1.
        -11    1    1    2    0    0 -0.25721188853E+02  0.39096484766E+02  0.91306328061E+02  0.10260097573E+03  0.00000000000E+00 0.  1.
         11    1    1    2    0    0 -0.10414663669E+03  0.57811061146E+01  0.48712683876E+03  0.49816914815E+03  0.00000000000E+00 0. -1.
</event>
<event>
 7    1  0.8653652E-006  0.1302755E+03  0.7561462E-02  0.1227047E+00
          1   -1    0    0  501    0  0.00000000000E+00  0.00000000000E+00  0.27047804658E+02  0.27047804658E+02  0.00000000000E+00 0. -1.
         -1   -1    0    0    0  501 -0.00000000000E+00 -0.00000000000E+00 -0.80087563741E+03  0.80087563741E+03  0.00000000000E+00 0.  1.
         23    2    1    2    0    0 -0.96055113155E+02  0.15683616452E+02 -0.47770044107E+03  0.50330960544E+03  0.12510110689E+03 0.  0.
          5    1    3    3  502    0 -0.11345285579E+03  0.30209902605E+02 -0.27153060226E+03  0.29585558819E+03  0.41800000000E+01 0. -1.
         -5    1    3    3    0  502  0.17397742633E+02 -0.14526286153E+02 -0.20616983881E+03  0.20745401725E+03  0.41800000000E+01 0. -1.
        -11    1    1    2    0    0  0.49826398309E+02  0.27372307003E+02 -0.21150158621E+03  0.21900875355E+03  0.00000000000E+00 0.  1.
         11    1    1    2    0    0  0.46228714846E+02 -0.43055923455E+02 -0.84625805471E+02  0.10560508308E+03  0.00000000000E+00 0. -1.
</event>
<event>
 7    1  0.8653652E-006  0.6884886E+02  0.7561462E-02  0.1364052E+00
         -3   -1    0    0    0  501 -0.00000000000E+00  0.00000000000E+00  0.29266760979E+03  0.29266760979E+03  0.00000000000E+00 0.  1.
          3   -1    0    0  501    0  0.00000000000E+00 -0.00000000000E+00 -0.78743753325E+02  0.78743753325E+02  0.00000000000E+00 0. -1.
         23    2    1    2    0    0  0.38837762012E+02  0.82768247504E+01  0.22892917018E+03  0.26387960919E+03  0.12508799143E+03 0.  0.
          5    1    3    3  502    0 -0.23083286704E+02 -0.30338348814E+01  0.18617675763E+03  0.18767338586E+03  0.41800000000E+01 0. -1.
         -5    1    3    3    0  502  0.61921048716E+02  0.11310659632E+02  0.42752412554E+02  0.76206223332E+02  0.41800000000E+01 0. -1.
        -11    1    1    2    0    0 -0.29070837526E+02  0.95778356291E+01  0.39140653398E+02  0.49687415693E+02  0.00000000000E+00 0.  1.
         11    1    1    2    0    0 -0.97669244864E+01 -0.17854660379E+02 -0.54145967112E+02  0.57844338234E+02  0.00000000000E+00 0. -1.
</event>
<event>
 7    1  0.8653652E-006  0.9767290E+02  0.7561462E-02  0.1285267E+00
         -2   -1    0    0    0  501 -0.00000000000E+00  0.00000000000E+00  0.46659262843E+03  0.46659262843E+03  0.00000000000E+00 0.  1.
          2   -1    0    0  501    0  0.00000000000E+00 -0.00000000000E+00 -0.37614221892E+02  0.37614221892E+02  0.00000000000E+00 0. -1.
         23    2    1    2    0    0  0.19413192799E+02 -0.34730892756E+02  0.36289524312E+03  0.38590601758E+03  0.12508952778E+03 0.  0.
          5    1    3    3  502    0 -0.51471872032E+02  0.14180751829E+00  0.16031280964E+03  0.16842518534E+03  0.41800000000E+01 0. -1.
         -5    1    3    3    0  502  0.70885064830E+02 -0.34872700274E+02  0.20258243347E+03  0.21748083224E+03  0.41800000000E+01 0. -1.
        -11    1    1    2    0    0 -0.19465438323E+02 -0.85882847743E+01 -0.15232224956E+02  0.26166440369E+02  0.00000000000E+00 0. -1.
         11    1    1    2    0    0  0.52245524497E-01  0.43319177530E+02  0.81315388377E+02  0.92134392375E+02  0.00000000000E+00 0.  1.
</event>
<event>
 7    1  0.8653652E-006  0.2045107E+03  0.7561462E-02  0.1145988E+00
          2   -1    0    0  501    0  0.00000000000E+00  0.00000000000E+00  0.41881106641E+03  0.41881106641E+03  0.00000000000E+00 0.  1.
         -2   -1    0    0    0  501 -0.00000000000E+00 -0.00000000000E+00 -0.11990119110E+03  0.11990119110E+03  0.00000000000E+00 0. -1.
         23    2    1    2    0    0 -0.12397814608E+03 -0.13324892053E+03  0.68750681924E+02  0.23129911682E+03  0.12508704829E+03 0.  0.
          5    1    3    3  502    0 -0.54987389606E+02 -0.12547638207E+03  0.53155426377E+01  0.13716290631E+03  0.41800000000E+01 0.  1.
         -5    1    3    3    0  502 -0.68990756473E+02 -0.77725384547E+01  0.63435139286E+02  0.94136210509E+02  0.41800000000E+01 0.  1.
        -11    1    1    2    0    0  0.46317930287E+02  0.11304114780E+03  0.15606156246E+03  0.19818895791E+03  0.00000000000E+00 0.  1.
         11    1    1    2    0    0  0.77660215792E+02  0.20207772733E+02  0.74097630918E+02  0.10922418278E+03  0.00000000000E+00 0. -1.
</event>
<event>
 7    1  0.8653652E-006  0.2679833E+03  0.7561462E-02  0.1102439E+00
          1   -1    0    0  501    0  0.00000000000E+00  0.00000000000E+00  0.88089028710E+02  0.88089028710E+02  0.00000000000E+00 0.  1.
         -1   -1    0    0    0  501 -0.00000000000E+00 -0.00000000000E+00 -0.82745248800E+03  0.82745248800E+03  0.00000000000E+00 0. -1.
         23    2    1    2    0    0 -0.11048414435E+02  0.24498463822E+03 -0.42414892174E+03  0.50565516569E+03  0.12508116706E+03 0.  0.
          5    1    3    3  502    0  0.21719394104E+02  0.23946389264E+03 -0.38704901137E+03  0.45567433279E+03  0.41800000000E+01 0.  1.
         -5    1    3    3    0  502 -0.32767808540E+02  0.55207455762E+01 -0.37099910366E+02  0.49980832900E+02  0.41800000000E+01 0.  1.
        -11    1    1    2    0    0 -0.38792980066E+02 -0.14735417571E+03 -0.18534369305E+03  0.23993839408E+03  0.00000000000E+00 0.  1.
         11    1    1    2    0    0  0.49841394501E+02 -0.97630462513E+02 -0.12987084450E+03  0.16994795694E+03  0.00000000000E+00 0. -1.
</event>
<event>
 7    1  0.8653652E-006  0.5461041E+02  0.7561462E-02  0.1421950E+00
         -1   -1    0    0    0  501 -0.00000000000E+00  0.00000000000E+00  0.95947108267E+02  0.95947108267E+02  0.00000000000E+00 0.  1.
          1   -1    0    0  501    0  0.00000000000E+00 -0.00000000000E+00 -0.17007330098E+03  0.17007330098E+03  0.00000000000E+00 0. -1.
         23    2    1    2    0    0 -0.21697454824E+02 -0.29468662658E+02  0.16345054946E+02  0.13135687194E+03  0.12509310676E+03 0.  0.
          5    1    3    3  502    0  0.22273554406E+01  0.89390759244E+01 -0.49960112647E+02  0.50974046792E+02  0.41800000000E+01 0. -1.
         -5    1    3    3    0  502 -0.23924810264E+02 -0.38407738582E+02  0.66305167593E+02  0.80382825147E+02  0.41800000000E+01 0. -1.
        -11    1    1    2    0    0 -0.10927847477E+02  0.13409689863E+02 -0.96295233876E+02  0.97836648041E+02  0.00000000000E+00 0. -1.
         11    1    1    2    0    0  0.32625302300E+02  0.16058972795E+02  0.58239862195E+01  0.36826889265E+02  0.00000000000E+00 0.  1.
</event>
<event>
 7    1  0.8653652E-006  0.1296333E+03  0.7561462E-02  0.1228001E+00
         -2   -1    0    0    0  501 -0.00000000000E+00  0.00000000000E+00  0.61317826483E+02  0.61317826483E+02  0.00000000000E+00 0.  1.
          2   -1    0    0  501    0  0.00000000000E+00 -0.00000000000E+00 -0.29492445879E+03  0.29492445879E+03  0.00000000000E+00 0. -1.
         23    2    1    2    0    0 -0.82689377070E+02  0.35603468666E+02 -0.97357540087E+02  0.18229940472E+03  0.12509773095E+03 0.  0.
          5    1    3    3  502    0 -0.64724963576E+02 -0.38327790379E+02 -0.65051458146E+02  0.99536450771E+02  0.41800000000E+01 0.  1.
         -5    1    3    3    0  502 -0.17964413494E+02  0.73931259045E+02 -0.32306081941E+02  0.82762953950E+02  0.41800000000E+01 0.  1.
        -11    1    1    2    0    0  0.78791828102E+02 -0.72650383246E+01 -0.10644168311E+03  0.13263018081E+03  0.00000000000E+00 0.  1.
         11    1    1    2    0    0  0.38975489680E+01 -0.28338430342E+02 -0.29807409107E+02  0.41312699740E+02  0.00000000000E+00 0. -1.
</event>
<event>
 7    1  0.8653652E-006  0.1598655E+03  0.7561462E-02  0.1188849E+00
          2   -1    0    0  501    0  0.00000000000E+00  0.00000000000E+00  0.13204017866E+03  0.13204017866E+03  0.00000000000E+00 0. -1.
         -2   -1    0    0    0  501 -0.00000000000E+00 -0.00000000000E+00 -0.27029314289E+03  0.27029314289E+03  0.00000000000E+00 0.  1.
         23    2    1    2    0    0 -0.11523771239E+03 -0.57455912010E+02 -0.16269201925E+03  0.24227612316E+03  0.12509242400E+03 0.  0.
          5    1    3    3  502    0 -0.57745169228E+02 -0.82004995013E+02 -0.14645001358E+03  0.17755112687E+03  0.41800000000E+01 0. -1.
         -5    1    3    3    0  502 -0.57492543164E+02  0.24549083004E+02 -0.16242005674E+02  0.64724996285E+02  0.41800000000E+01 0. -1.
        -11    1    1    2    0    0  0.12618080594E+03  0.33800164859E+02  0.28434933979E+02  0.13368841536E+03  0.00000000000E+00 0. -1.
         11    1    1    2    0    0 -0.10943093543E+02  0.23655747151E+02 -0.39958789540E+01  0.26368783024E+02  0.00000000000E+00 0.  1.
</event>
<event>
 6    1  0.8653652E-006  0.1137969E+03  0.7561462E-02  0.1253696E+00
         -1   -1    0    0    0  501 -0.00000000000E+00  0.00000000000E+00  0.11305216756E+03  0.11305216756E+03  0.00000000000E+00 0.  1.
          1   -1    0    0  501    0  0.00000000000E+00 -0.00000000000E+00 -0.15297648494E+03  0.15297648494E+03  0.00000000000E+00 0. -1.
          5    1    1    2  502    0 -0.44313627782E+02 -0.62568626065E+02  0.11469779053E+02  0.77637354452E+02  0.41800000000E+01 0. -1.
         -5    1    1    2    0  502  0.44114814333E+02  0.34543375673E+02  0.29812064643E+02  0.63604978145E+02  0.41800000000E+01 0.  1.
        -11    1    1    2    0    0  0.34557575664E+02 -0.16571347767E+02 -0.29761389615E+02  0.48523972574E+02  0.00000000000E+00 0.  1.
         11    1    1    2    0    0 -0.34358762215E+02  0.44596598159E+02 -0.51444771465E+02  0.76262347324E+02  0.00000000000E+00 0. -1.
</event>
<event>
 7    1  0.8653652E-006  0.1080874E+03  0.7561462E-02  0.1264153E+00
         -1   -1    0    0    0  501 -0.00000000000E+00  0.00000000000E+00  0.56212771041E+02  0.56212771041E+02  0.00000000000E+00 0.  1.
          1   -1    0    0  501    0  0.00000000000E+00 -0.00000000000E+00 -0.26253379894E+03  0.26253379894E+03  0.00000000000E+00 0. -1.
         23    2    1    2    0    0 -0.10858572420E+02 -0.18647953762E+01 -0.47556975999E+02  0.13427854609E+03  0.12509067078E+03 0.  0.
          5    1    3    3  502    0  0.84144679583E+01 -0.60205792305E+02 -0.89360553922E+01  0.61586249959E+02  0.41800000000E+01 0. -1.
         -5    1    3    3    0  502 -0.19273040378E+02  0.58340996929E+02 -0.38620920606E+02  0.72692296129E+02  0.41800000000E+01 0. -1.
        -11    1    1    2    0    0 -0.40691280141E+02  0.88291641223E+01 -0.77599341445E+02  0.88064704686E+02  0.00000000000E+00 0. -1.
         11    1    1    2    0    0  0.51549852561E+02 -0.69643687461E+01 -0.81164710459E+02  0.96403319211E+02  0.00000000000E+00 0.  1.
</event>
<event>
 7    1  0.8653652E-006  0.1421405E+03  0.7561462E-02  0.1210477E+00
          1   -1    0    0  501    0  0.00000000000E+00  0.00000000000E+00  0.16300384300E+03  0.16300384300E+03  0.00000000000E+00 0. -1.
         -1   -1    0    0    0  501 -0.00000000000E+00 -0.00000000000E+00 -0.15130186055E+03  0.15130186055E+03  0.00000000000E+00 0.  1.
         23    2    1    2    0    0  0.53596398757E+02  0.98202534007E+02  0.82196500378E+01  0.16802074273E+03  0.12508835155E+03 0.  0.
          5    1    3    3  502    0 -0.20598481626E+02  0.42286950661E+02 -0.41232835049E+02  0.62690531403E+02  0.41800000000E+01 0. -1.
         -5    1    3    3    0  502  0.74194880383E+02  0.55915583346E+02  0.49452485087E+02  0.10533021132E+03  0.41800000000E+01 0. -1.
        -11    1    1    2    0    0  0.11396353866E+02 -0.73739314552E+02 -0.10785119222E+02  0.75390199553E+02  0.00000000000E+00 0.  1.
         11    1    1    2    0    0 -0.64992752623E+02 -0.24463219455E+02  0.14267451634E+02  0.70894761272E+02  0.00000000000E+00 0. -1.
</event>
<event>
 7    1  0.8653652E-006  0.1029962E+03  0.7561462E-02  0.1274119E+00
         -1   -1    0    0    0  501 -0.00000000000E+00  0.00000000000E+00  0.33043299936E+02  0.33043299936E+02  0.00000000000E+00 0.  1.
          1   -1    0    0  501    0  0.00000000000E+00 -0.00000000000E+00 -0.37465673437E+03  0.37465673437E+03  0.00000000000E+00 0. -1.
         23    2    1    2    0    0 -0.27195927843E+02 -0.57080851478E+01 -0.19603662839E+03  0.23420217955E+03  0.12509236791E+03 0.  0.
          5    1    3    3  502    0  0.18062668926E+02 -0.50199168001E+02 -0.13833876006E+03  0.14832835674E+03  0.41800000000E+01 0.  1.
         -5    1    3    3    0  502 -0.45258596769E+02  0.44491082853E+02 -0.57697868322E+02  0.85873822809E+02  0.41800000000E+01 0.  1.
        -11    1    1    2    0    0 -0.18715659183E+02 -0.26752201990E+02 -0.27386229208E+02  0.42614102833E+02  0.00000000000E+00 0.  1.
         11    1    1    2    0    0  0.45911587026E+02  0.32460287138E+02 -0.11819057684E+03  0.13088375192E+03  0.00000000000E+00 0. -1.
</event>
<event>
 7    1  0.8653652E-006  0.1372452E+03  0.7561462E-02  0.1217085E+00
          2   -1    0    0  501    0  0.00000000000E+00  0.00000000000E+00  0.37069589093E+03  0.37069589093E+03  0.00000000000E+00 0. -1.
         -2   -1    0    0    0  501 -0.00000000000E+00 -0.00000000000E+00 -0.85221557069E+02  0.85221557069E+02  0.00000000000E+00 0.  1.
         23    2    1    2    0    0 -0.98115238675E+02  0.55529634038E+02  0.44250115275E+02  0.17411381703E+03  0.12508960093E+03 0.  0.
          5    1    3    3  502    0 -0.72249995488E+02 -0.15127175056E+02  0.62232428182E+02  0.96639747468E+02  0.41800000000E+01 0.  1.
         -5    1    3    3    0  502 -0.25865243187E+02  0.70656809095E+02 -0.17982312907E+02  0.77474069559E+02  0.41800000000E+01 0.  1.
        -11    1    1    2    0    0  0.20587226743E+02 -0.41617059204E+02  0.27352333886E+02  0.53888437450E+02  0.00000000000E+00 0.  1.
         11    1    1    2    0    0  0.77528011932E+02 -0.13912574834E+02  0.21387188470E+03  0.22791519352E+03  0.00000000000E+00 0. -1.
</event>
<event>
 7    1  0.8653652E-006  0.1283514E+03  0.7561462E-02  0.1229923E+00
          1   -1    0    0  501    0  0.00000000000E+00  0.00000000000E+00  0.50395330955E+03  0.50395330955E+03  0.00000000000E+00 0. -1.
         -1   -1    0    0    0  501 -0.00000000000E+00 -0.00000000000E+00 -0.40756809278E+02  0.40756809278E+02  0.00000000000E+00 0.  1.
         23    2    1    2    0    0 -0.16082607095E+02 -0.77721980896E+02  0.16410267664E+03  0.22108130729E+03  0.12509156402E+03 0.  0.
          5    1    3    3  502    0 -0.49378162138E+02 -0.89327450561E+02  0.79867379337E+02  0.12966829606E+03  0.41800000000E+01 0.  1.
         -5    1    3    3    0  502  0.33295555043E+02  0.11605469665E+02  0.84235297303E+02  0.91413011238E+02  0.41800000000E+01 0.  1.
        -11    1    1    2    0    0 -0.22839283527E+02 -0.85585805470E+01  0.10351282214E+03  0.10634748008E+03  0.00000000000E+00 0. -1.
         11    1    1    2    0    0  0.38921890622E+02  0.86280561443E+02  0.19558100150E+03  0.21728133145E+03  0.00000000000E+00 0.  1.
</event>
<event>
 7    1  0.8653652E-006  0.9153273E+02  0.7561462E-02  0.1299182E+00
          2   -1    0    0  501    0  0.00000000000E+00  0.00000000000E+00  0.32224155667E+03  0.32224155667E+03  0.00000000000E+00 0. -1.
         -2   -1    0    0    0  501 -0.00000000000E+00 -0.00000000000E+00 -0.48343974551E+02  0.48343974551E+02  0.00000000000E+00 0.  1.
         23    2    1    2    0    0 -0.62846097200E+02  0.21392625315E+01  0.16152079473E+03  0.21375159415E+03  0.12508624422E+03 0.  0.
          5    1    3    3  502    0  0.17506485067E+02  0.13922165075E+02  0.12057893601E+03  0.12270719584E+03  0.41800000000E+01 0.  1.
         -5    1    3    3    0  502 -0.80352582267E+02 -0.11782902544E+02  0.40941858719E+02  0.91044398316E+02  0.41800000000E+01 0.  1.
        -11    1    1    2    0    0  0.29254402409E+02  0.22852865317E+02  0.22655254012E+00  0.37123103851E+02  0.00000000000E+00 0.  1.
         11    1    1    2    0    0  0.33591694791E+02 -0.24992127848E+02  0.11215023484E+03  0.11971083321E+03  0.00000000000E+00 0. -1.
</event>
<event>
 7    1  0.8653652E-006  0.9963446E+02  0.7561462E-02  0.1281067E+00
          1   -1    0    0  501    0  0.00000000000E+00  0.00000000000E+00  0.41276948446E+02  0.41276948446E+02  0.00000000000E+00 0. -1.
         -1   -1    0    0    0  501 -0.00000000000E+00 -0.00000000000E+00 -0.34570848778E+03  0.34570848778E+03  0.00000000000E+00 0.  1.
         23    2    1    2    0    0 -0.47698422165E+02 -0.10227159188E+02 -0.22513624398E+03  0.25599699642E+03  0.11166198798E+03 0.  0.
          5    1    3    3  502    0 -0.52583908324E+02 -0.40672028683E+02 -0.65721712984E+02  0.93574020376E+02  0.41800000000E+01 0. -1.
         -5    1    3    3    0  502  0.48854861590E+01  0.30444869495E+02 -0.15941453100E+03  0.16242297604E+03  0.41800000000E+01 0.  1.
        -11    1    1    2    0    0  0.58319459842E+02  0.39477467445E+02 -0.67963089187E+02  0.97870380218E+02  0.00000000000E+00 0.  1.
         11    1    1    2    0    0 -0.10621037676E+02 -0.29250308257E+02 -0.11332206168E+02  0.33118059591E+02  0.00000000000E+00 0. -1.
</event>
<event>
 7    1  0.8653652E-006  0.1010026E+03  0.7561462E-02  0.1278202E+00
          2   -1    0    0  501    0  0.00000000000E+00  0.00000000000E+00  0.63303462333E+03  0.63303462333E+03  0.00000000000E+00 0. -1.
         -2   -1    0    0    0  501 -0.00000000000E+00 -0.00000000000E+00 -0.25988011975E+02  0.25988011975E+02  0.00000000000E+00 0.  1.
         23    2    1    2    0    0  0.31647308167E+02 -0.46956581410E+02  0.21178869183E+03  0.25240260858E+03  0.12508458810E+03 0.  0.
          5    1    3    3  502    0  0.22702502609E+02 -0.74940699388E+02  0.62731502820E+02  0.10042024644E+03  0.41800000000E+01 0.  1.
         -5    1    3    3    0  502  0.89448055574E+01  0.27984117978E+02  0.14905718901E+03  0.15198236214E+03  0.41800000000E+01 0.  1.
        -11    1    1    2    0    0 -0.51240009802E+02  0.10174972806E+02  0.18304155699E+03  0.19035041440E+03  0.00000000000E+00 0. -1.
         11    1    1    2    0    0  0.19592701635E+02  0.36781608604E+02  0.21221636254E+03  0.21626961233E+03  0.00000000000E+00 0.  1.
</event>
<event>
 7    1  0.8653652E-006  0.1760476E+03  0.7561462E-02  0.1171684E+00
         -2   -1    0    0    0  501 -0.00000000000E+00  0.00000000000E+00  0.45794450505E+02  0.45794450505E+02  0.00000000000E+00 0.  1.
          2   -1    0    0  501    0  0.00000000000E+00 -0.00000000000E+00 -0.10148229904E+04  0.10148229904E+04  0.00000000000E+00 0. -1.
         23    2    1    2    0    0 -0.17138649053E+03  0.73134102983E+01 -0.32712933699E+03  0.38998465945E+03  0.12509043281E+03 0.  0.
          5    1    3    3  502    0 -0.15363258625E+03  0.24333578423E+02 -0.33002644145E+03  0.36486986591E+03  0.41800000000E+01 0. -1.
         -5    1    3    3    0  502 -0.17753904279E+02 -0.17020168125E+02  0.28971044593E+01  0.25114793537E+02  0.41800000000E+01 0. -1.
        -11    1    1    2    0    0  0.98945432747E+02 -0.38343247544E+01 -0.51533507746E+03  0.52476198677E+03  0.00000000000E+00 0. -1.
         11    1    1    2    0    0  0.72441057779E+02 -0.34790855439E+01 -0.12656412542E+03  0.14587079465E+03  0.00000000000E+00 0.  1.
</event>
<event>
 7    1  0.8653652E-006  0.1183533E+03  0.7561462E-02  0.1245839E+00
         -1   -1    0    0    0  501 -0.00000000000E+00  0.00000000000E+00  0.89401213319E+03  0.89401213319E+03  0.00000000000E+00 0.  1.
          1   -1    0    0  501    0  0.00000000000E+00 -0.00000000000E+00 -0.19347619366E+02  0.19347619366E+02  0.00000000000E+00 0. -1.
         23    2    1    2    0    0 -0.49572362783E+02  0.30905632704E+02  0.63705466936E+03  0.65184262607E+03  0.12509028788E+03 0.  0.
          5    1    3    3  502    0 -0.55612838015E+02  0.70940268683E+02  0.33049607925E+03  0.34259369562E+03  0.41800000000E+01 0.  1.
         -5    1    3    3    0  502  0.60404752326E+01 -0.40034635979E+02  0.30655859011E+03  0.30924893045E+03  0.41800000000E+01 0.  1.
        -11    1    1    2    0    0 -0.32721958742E+01  0.27100888378E+02  0.93811136723E+02  0.97702071574E+02  0.00000000000E+00 0.  1.
         11    1    1    2    0    0  0.52844558657E+02 -0.58006521083E+02  0.14379870774E+03  0.16381505491E+03  0.00000000000E+00 0. -1.
</event>
<event>
 7    1  0.8653652E-006  0.9476677E+02  0.7561462E-02  0.1291702E+00
          2   -1    0    0  501    0  0.00000000000E+00  0.00000000000E+00  0.27788688956E+03  0.27788688956E+03  0.00000000000E+00 0. -1.
         -2   -1    0    0    0  501 -0.00000000000E+00 -0.00000000000E+00 -0.47728151342E+02  0.47728151342E+02  0.00000000000E+00 0.  1.
         23    2    1    2    0    0  0.86697729574E+01 -0.21354741093E+02  0.86028461862E+02  0.15350806374E+03  0.12503055407E+03 0.  0.
          5    1    3    3  502    0  0.15780955675E+01  0.38550906762E+02  0.84538711129E+02  0.93021120597E+02  0.41800000000E+01 0.  1.
         -5    1    3    3    0  502  0.70916773898E+01 -0.59905647856E+02  0.14897507335E+01  0.60486943140E+02  0.41800000000E+01 0.  1.
        -11    1    1    2    0    0 -0.24656353087E+02  0.50959266450E+02  0.11244074131E+03  0.12588765981E+03  0.00000000000E+00 0. -1.
         11    1    1    2    0    0  0.15986580129E+02 -0.29604525357E+02  0.31689535041E+02  0.46219317357E+02  0.00000000000E+00 0.  1.
</event>
<event>
 7    1  0.8653652E-006  0.1422880E+03  0.7561462E-02  0.1210283E+00
          1   -1    0    0  501    0  0.00000000000E+00  0.00000000000E+00  0.70416869347E+02  0.70416869347E+02  0.00000000000E+00 0. -1.
         -1   -1    0    0    0  501 -0.00000000000E+00 -0.00000000000E+00 -0.37403498877E+03  0.37403498877E+03  0.00000000000E+00 0.  1.
         23    2    1    2    0    0 -0.90624022342E+02  0.18591233348E+02 -0.26139504143E+03  0.30417563149E+03  0.12504838952E+03 0.  0.
          5    1    3    3  502    0 -0.68883105414E+02  0.70645100803E+02 -0.15822863999E+03  0.18651913412E+03  0.41800000000E+01 0. -1.
         -5    1    3    3    0  502 -0.21740916928E+02 -0.52053867455E+02 -0.10316640145E+03  0.11765649737E+03  0.41800000000E+01 0. -1.
        -11    1    1    2    0    0 -0.70233007286E+01  0.22306479053E+02 -0.22765349391E+02  0.32636894671E+02  0.00000000000E+00 0.  1.
         11    1    1    2    0    0  0.97647323071E+02 -0.40897712400E+02 -0.19457728596E+02  0.10763933196E+03  0.00000000000E+00 0. -1.
</event>
<event>
 7    1  0.8653652E-006  0.8858036E+02  0.7561462E-02  0.1306326E+00
          2   -1    0    0  501    0  0.00000000000E+00  0.00000000000E+00  0.14239359207E+03  0.14239359207E+03  0.00000000000E+00 0. -1.
         -2   -1    0    0    0  501 -0.00000000000E+00 -0.00000000000E+00 -0.10989347858E+03  0.10989347858E+03  0.00000000000E+00 0.  1.
         23    2    1    2    0    0  0.31615952712E+02  0.56518130017E+02  0.26391910821E+01  0.14089079548E+03  0.12509749571E+03 0.  0.
          5    1    3    3  502    0 -0.85069695699E+01  0.43434257737E+02 -0.54119887376E+02  0.70038117379E+02  0.41800000000E+01 0.  1.
         -5    1    3    3    0  502  0.40122922282E+02  0.13083872281E+02  0.56759078458E+02  0.70852678098E+02  0.41800000000E+01 0.  1.
        -11    1    1    2    0    0  0.84981148714E+01 -0.48688299898E+02 -0.14075089585E+02  0.51389460497E+02  0.00000000000E+00 0.  1.
         11    1    1    2    0    0 -0.40114067584E+02 -0.78298301194E+01  0.43936011988E+02  0.60006814673E+02  0.00000000000E+00 0. -1.
</event>
<event>
 7    1  0.8653652E-006  0.1250178E+03  0.7561462E-02  0.1235041E+00
          4   -1    0    0  501    0  0.00000000000E+00  0.00000000000E+00  0.32952535872E+02  0.32952535872E+02  0.00000000000E+00 0.  1.
         -4   -1    0    0    0  501 -0.00000000000E+00 -0.00000000000E+00 -0.57938018390E+03  0.57938018390E+03  0.00000000000E+00 0. -1.
         23    2    1    2    0    0  0.69014355048E+02  0.97599885382E+01 -0.39954798919E+03  0.42443438307E+03  0.12509081217E+03 0.  0.
          5    1    3    3  502    0 -0.26414517207E+02 -0.29523104992E+02 -0.11772854008E+03  0.12428524448E+03  0.41800000000E+01 0. -1.
         -5    1    3    3    0  502  0.95428872255E+02  0.39283093530E+02 -0.28181944911E+03  0.30014913859E+03  0.41800000000E+01 0. -1.
        -11    1    1    2    0    0 -0.87734996629E+02 -0.73347723951E+01 -0.14403026056E+03  0.16880741831E+03  0.00000000000E+00 0. -1.
         11    1    1    2    0    0  0.18720641581E+02 -0.24252161431E+01 -0.28493982827E+01  0.19090918393E+02  0.00000000000E+00 0.  1.
</event>
<event>
 7    1  0.8653652E-006  0.1192373E+03  0.7561462E-02  0.1244361E+00
          1   -1    0    0  501    0  0.00000000000E+00  0.00000000000E+00  0.74932791475E+03  0.74932791475E+03  0.00000000000E+00 0. -1.
         -1   -1    0    0    0  501 -0.00000000000E+00 -0.00000000000E+00 -0.27726900900E+02  0.27726900900E+02  0.00000000000E+00 0.  1.
         23    2    1    2    0    0  0.71827458053E+02 -0.66802948938E+02  0.39924362551E+03  0.42972483874E+03  0.12508455863E+03 0.  0.
          5    1    3    3  502    0 -0.11055941025E+02  0.78999714764E+00  0.22446433010E+03  0.22477670211E+03  0.41800000000E+01 0.  1.
         -5    1    3    3    0  502  0.82883399078E+02 -0.67592946086E+02  0.17477929541E+03  0.20494813663E+03  0.41800000000E+01 0.  1.
        -11    1    1    2    0    0 -0.22794576965E+02  0.66779978223E+02  0.25114340286E+03  0.26086810274E+03  0.00000000000E+00 0.  1.
         11    1    1    2    0    0 -0.49032881088E+02  0.22970714983E-01  0.71213985491E+02  0.86461874170E+02  0.00000000000E+00 0. -1.
</event>
<event>
 6    1  0.8653652E-006  0.1079122E+03  0.7561462E-02  0.1264486E+00
         -2   -1    0    0    0  501 -0.00000000000E+00  0.00000000000E+00  0.15633595849E+02  0.15633595849E+02  0.00000000000E+00 0.  1.
          2   -1    0    0  501    0  0.00000000000E+00 -0.00000000000E+00 -0.87069666978E+03  0.87069666978E+03  0.00000000000E+00 0. -1.
          5    1    1    2  502    0  0.71533297162E+02  0.67001642261E+02 -0.24127869888E+03  0.26045943178E+03  0.41800000000E+01 0. -1.
         -5    1    1    2    0  502 -0.65803044075E+02 -0.19257014161E+02 -0.43246469960E+03  0.43788590067E+03  0.41800000000E+01 0.  1.
        -11    1    1    2    0    0  0.26433651607E+01 -0.15256724179E+02 -0.71379166459E+02  0.73039307338E+02  0.00000000000E+00 0. -1.
         11    1    1    2    0    0 -0.83736182472E+01 -0.32487903921E+02 -0.10994050899E+03  0.11494562584E+03  0.00000000000E+00 0.  1.
</event>
<event>
 7    1  0.8653652E-006  0.1305566E+03  0.7561462E-02  0.1226632E+00
          1   -1    0    0  501    0  0.00000000000E+00  0.00000000000E+00  0.15557925417E+03  0.15557925417E+03  0.00000000000E+00 0. -1.
         -1   -1    0    0    0  501 -0.00000000000E+00 -0.00000000000E+00 -0.12479056176E+03  0.12479056176E+03  0.00000000000E+00 0.  1.
         23    2    1    2    0    0  0.71887183300E+02  0.28094245389E+02 -0.26582577519E+02  0.14936849011E+03  0.12508900296E+03 0.  0.
          5    1    3    3  502    0  0.41064354105E+02 -0.48530248457E+02 -0.50252765185E+01  0.63907683399E+02  0.41800000000E+01 0.  1.
         -5    1    3    3    0  502  0.30822829195E+02  0.76624493845E+02 -0.21557301001E+02  0.85460806707E+02  0.41800000000E+01 0.  1.
        -11    1    1    2    0    0  0.19171667981E+02  0.75511651744E+00 -0.72748095381E+00  0.19200319859E+02  0.00000000000E+00 0.  1.
         11    1    1    2    0    0 -0.91058851281E+02 -0.28849361906E+02  0.58098750882E+02  0.11180100596E+03  0.00000000000E+00 0. -1.
</event>
<event>
 7    1  0.8653652E-006  0.8622256E+02  0.7561462E-02  0.1312266E+00
         -2   -1    0    0    0  501 -0.00000000000E+00  0.00000000000E+00  0.49038331874E+02  0.49038331874E+02  0.00000000000E+00 0.  1.
          2   -1    0    0  501    0  0.00000000000E+00 -0.00000000000E+00 -0.42290766211E+03  0.42290766211E+03  0.00000000000E+00 0. -1.
         23    2    1    2    0    0  0.49746040790E+02 -0.11033663163E+02 -0.33035763799E+03  0.35691054424E+03  0.12511018068E+03 0.  0.
          5    1    3    3  502    0  0.77869930235E+02  0.18822823588E+02 -0.28285580564E+03  0.29401174110E+03  0.41800000000E+01 0.  1.
         -5    1    3    3    0  502 -0.28123889446E+02 -0.29856486751E+02 -0.47501832350E+02  0.62898803131E+02  0.41800000000E+01 0.  1.
        -11    1    1    2    0    0 -0.39349367188E+02  0.78860889913E+01 -0.73168557449E+02  0.83451787859E+02  0.00000000000E+00 0. -1.
         11    1    1    2    0    0 -0.10396673602E+02  0.31475741720E+01  0.29656865200E+02  0.31583661894E+02  0.00000000000E+00 0.  1.
</event>
<event>
 7    1  0.8653652E-006  0.9368261E+02  0.7561462E-02  0.1294171E+00
         -1   -1    0    0    0  501 -0.00000000000E+00  0.00000000000E+00  0.14917877625E+03  0.14917877625E+03  0.00000000000E+00 0.  1.
          1   -1    0    0  501    0  0.00000000000E+00 -0.00000000000E+00 -0.77264605763E+02  0.77264605763E+02  0.00000000000E+00 0. -1.
         23    2    1    2    0    0  0.24907794802E+02  0.24607561917E+01  0.66624382765E+02  0.13257452809E+03  0.11185143520E+03 0.  0.
          5    1    3    3  502    0 -0.35369183099E+02 -0.19579253903E+02  0.95145137471E+00  0.40653461799E+02  0.41800000000E+01 0. -1.
         -5    1    3    3    0  502  0.60276977901E+02  0.22040010095E+02  0.65672931390E+02  0.91921066286E+02  0.41800000000E+01 0.  1.
        -11    1    1    2    0    0 -0.52840055139E+02 -0.92933887299E+01 -0.18288387105E+02  0.56682480575E+02  0.00000000000E+00 0. -1.
         11    1    1    2    0    0  0.27932260337E+02  0.68326325382E+01  0.23578174828E+02  0.37186373353E+02  0.00000000000E+00 0.  1.
</event>
<event>
 7    1  0.8653652E-006  0.9866776E+02  0.7561462E-02  0.1283123E+00
          1   -1    0    0  501    0  0.00000000000E+00  0.00000000000E+00  0.29510449832E+03  0.29510449832E+03  0.00000000000E+00 0. -1.
         -1   -1    0    0    0  501 -0.00000000000E+00 -0.00000000000E+00 -0.49145798439E+02  0.49145798439E+02  0.00000000000E+00 0.  1.
         23    2    1    2    0    0 -0.16044432632E+02  0.49818262294E+02  0.15265466720E+03  0.20418411204E+03  0.12509364938E+03 0.  0.
          5    1    3    3  502    0 -0.43128338801E+02  0.81646802994E+02  0.11688249280E+03  0.14901423949E+03  0.41800000000E+01 0. -1.
         -5    1    3    3    0  502  0.27083906169E+02 -0.31828540700E+02  0.35772174402E+02  0.55169872557E+02  0.41800000000E+01 0. -1.
        -11    1    1    2    0    0  0.27091554890E+02 -0.31891392011E+02 -0.25535819801E+01  0.41922953279E+02  0.00000000000E+00 0.  1.
         11    1    1    2    0    0 -0.11047122258E+02 -0.17926870283E+02  0.95857614662E+02  0.98143231438E+02  0.00000000000E+00 0. -1.
</event>
<event>
 7    1  0.8653652E-006  0.8588295E+02  0.7561462E-02  0.1313140E+00
         -2   -1    0    0    0  501 -0.00000000000E+00  0.00000000000E+00  0.12368462765E+03  0.12368462765E+03  0.00000000000E+00 0.  1.
          2   -1    0    0  501    0  0.00000000000E+00 -0.00000000000E+00 -0.10735808251E+03  0.10735808251E+03  0.00000000000E+00 0. -1.
         23    2    1    2    0    0  0.20085720669E+02  0.29699904742E+02  0.31867900640E+02  0.13400331175E+03  0.12512315514E+03 0.  0.
          5    1    3    3  502    0 -0.47093508731E+02 -0.11500384850E+02  0.25223473900E+02  0.54806509211E+02  0.41800000000E+01 0.  1.
         -5    1    3    3    0  502  0.67179229400E+02  0.41200289592E+02  0.66444267407E+01  0.79196802536E+02  0.41800000000E+01 0.  1.
        -11    1    1    2    0    0 -0.14598307201E+02 -0.63439891188E+00  0.35308350021E+02  0.38212466766E+02  0.00000000000E+00 0.  1.
         11    1    1    2    0    0 -0.54874134674E+01 -0.29065505830E+02 -0.50849705523E+02  0.58826931651E+02  0.00000000000E+00 0. -1.
</event>
<event>
 7    1  0.8653652E-006  0.1141033E+03  0.7561462E-02  0.1253154E+00
          1   -1    0    0  501    0  0.00000000000E+00  0.00000000000E+00  0.20963295648E+03  0.20963295648E+03  0.00000000000E+00 0. -1.
         -1   -1    0    0    0  501 -0.00000000000E+00 -0.00000000000E+00 -0.12046206437E+03  0.12046206437E+03  0.00000000000E+00 0.  1.
         23    2    1    2    0    0 -0.21995829723E+02 -0.59166673481E+02 -0.32757821245E+02  0.14388742646E+03  0.12508399124E+03 0.  0.
          5    1    3    3  502    0 -0.63106678896E+02  0.35232243067E+00 -0.33196376248E+02  0.71428627653E+02  0.41800000000E+01 0. -1.
         -5    1    3    3    0  502  0.41110849173E+02 -0.59518995911E+02  0.43855500315E+00  0.72458798807E+02  0.41800000000E+01 0. -1.
        -11    1    1    2    0    0  0.25648693398E+02 -0.67207767967E+01 -0.17625446170E+02  0.31838352132E+02  0.00000000000E+00 0.  1.
         11    1    1    2    0    0 -0.36528636748E+01  0.65887450277E+02  0.13955415952E+03  0.15436924226E+03  0.00000000000E+00 0. -1.
</event>
<event>
 7    1  0.8653652E-006  0.9379778E+02  0.7561462E-02  0.1293907E+00
         -2   -1    0    0    0  501 -0.00000000000E+00  0.00000000000E+00  0.91510260292E+02  0.91510260292E+02  0.00000000000E+00 0.  1.
          2   -1    0    0  501    0  0.00000000000E+00 -0.00000000000E+00 -0.20372739080E+03  0.20372739080E+03  0.00000000000E+00 0. -1.
         23    2    1    2    0    0  0.68409931954E+02 -0.36440995554E+02 -0.31216587965E+02  0.15043190886E+03  0.12508964343E+03 0.  0.
          5    1    3    3  502    0  0.81406235994E+02 -0.20577116869E+02 -0.67988038334E+02  0.10812140747E+03  0.41800000000E+01 0. -1.
         -5    1    3    3    0  502 -0.12996304041E+02 -0.15863878685E+02  0.36771450369E+02  0.42310501390E+02  0.41800000000E+01 0. -1.
        -11    1    1    2    0    0 -0.27545188425E+02  0.30837586735E+02  0.12011859679E+02  0.43057855659E+02  0.00000000000E+00 0.  1.
         11    1    1    2    0    0 -0.40864743528E+02  0.56034088185E+01 -0.93012402218E+02  0.10174788656E+03  0.00000000000E+00 0. -1.
</event>
<event>
 7    1  0.8653652E-006  0.1660965E+03  0.7561462E-02  0.1181981E+00
          2   -1    0    0  501    0  0.00000000000E+00  0.00000000000E+00  0.42699860521E+02  0.42699860521E+02  0.00000000000E+00 0. -1.
         -2   -1    0    0    0  501 -0.00000000000E+00 -0.00000000000E+00 -0.71833541322E+03  0.71833541322E+03  0.00000000000E+00 0.  1.
         23    2    1    2    0    0  0.12467584342E+03 -0.44667883303E+02 -0.43763841719E+03  0.47364844509E+03  0.12359684303E+03 0.  0.
          5    1    3    3  502    0  0.12147569942E+03  0.13602473255E+02 -0.30924228538E+03  0.33255020117E+03  0.41800000000E+01 0.  1.
         -5    1    3    3    0  502  0.32001439953E+01 -0.58270356558E+02 -0.12839613180E+03  0.14109824392E+03  0.41800000000E+01 0.  1.
        -11    1    1    2    0    0 -0.92661438188E+02  0.65240269297E+02 -0.21468544185E+03  0.24275970384E+03  0.00000000000E+00 0.  1.
         11    1    1    2    0    0 -0.32014405232E+02 -0.20572385994E+02 -0.23311693663E+02  0.44627124815E+02  0.00000000000E+00 0. -1.
</event>
<event>
 7    1  0.8653652E-006  0.1050719E+03  0.7561462E-02  0.1269978E+00
         -2   -1    0    0    0  501 -0.00000000000E+00  0.00000000000E+00  0.66392162675E+02  0.66392162675E+02  0.00000000000E+00 0.  1.
          2   -1    0    0  501    0  0.00000000000E+00 -0.00000000000E+00 -0.31413901350E+03  0.31413901350E+03  0.00000000000E+00 0. -1.
         23    2    1    2    0    0 -0.73816159938E+02 -0.12848977192E+02 -0.53646358726E+02  0.15536884422E+03  0.12509046433E+03 0.  0.
          5    1    3    3  502    0  0.19364438527E+02  0.19732019097E+02 -0.49051567449E+02  0.56461161220E+02  0.41800000000E+01 0.  1.
         -5    1    3    3    0  502 -0.93180598465E+02 -0.32580996289E+02 -0.45947912765E+01  0.98907683000E+02  0.41800000000E+01 0.  1.
        -11    1    1    2    0    0  0.29559486310E+02 -0.12820292061E+02 -0.16107744314E+03  0.16426827389E+03  0.00000000000E+00 0. -1.
         11    1    1    2    0    0  0.44256673628E+02  0.25669269253E+02 -0.33023048962E+02  0.60894058063E+02  0.00000000000E+00 0.  1.
</event>
<event>
 7    1  0.8653652E-006  0.1345953E+03  0.7561462E-02  0.1220792E+00
          1   -1    0    0  501    0  0.00000000000E+00  0.00000000000E+00  0.75002001259E+03  0.75002001259E+03  0.00000000000E+00 0. -1.
         -1   -1    0    0    0  501 -0.00000000000E+00 -0.00000000000E+00 -0.40152509912E+02  0.40152509912E+02  0.00000000000E+00 0.  1.
         23    2    1    2    0    0  0.52303233136E+00 -0.12660523337E+03  0.48178300930E+03  0.51359740072E+03  0.12505304194E+03 0.  0.
          5    1    3    3  502    0  0.39817506344E+00 -0.18721185131E+02 -0.68342358039E+00  0.19198457851E+02  0.41800000000E+01 0.  1.
         -5    1    3    3    0  502  0.12485726791E+00 -0.10788404824E+03  0.48246643288E+03  0.49439894287E+03  0.41800000000E+01 0.  1.
        -11    1    1    2    0    0  0.29536457011E+02  0.35933406430E+02  0.13662545271E+03  0.14432645744E+03  0.00000000000E+00 0. -1.
         11    1    1    2    0    0 -0.30059489342E+02  0.90671826937E+02  0.91459040675E+02  0.13224866434E+03  0.00000000000E+00 0.  1.
</event>
<event>
 7    1  0.8653652E-006  0.1252997E+03  0.7561462E-02  0.1234602E+00
         -1   -1    0    0    0  501 -0.00000000000E+00  0.00000000000E+00  0.43687252714E+02  0.43687252714E+02  0.00000000000E+00 0.  1.
          1   -1    0    0  501    0  0.00000000000E+00 -0.00000000000E+00 -0.52048604580E+03  0.52048604580E+03  0.00000000000E+00 0. -1.
         23    2    1    2    0    0  0.36212210746E+02 -0.68577943259E+02 -0.12333614600E+03  0.19202495513E+03  0.12509004746E+03 0.  0.
          5    1    3    3  502    0  0.13783209865E+02  0.36673728879E+02 -0.35918577752E+02  0.53315625212E+02  0.41800000000E+01 0. -1.
         -5    1    3    3    0  502  0.22429000881E+02 -0.10525167214E+03 -0.87417568252E+02  0.13870932992E+03  0.41800000000E+01 0. -1.
        -11    1    1    2    0    0  0.21820558995E+01  0.64895451102E+02 -0.29533000444E+03  0.30238384954E+03  0.00000000000E+00 0. -1.
         11    1    1    2    0    0 -0.38394266646E+02  0.36824921573E+01 -0.58132642646E+02  0.69764493840E+02  0.00000000000E+00 0.  1.
</event>
<event>
 6    1  0.8653652E-006  0.1623564E+03  0.7561462E-02  0.1186062E+00
         -2   -1    0    0    0  501 -0.00000000000E+00  0.00000000000E+00  0.10144408976E+03  0.10144408976E+03  0.00000000000E+00 0.  1.
          2   -1    0    0  501    0  0.00000000000E+00 -0.00000000000E+00 -0.37303212195E+03  0.37303212195E+03  0.00000000000E+00 0. -1.
          5    1    1    2  502    0 -0.15060717141E+02 -0.72525828956E+02 -0.90869171717E+02  0.11730941921E+03  0.41800000000E+01 0. -1.
         -5    1    1    2    0  502 -0.86566316714E+02  0.78505260715E+02  0.15733391416E+02  0.11799074182E+03  0.41800000000E+01 0.  1.
        -11    1    1    2    0    0 -0.27072465056E+01 -0.27015649535E+02 -0.22576708364E+02  0.35311220086E+02  0.00000000000E+00 0.  1.
         11    1    1    2    0    0  0.10433428036E+03  0.21036217775E+02 -0.17387554352E+03  0.20386483059E+03  0.00000000000E+00 0. -1.
</event>
<event>
 6    1  0.8653652E-006  0.1067707E+03  0.7561462E-02  0.1266670E+00
         -1   -1    0    0    0  501 -0.00000000000E+00  0.00000000000E+00  0.10131600177E+03  0.10131600177E+03  0.00000000000E+00 0.  1.
          1   -1    0    0  501    0  0.00000000000E+00 -0.00000000000E+00 -0.40955525890E+03  0.40955525890E+03  0.00000000000E+00 0. -1.
          5    1    1    2  502    0  0.80426745296E+02  0.11910344191E+02 -0.89821665473E+02  0.12122591161E+03  0.41800000000E+01 0. -1.
         -5    1    1    2    0  502 -0.23709597062E+02 -0.11815377350E+02  0.73271515903E+02  0.78025223983E+02  0.41800000000E+01 0.  1.
        -11    1    1    2    0    0  0.22462354821E+02 -0.11633160068E+02 -0.38318836241E+02  0.45915367886E+02  0.00000000000E+00 0.  1.
         11    1    1    2    0    0 -0.79179503055E+02  0.11538193227E+02 -0.25337027132E+03  0.26570475720E+03  0.00000000000E+00 0. -1.
</event>
<event>
 7    1  0.8653652E-006  0.9293939E+02  0.7561462E-02  0.1295886E+00
          1   -1    0    0  501    0  0.00000000000E+00  0.00000000000E+00  0.82316732237E+03  0.82316732237E+03  0.00000000000E+00 0. -1.
         -1   -1    0    0    0  501 -0.00000000000E+00 -0.00000000000E+00 -0.18478002563E+02  0.18478002563E+02  0.00000000000E+00 0.  1.
         23    2    1    2    0    0 -0.35579510211E+02 -0.18263911844E+01  0.30726249940E+03  0.33365659438E+03  0.12508893710E+03 0.  0.
          5    1    3    3  502    0 -0.40957960527E+02  0.30281684969E+02  0.41390169292E+02  0.65765899136E+02  0.41800000000E+01 0.  1.
         -5    1    3    3    0  502  0.53784503161E+01 -0.32108076153E+02  0.26587233011E+03  0.26789069524E+03  0.41800000000E+01 0.  1.
        -11    1    1    2    0    0  0.16574053027E+02 -0.46848870018E+02  0.20558705009E+03  0.21150780369E+03  0.00000000000E+00 0.  1.
         11    1    1    2    0    0  0.19005457185E+02  0.48675261202E+02  0.29183977031E+03  0.29648092686E+03  0.00000000000E+00 0. -1.
</event>
<event>
 7    1  0.8653652E-006  0.3361614E+03  0.7561462E-02  0.1068443E+00
         -1   -1    0    0    0  501 -0.00000000000E+00  0.00000000000E+00  0.94370209914E+03  0.94370209914E+03  0.00000000000E+00 0.  1.
          1   -1    0    0  501    0  0.00000000000E+00 -0.00000000000E+00 -0.13056929923E+03  0.13056929923E+03  0.00000000000E+00 0. -1.
         23    2    1    2    0    0  0.74521641873E+02 -0.32499197726E+03  0.39329617679E+03  0.53056793825E+03  0.12508874459E+03 0.  0.
          5    1    3    3  502    0  0.10430188871E+01 -0.52923160794E+01  0.68784135531E+02  0.69121821436E+02  0.41800000000E+01 0.  1.
         -5    1    3    3    0  502  0.73478622986E+02 -0.31969966118E+03  0.32451204126E+03  0.46144611681E+03  0.41800000000E+01 0.  1.
        -11    1    1    2    0    0 -0.53554354120E+02  0.12040071383E+03  0.10912532191E+03  0.17109277197E+03  0.00000000000E+00 0.  1.
         11    1    1    2    0    0 -0.20967287753E+02  0.20459126343E+03  0.31071130121E+03  0.37261068815E+03  0.00000000000E+00 0. -1.
</event>
<event>
 7    1  0.8653652E-006  0.8824173E+02  0.7561462E-02  0.1307166E+00
          2   -1    0    0  501    0  0.00000000000E+00  0.00000000000E+00  0.11432370645E+03  0.11432370645E+03  0.00000000000E+00 0. -1.
         -2   -1    0    0    0  501 -0.00000000000E+00 -0.00000000000E+00 -0.10449629343E+03  0.10449629343E+03  0.00000000000E+00 0.  1.
         23    2    1    2    0    0 -0.12726750661E+01 -0.14424663098E+00 -0.55635921149E+01  0.12521948159E+03  0.12508926614E+03 0.  0.
          5    1    3    3  502    0  0.33789174720E+02 -0.37325989195E+02 -0.39156323545E+02  0.63918916380E+02  0.41800000000E+01 0.  1.
         -5    1    3    3    0  502 -0.35061849786E+02  0.37181742564E+02  0.33592731430E+02  0.61300565213E+02  0.41800000000E+01 0.  1.
        -11    1    1    2    0    0  0.36471751676E+02  0.10574115599E+02 -0.19731050418E+02  0.42793865701E+02  0.00000000000E+00 0.  1.
         11    1    1    2    0    0 -0.35199076610E+02 -0.10429868968E+02  0.35122055552E+02  0.50806652587E+02  0.00000000000E+00 0. -1.
</event>
<event>
 7    1  0.8653652E-006  0.9883904E+02  0.7561462E-02  0.1282756E+00
          1   -1    0    0  501    0  0.00000000000E+00  0.00000000000E+00  0.58684855377E+03  0.58684855377E+03  0.00000000000E+00 0. -1.
         -1   -1    0    0    0  501 -0.00000000000E+00 -0.00000000000E+00 -0.26197045099E+02  0.26197045099E+02  0.00000000000E+00 0.  1.
         23    2    1    2    0    0  0.52640990512E+02  0.70779434223E+01  0.22680086521E+03  0.26440019787E+03  0.12509061118E+03 0.  0.
          5    1    3    3  502    0 -0.25041728436E+02 -0.14541816791E+02  0.15047004488E+03  0.15328815807E+03  0.41800000000E+01 0. -1.
         -5    1    3    3    0  502  0.77682718949E+02  0.21619760213E+02  0.76330820330E+02  0.11111203979E+03  0.41800000000E+01 0. -1.
        -11    1    1    2    0    0 -0.33532710595E+01 -0.32187451181E+02  0.50740427585E+02  0.60181952709E+02  0.00000000000E+00 0.  1.
         11    1    1    2    0    0 -0.49287719453E+02  0.25109507759E+02  0.28311021588E+03  0.28846344830E+03  0.00000000000E+00 0. -1.
</event>
<event>
 7    1  0.8653652E-006  0.1225973E+03  0.7561462E-02  0.1238873E+00
          1   -1    0    0  501    0  0.00000000000E+00  0.00000000000E+00  0.47746513664E+02  0.47746513664E+02  0.00000000000E+00 0. -1.
         -1   -1    0    0    0  501 -0.00000000000E+00 -0.00000000000E+00 -0.38419285792E+03  0.38419285792E+03  0.00000000000E+00 0.  1.
         23    2    1    2    0    0  0.98103618646E+02 -0.10171355595E+02 -0.23015684172E+03  0.27990035275E+03  0.12507701312E+03 0.  0.
          5    1    3    3  502    0  0.10927051431E+03  0.18556011695E+02 -0.11164000710E+03  0.15737005577E+03  0.41800000000E+01 0.  1.
         -5    1    3    3    0  502 -0.11166895659E+02 -0.28727367291E+02 -0.11851683462E+03  0.12253029698E+03  0.41800000000E+01 0.  1.
        -11    1    1    2    0    0 -0.73071757525E+02 -0.60933761137E+01 -0.95264684318E+02  0.12021635104E+03  0.00000000000E+00 0.  1.
         11    1    1    2    0    0 -0.25031861121E+02  0.16264731709E+02 -0.11024818219E+02  0.31822667794E+02  0.00000000000E+00 0. -1.
</event>
<event>
 7    1  0.8653652E-006  0.2440936E+03  0.7561462E-02  0.1117095E+00
         -1   -1    0    0    0  501 -0.00000000000E+00  0.00000000000E+00  0.15199186281E+03  0.15199186281E+03  0.00000000000E+00 0.  1.
          1   -1    0    0  501    0  0.00000000000E+00 -0.00000000000E+00 -0.49783194705E+03  0.49783194705E+03  0.00000000000E+00 0. -1.
         23    2    1    2    0    0  0.18864554647E+03  0.12250626783E+03 -0.41700664056E+02  0.26073295841E+03  0.12509117617E+03 0.  0.
          5    1    3    3  502    0 -0.15613508861E+02  0.21481442157E+02 -0.16221605253E+02  0.31398198883E+02  0.41800000000E+01 0.  1.
         -5    1    3    3    0  502  0.20425905534E+03  0.10102482567E+03 -0.25479058803E+02  0.22933475952E+03  0.41800000000E+01 0.  1.
        -11    1    1    2    0    0 -0.14083702437E+03 -0.56181168603E+02 -0.14313370465E+03  0.20851534367E+03  0.00000000000E+00 0.  1.
         11    1    1    2    0    0 -0.47808522106E+02 -0.66325099226E+02 -0.16100571554E+03  0.18057550778E+03  0.00000000000E+00 0. -1.
</event>
<event>
 7    1  0.8653652E-006  0.9976066E+02  0.7561462E-02  0.1280800E+00
          2   -1    0    0  501    0  0.00000000000E+00  0.00000000000E+00  0.49738451393E+03  0.49738451393E+03  0.00000000000E+00 0. -1.
         -2   -1    0    0    0  501 -0.00000000000E+00 -0.00000000000E+00 -0.33276755456E+02  0.33276755456E+02  0.00000000000E+00 0.  1.
         23    2    1    2    0    0 -0.14391541976E+02 -0.41870093672E+02  0.14751466228E+03  0.19841532686E+03  0.12509134710E+03 0.  0.
          5    1    3    3  502    0 -0.42789390490E+02  0.62733689730E+01  0.31628718933E+01  0.43563324660E+02  0.41800000000E+01 0.  1.
         -5    1    3    3    0  502  0.28397848515E+02 -0.48143462645E+02  0.14435179039E+03  0.15485200220E+03  0.41800000000E+01 0.  1.
        -11    1    1    2    0    0  0.40017858951E+02 -0.10799164609E+02  0.15161385016E+03  0.15717764011E+03  0.00000000000E+00 0. -1.
         11    1    1    2    0    0 -0.25626316976E+02  0.52669258281E+02  0.16497924604E+03  0.17506830242E+03  0.00000000000E+00 0.  1.
</event>
<event>
 7    1  0.8653652E-006  0.1222678E+03  0.7561462E-02  0.1239402E+00
          2   -1    0    0  501    0  0.00000000000E+00  0.00000000000E+00  0.33768490635E+03  0.33768490635E+03  0.00000000000E+00 0. -1.
         -2   -1    0    0    0  501 -0.00000000000E+00 -0.00000000000E+00 -0.55624939886E+02  0.55624939886E+02  0.00000000000E+00 0.  1.
         23    2    1    2    0    0  0.56235258407E+02 -0.57083600978E+02  0.11915064511E+03  0.19043680256E+03  0.12509339610E+03 0.  0.
          5    1    3    3  502    0 -0.26722857080E+02 -0.38542040195E+02  0.40100299720E+01  0.47256245019E+02  0.41800000000E+01 0.  1.
         -5    1    3    3    0  502  0.82958115486E+02 -0.18541560784E+02  0.11514061514E+03  0.14318055754E+03  0.41800000000E+01 0.  1.
        -11    1    1    2    0    0 -0.21260986297E+02  0.71439571938E+02  0.68725122352E+02  0.10138434011E+03  0.00000000000E+00 0. -1.
         11    1    1    2    0    0 -0.34974272110E+02 -0.14355970959E+02  0.94184198995E+02  0.10148870357E+03  0.00000000000E+00 0.  1.
</event>
<event>
 7    1  0.8653652E-006  0.1662588E+03  0.7561462E-02  0.1181806E+00
         -1   -1    0    0    0  501 -0.00000000000E+00  0.00000000000E+00  0.32669928577E+03  0.32669928577E+03  0.00000000000E+00 0.  1.
          1   -1    0    0  501    0  0.00000000000E+00 -0.00000000000E+00 -0.98517215815E+02  0.98517215815E+02  0.00000000000E+00 0. -1.
         23    2    1    2    0    0 -0.10886552847E+03  0.94568236046E+02  0.18680586165E+03  0.26706959377E+03  0.12503952739E+03 0.  0.
          5    1    3    3  502    0 -0.83497693903E+02  0.12362329015E+03  0.16533466439E+03  0.22272765074E+03  0.41800000000E+01 0.  1.
         -5    1    3    3    0  502 -0.25367834566E+02 -0.29055054106E+02  0.21471197254E+02  0.44341943024E+02  0.41800000000E+01 0.  1.
        -11    1    1    2    0    0  0.68949210701E+02 -0.54095694310E+02  0.49616055237E+02  0.10070794773E+03  0.00000000000E+00 0.  1.
         11    1    1    2    0    0  0.39916317769E+02 -0.40472541736E+02 -0.82398469265E+01  0.57438960090E+02  0.00000000000E+00 0. -1.
</event>
<event>
 7    1  0.8653652E-006  0.1922414E+03  0.7561462E-02  0.1156455E+00
          2   -1    0    0  501    0  0.00000000000E+00  0.00000000000E+00  0.88054633818E+03  0.88054633818E+03  0.00000000000E+00 0. -1.
         -2   -1    0    0    0  501 -0.00000000000E+00 -0.00000000000E+00 -0.84653102992E+02  0.84653102992E+02  0.00000000000E+00 0.  1.
         23    2    1    2    0    0 -0.15822474333E+03  0.88498858675E+02  0.10282627037E+03  0.24307908012E+03  0.12508828852E+03 0.  0.
          5    1    3    3  502    0 -0.74045291935E+02  0.94135467550E+01 -0.16925246874E+02  0.76650221800E+02  0.41800000000E+01 0. -1.
         -5    1    3    3    0  502 -0.84179451391E+02  0.79085311920E+02  0.11975151725E+03  0.16642885832E+03  0.41800000000E+01 0. -1.
        -11    1    1    2    0    0  0.26961156706E+02 -0.50908585674E+02  0.12141551954E+03  0.13438867680E+03  0.00000000000E+00 0. -1.
         11    1    1    2    0    0  0.13126358662E+03 -0.37590273001E+02  0.57165144528E+03  0.58773168426E+03  0.00000000000E+00 0.  1.
</event>
<event>
 7    1  0.8653652E-006  0.1726756E+03  0.7561462E-02  0.1175086E+00
         -3   -1    0    0    0  501 -0.00000000000E+00  0.00000000000E+00  0.19458585403E+03  0.19458585403E+03  0.00000000000E+00 0.  1.
          3   -1    0    0  501    0  0.00000000000E+00 -0.00000000000E+00 -0.20036587237E+03  0.20036587237E+03  0.00000000000E+00 0. -1.
         23    2    1    2    0    0  0.15296100205E+03  0.35969577772E+02  0.45720092151E+02  0.20598025301E+03  0.12508660653E+03 0.  0.
          5    1    3    3  502    0  0.13574396885E+03  0.48192327042E+02 -0.11777409413E+02  0.14458597871E+03  0.41800000000E+01 0.  1.
         -5    1    3    3    0  502  0.17217033194E+02 -0.12222749269E+02  0.57497501564E+02  0.61394274308E+02  0.41800000000E+01 0.  1.
        -11    1    1    2    0    0 -0.13412183382E+03  0.54354367325E+01 -0.25684207940E+02  0.13666707291E+03  0.00000000000E+00 0.  1.
         11    1    1    2    0    0 -0.18839168228E+02 -0.41405014505E+02 -0.25815902549E+02  0.52304400485E+02  0.00000000000E+00 0. -1.
</event>
<event>
 7    1  0.8653652E-006  0.1046250E+03  0.7561462E-02  0.1270860E+00
          2   -1    0    0  501    0  0.00000000000E+00  0.00000000000E+00  0.44939101847E+03  0.44939101847E+03  0.00000000000E+00 0. -1.
         -2   -1    0    0    0  501 -0.00000000000E+00 -0.00000000000E+00 -0.47943248197E+02  0.47943248197E+02  0.00000000000E+00 0.  1.
         23    2    1    2    0    0  0.86528742491E+02  0.17424404344E+02  0.13674874944E+03  0.20527648321E+03  0.12508949173E+03 0.  0.
          5    1    3    3  502    0  0.57747447369E+02 -0.26127447050E+02  0.52549474418E+01  0.63737728541E+02  0.41800000000E+01 0. -1.
         -5    1    3    3    0  502  0.28781295122E+02  0.43551851394E+02  0.13149380200E+03  0.14153875466E+03  0.41800000000E+01 0. -1.
        -11    1    1    2    0    0 -0.48373257051E+01 -0.10273853488E+02 -0.32740612455E+01  0.11818259707E+02  0.00000000000E+00 0.  1.
         11    1    1    2    0    0 -0.81691416786E+02 -0.71505508557E+01  0.26797308208E+03  0.28023952375E+03  0.00000000000E+00 0. -1.
</event>
<event>
 7    1  0.8653652E-006  0.1361093E+03  0.7561462E-02  0.1218662E+00
          1   -1    0    0  501    0  0.00000000000E+00  0.00000000000E+00  0.34087732555E+03  0.34087732555E+03  0.00000000000E+00 0. -1.
         -1   -1    0    0    0  501 -0.00000000000E+00 -0.00000000000E+00 -0.93040201404E+02  0.93040201404E+02  0.00000000000E+00 0.  1.
         23    2    1    2    0    0  0.11810887086E+03 -0.30473785040E+01  0.27137584253E+02  0.17419413417E+03  0.12509258974E+03 0.  0.
          5    1    3    3  502    0  0.60681290844E+01 -0.25393976973E+02 -0.35164221671E+02  0.43996262828E+02  0.41800000000E+01 0. -1.
         -5    1    3    3    0  502  0.11204074178E+03  0.22346598469E+02  0.62301805924E+02  0.13019787134E+03  0.41800000000E+01 0. -1.
        -11    1    1    2    0    0 -0.71380129063E+02  0.30090547590E+02  0.16431249482E+03  0.18165670874E+03  0.00000000000E+00 0. -1.
         11    1    1    2    0    0 -0.46728741798E+02 -0.27043169086E+02  0.56387045080E+02  0.78066684041E+02  0.00000000000E+00 0.  1.
</event>
<event>
 7    1  0.8653652E-006  0.6848129E+02  0.7561462E-02  0.1365335E+00
         -1   -1    0    0    0  501 -0.00000000000E+00  0.00000000000E+00  0.77434513445E+02  0.77434513445E+02  0.00000000000E+00 0.  1.
          1   -1    0    0  501    0  0.00000000000E+00 -0.00000000000E+00 -0.18785523384E+03  0.18785523384E+03  0.00000000000E+00 0. -1.
         23    2    1    2    0    0  0.16383100547E+02 -0.29678526485E+02 -0.17377910934E+02  0.13076250526E+03  0.12509044758E+03 0.  0.
          5    1    3    3  502    0  0.39909352963E+02 -0.40102654004E+02 -0.58872433687E+02  0.81758272733E+02  0.41800000000E+01 0. -1.
         -5    1    3    3    0  502 -0.23526252416E+02  0.10424127518E+02  0.41494522753E+02  0.49004232529E+02  0.41800000000E+01 0. -1.
        -11    1    1    2    0    0  0.14392238740E+02  0.11464850791E+02  0.13057244062E+02  0.22562600960E+02  0.00000000000E+00 0.  1.
         11    1    1    2    0    0 -0.30775339286E+02  0.18213675695E+02 -0.10610005352E+03  0.11196464106E+03  0.00000000000E+00 0. -1.
</event>
<event>
 7    1  0.8653652E-006  0.1091027E+03  0.7561462E-02  0.1262241E+00
         -2   -1    0    0    0  501 -0.00000000000E+00  0.00000000000E+00  0.54043946720E+02  0.54043946720E+02  0.00000000000E+00 0.  1.
          2   -1    0    0  501    0  0.00000000000E+00 -0.00000000000E+00 -0.25701056810E+03  0.25701056810E+03  0.00000000000E+00 0. -1.
         23    2    1    2    0    0 -0.21795543661E+02 -0.30562527900E+02 -0.77044397936E+02  0.15165119036E+03  0.12511247120E+03 0.  0.
          5    1    3    3  502    0  0.38676829508E+02 -0.45436730745E+02 -0.64540209995E+02  0.87996049615E+02  0.41800000000E+01 0. -1.
         -5    1    3    3    0  502 -0.60472373169E+02  0.14874202845E+02 -0.12504187940E+02  0.63655140743E+02  0.41800000000E+01 0. -1.
        -11    1    1    2    0    0  0.46830692479E+02 -0.10396604637E+02 -0.78015656326E+02  0.91584091293E+02  0.00000000000E+00 0. -1.
         11    1    1    2    0    0 -0.25035148818E+02  0.40959132537E+02 -0.47906567116E+02  0.67819233167E+02  0.00000000000E+00 0.  1.
</event>
<event>
 7    1  0.8653652E-006  0.9204618E+02  0.7561462E-02  0.1297971E+00
          3   -1    0    0  501    0  0.00000000000E+00  0.00000000000E+00  0.23959906607E+02  0.23959906607E+02  0.00000000000E+00 0. -1.
         -3   -1    0    0    0  501 -0.00000000000E+00 -0.00000000000E+00 -0.54568745384E+03  0.54568745384E+03  0.00000000000E+00 0.  1.
         23    2    1    2    0    0 -0.13788650762E+02 -0.20350261128E+02 -0.35581247441E+03  0.37796006344E+03  0.12508809931E+03 0.  0.
          5    1    3    3  502    0 -0.51997613877E+02 -0.47374851194E+02 -0.13588858774E+03  0.15307288804E+03  0.41800000000E+01 0.  1.
         -5    1    3    3    0  502  0.38208963115E+02  0.27024590066E+02 -0.21992388667E+03  0.22488717540E+03  0.41800000000E+01 0.  1.
        -11    1    1    2    0    0  0.15016539526E+02 -0.20698411545E+02 -0.55762075602E+01  0.26172787215E+02  0.00000000000E+00 0.  1.
         11    1    1    2    0    0 -0.12278887642E+01  0.41048672673E+02 -0.16033886526E+03  0.16551450980E+03  0.00000000000E+00 0. -1.
</event>
<event>
 7    1  0.8653652E-006  0.1229245E+03  0.7561462E-02  0.1238349E+00
         -2   -1    0    0    0  501 -0.00000000000E+00  0.00000000000E+00  0.13336131292E+03  0.13336131292E+03  0.00000000000E+00 0.  1.
          2   -1    0    0  501    0  0.00000000000E+00 -0.00000000000E+00 -0.21869756790E+03  0.21869756790E+03  0.00000000000E+00 0. -1.
         23    2    1    2    0    0 -0.11279611419E+03 -0.83068763648E+01  0.28318298056E+02  0.17099744168E+03  0.12508489711E+03 0.  0.
          5    1    3    3  502    0 -0.86418487130E+02  0.19885881118E+02  0.70719331097E+02  0.11350021752E+03  0.41800000000E+01 0.  1.
         -5    1    3    3    0  502 -0.26377627060E+02 -0.28192757483E+02 -0.42401033041E+02  0.57497224165E+02  0.41800000000E+01 0.  1.
        -11    1    1    2    0    0  0.35809531742E+02 -0.13426984427E+02 -0.89769008019E+02  0.97576028178E+02  0.00000000000E+00 0. -1.
         11    1    1    2    0    0  0.76986582447E+02  0.21733860792E+02 -0.23885545022E+02  0.83485410958E+02  0.00000000000E+00 0.  1.
</event>
<event>
 6    1  0.8653652E-006  0.1618979E+03  0.7561462E-02  0.1186571E+00
         -2   -1    0    0    0  501 -0.00000000000E+00  0.00000000000E+00  0.29623335345E+02  0.29623335345E+02  0.00000000000E+00 0.  1.
          2   -1    0    0  501    0  0.00000000000E+00 -0.00000000000E+00 -0.11752686388E+04  0.11752686388E+04  0.00000000000E+00 0. -1.
          5    1    1    2  502    0 -0.48186794811E+02 -0.80812931004E+02 -0.57627030770E+03  0.58391577899E+03  0.41800000000E+01 0. -1.
         -5    1    1    2    0  502 -0.33553078285E+02  0.10120341429E+03 -0.15093905911E+03  0.18484591446E+03  0.41800000000E+01 0.  1.
        -11    1    1    2    0    0  0.19327195070E+02 -0.50166008891E+02 -0.17653325679E+03  0.18453769173E+03  0.00000000000E+00 0.  1.
         11    1    1    2    0    0  0.62412678026E+02  0.29775525605E+02 -0.24190267987E+03  0.25159258898E+03  0.00000000000E+00 0. -1.
</event>
<event>
 7    1  0.8653652E-006  0.1061423E+03  0.7561462E-02  0.1267885E+00
          1   -1    0    0  501    0  0.00000000000E+00  0.00000000000E+00  0.44793886740E+03  0.44793886740E+03  0.00000000000E+00 0. -1.
         -1   -1    0    0    0  501 -0.00000000000E+00 -0.00000000000E+00 -0.30785640192E+02  0.30785640192E+02  0.00000000000E+00 0.  1.
         23    2    1    2    0    0 -0.66667156416E+00  0.38267269411E+02  0.18167667027E+03  0.22386359541E+03  0.12507465159E+03 0.  0.
          5    1    3    3  502    0  0.44827502699E+02 -0.16535028767E+02  0.12115867704E+03  0.13030659844E+03  0.41800000000E+01 0. -1.
         -5    1    3    3    0  502 -0.45494174264E+02  0.54802298178E+02  0.60517993228E+02  0.93556996969E+02  0.41800000000E+01 0. -1.
        -11    1    1    2    0    0 -0.23395394542E+02  0.19461614876E+02  0.44552066860E+02  0.53953550400E+02  0.00000000000E+00 0.  1.
         11    1    1    2    0    0  0.24062066106E+02 -0.57728884287E+02  0.19092449008E+03  0.20090736178E+03  0.00000000000E+00 0. -1.
</event>
<event>
 7    1  0.8653652E-006  0.9377713E+02  0.7561462E-02  0.1293954E+00
          1   -1    0    0  501    0  0.00000000000E+00  0.00000000000E+00  0.21809749371E+03  0.21809749371E+03  0.00000000000E+00 0. -1.
         -1   -1    0    0    0  501 -0.00000000000E+00 -0.00000000000E+00 -0.10178779733E+03  0.10178779733E+03  0.00000000000E+00 0.  1.
         23    2    1    2    0    0  0.62737212188E+01 -0.40113450974E+02 -0.43448770695E+02  0.13191071520E+03  0.11774630603E+03 0.  0.
          5    1    3    3  502    0 -0.45794430783E+02 -0.11717560009E+02  0.13752589689E+02  0.49406854043E+02  0.41800000000E+01 0. -1.
         -5    1    3    3    0  502  0.52068152001E+02 -0.28395890965E+02 -0.57201360384E+02  0.82503861160E+02  0.41800000000E+01 0.  1.
        -11    1    1    2    0    0  0.11104927927E+02 -0.17356470466E+02  0.39257687919E+01  0.20975656174E+02  0.00000000000E+00 0.  1.
         11    1    1    2    0    0 -0.17378649145E+02  0.57469921441E+02  0.15583269828E+03  0.16699891967E+03  0.00000000000E+00 0. -1.
</event>
<event>
 7    1  0.8653652E-006  0.9251593E+02  0.7561462E-02  0.1296871E+00
          1   -1    0    0  501    0  0.00000000000E+00  0.00000000000E+00  0.20771591139E+03  0.20771591139E+03  0.00000000000E+00 0. -1.
         -1   -1    0    0    0  501 -0.00000000000E+00 -0.00000000000E+00 -0.63353664756E+02  0.63353664756E+02  0.00000000000E+00 0.  1.
         23    2    1    2    0    0  0.12563740662E+02 -0.15539930438E+02  0.44683688311E+02  0.13432749707E+03  0.12509159625E+03 0.  0.
          5    1    3    3  502    0  0.50101029607E+02 -0.53199515351E+02  0.22672454324E+02  0.76627763809E+02  0.41800000000E+01 0. -1.
         -5    1    3    3    0  502 -0.37537288945E+02  0.37659584913E+02  0.22011233987E+02  0.57699733264E+02  0.41800000000E+01 0. -1.
        -11    1    1    2    0    0 -0.97896439134E+01  0.36278126071E+02  0.10790474932E+03  0.11426011765E+03  0.00000000000E+00 0. -1.
         11    1    1    2    0    0 -0.27740967487E+01 -0.20738195633E+02 -0.82261910022E+01  0.22481961420E+02  0.00000000000E+00 0.  1.
</event>
<event>
 7    1  0.8653652E-006  0.5122587E+02  0.7561462E-02  0.1438840E+00
          2   -1    0    0  501    0  0.00000000000E+00  0.00000000000E+00  0.17103617914E+03  0.17103617914E+03  0.00000000000E+00 0. -1.
         -2   -1    0    0    0  501 -0.00000000000E+00 -0.00000000000E+00 -0.13942632665E+03  0.13942632665E+03  0.00000000000E+00 0.  1.
         23    2    1    2    0    0  0.28377329010E+02  0.12004001130E+02 -0.10287413417E+03  0.16601661719E+03  0.12660592741E+03 0.  0.
          5    1    3    3  502    0  0.38545457342E+01  0.24739314446E+02  0.24699409985E+02  0.35417855041E+02  0.41800000000E+01 0. -1.
         -5    1    3    3    0  502  0.24522783276E+02 -0.12735313316E+02 -0.12757354416E+03  0.13059876215E+03  0.41800000000E+01 0.  1.
        -11    1    1    2    0    0 -0.17726544797E+02 -0.26040014592E+02  0.58461438200E+02  0.66408226199E+02  0.00000000000E+00 0. -1.
         11    1    1    2    0    0 -0.10650784213E+02  0.14036013462E+02  0.76022548461E+02  0.78037662400E+02  0.00000000000E+00 0.  1.
</event>
<event>
 7    1  0.8653652E-006  0.9875315E+02  0.7561462E-02  0.1282940E+00
          2   -1    0    0  501    0  0.00000000000E+00  0.00000000000E+00  0.36220578198E+03  0.36220578198E+03  0.00000000000E+00 0. -1.
         -2   -1    0    0    0  501 -0.00000000000E+00 -0.00000000000E+00 -0.34180703795E+02  0.34180703795E+02  0.00000000000E+00 0.  1.
         23    2    1    2    0    0 -0.25068848282E+02  0.15566568045E+02  0.18521250500E+03  0.22542209341E+03  0.12506271624E+03 0.  0.
          5    1    3    3  502    0 -0.72505642287E+02  0.29081954516E+02  0.12514450907E+03  0.14758539491E+03  0.41800000000E+01 0. -1.
         -5    1    3    3    0  502  0.47436794005E+02 -0.13515386471E+02  0.60067995936E+02  0.77836698495E+02  0.41800000000E+01 0. -1.
        -11    1    1    2    0    0 -0.29147110576E+00 -0.36736432043E+02  0.16266939346E+02  0.40177900771E+02  0.00000000000E+00 0.  1.
         11    1    1    2    0    0  0.25360319388E+02  0.21169863998E+02  0.12654563383E+03  0.13078649159E+03  0.00000000000E+00 0. -1.
</event>
<event>
 7    1  0.8653652E-006  0.1039527E+03  0.7561462E-02  0.1272197E+00
         -1   -1    0    0    0  501 -0.00000000000E+00  0.00000000000E+00  0.54397017956E+02  0.54397017956E+02  0.00000000000E+00 0.  1.
          1   -1    0    0  501    0  0.00000000000E+00 -0.00000000000E+00 -0.29821698433E+03  0.29821698433E+03  0.00000000000E+00 0. -1.
         23    2    1    2    0    0  0.31662433011E+02 -0.47126818372E+02 -0.75311952462E+02  0.15665887466E+03  0.12508663458E+03 0.  0.
          5    1    3    3  502    0  0.64879762340E+02 -0.46818600375E+02 -0.89653744132E+02  0.12023573154E+03  0.41800000000E+01 0. -1.
         -5    1    3    3    0  502 -0.33217329329E+02 -0.30821799700E+00  0.14341791670E+02  0.36423143115E+02  0.41800000000E+01 0. -1.
        -11    1    1    2    0    0  0.47354198923E+01  0.56518866897E+02 -0.67416539635E+02  0.88101057504E+02  0.00000000000E+00 0. -1.
         11    1    1    2    0    0 -0.36397852904E+02 -0.93920485253E+01 -0.10109147428E+03  0.10785407013E+03  0.00000000000E+00 0.  1.
</event>
<event>
 7    1  0.8653652E-006  0.1509688E+03  0.7561462E-02  0.1199288E+00
         -2   -1    0    0    0  501 -0.00000000000E+00  0.00000000000E+00  0.34435977778E+03  0.34435977778E+03  0.00000000000E+00 0.  1.
          2   -1    0    0  501    0  0.00000000000E+00 -0.00000000000E+00 -0.93404843030E+02  0.93404843030E+02  0.00000000000E+00 0. -1.
         23    2    1    2    0    0  0.61300837399E+02 -0.11030908211E+03  0.11130434597E+03  0.20967028487E+03  0.12508830747E+03 0.  0.
          5    1    3    3  502    0 -0.99037871890E+01 -0.10019677171E+03  0.40335162047E+02  0.10854434927E+03  0.41800000000E+01 0.  1.
         -5    1    3    3    0  502  0.71204624588E+02 -0.10112310399E+02  0.70969183923E+02  0.10112593560E+03  0.41800000000E+01 0.  1.
        -11    1    1    2    0    0 -0.34549599942E+02  0.87126208161E+02  0.16133335110E+03  0.18658269261E+03  0.00000000000E+00 0.  1.
         11    1    1    2    0    0 -0.26751237457E+02  0.23182873945E+02 -0.21682762321E+02  0.41511643327E+02  0.00000000000E+00 0. -1.
</event>
<event>
 7    1  0.8653652E-006  0.1115590E+03  0.7561462E-02  0.1257710E+00
         -3   -1    0    0    0  501 -0.00000000000E+00  0.00000000000E+00  0.21174469380E+03  0.21174469380E+03  0.00000000000E+00 0.  1.
          3   -1    0    0  501    0  0.00000000000E+00 -0.00000000000E+00 -0.81581617882E+02  0.81581617882E+02  0.00000000000E+00 0. -1.
         23    2    1    2    0    0 -0.60985236694E+02 -0.20360006465E+02  0.11487479598E+03  0.18159158975E+03  0.12508220401E+03 0.  0.
          5    1    3    3  502    0 -0.34429277728E+02  0.42651789704E+02  0.95844605987E+02  0.11049077440E+03  0.41800000000E+01 0. -1.
         -5    1    3    3    0  502 -0.26555958966E+02 -0.63011796168E+02  0.19030189994E+02  0.71100815355E+02  0.41800000000E+01 0. -1.
        -11    1    1    2    0    0 -0.93160607530E+01 -0.17474515088E+02  0.24350746698E+02  0.31386406775E+02  0.00000000000E+00 0.  1.
         11    1    1    2    0    0  0.70301297447E+02  0.37834521552E+02 -0.90624667659E+01  0.80348315152E+02  0.00000000000E+00 0. -1.
</event>
<event>
 7    1  0.8653652E-006  0.7368299E+02  0.7561462E-02  0.1347999E+00
         -3   -1    0    0    0  501 -0.00000000000E+00  0.00000000000E+00  0.18447777618E+04  0.18447777618E+04  0.00000000000E+00 0.  1.
          3   -1    0    0  501    0  0.00000000000E+00 -0.00000000000E+00 -0.11802843993E+02  0.11802843993E+02  0.00000000000E+00 0. -1.
         23    2    1    2    0    0  0.60032771294E+02  0.10447800502E+02  0.14875400886E+04  0.14940334604E+04  0.12508946930E+03 0.  0.
          5    1    3    3  502    0  0.73477735077E+01 -0.12115757198E+02  0.12329466866E+04  0.12330351924E+04  0.41800000000E+01 0. -1.
         -5    1    3    3    0  502  0.52684997786E+02  0.22563557700E+02  0.25459340202E+03  0.26099826796E+03  0.41800000000E+01 0. -1.
        -11    1    1    2    0    0 -0.59473638618E+02 -0.22110647391E+02  0.34508060929E+03  0.35086553169E+03  0.00000000000E+00 0.  1.
         11    1    1    2    0    0 -0.55913267523E+00  0.11662846889E+02  0.35421987387E+00  0.11681613699E+02  0.00000000000E+00 0. -1.
</event>
<event>
 7    1  0.8653652E-006  0.1053635E+03  0.7561462E-02  0.1269405E+00
          4   -1    0    0  501    0  0.00000000000E+00  0.00000000000E+00  0.52661902282E+03  0.52661902282E+03  0.00000000000E+00 0. -1.
         -4   -1    0    0    0  501 -0.00000000000E+00 -0.00000000000E+00 -0.29173875839E+02  0.29173875839E+02  0.00000000000E+00 0.  1.
         23    2    1    2    0    0 -0.42224964213E+02 -0.20985574253E+01  0.19582706364E+03  0.23618331423E+03  0.12508783921E+03 0.  0.
          5    1    3    3  502    0 -0.77882517789E+02  0.24979341649E+02  0.92798042365E+02  0.12376834471E+03  0.41800000000E+01 0.  1.
         -5    1    3    3    0  502  0.35657553576E+02 -0.27077899075E+02  0.10302902128E+03  0.11241496951E+03  0.41800000000E+01 0.  1.
        -11    1    1    2    0    0 -0.20692356324E+02  0.31783574299E+01  0.13991853557E+02  0.25180300478E+02  0.00000000000E+00 0.  1.
         11    1    1    2    0    0  0.62917320537E+02 -0.10798000046E+01  0.28762622978E+03  0.29442928395E+03  0.00000000000E+00 0. -1.
</event>
<event>
 7    1  0.8653652E-006  0.1569215E+03  0.7561462E-02  0.1192217E+00
         -2   -1    0    0    0  501 -0.00000000000E+00  0.00000000000E+00  0.43989259106E+02  0.43989259106E+02  0.00000000000E+00 0.  1.
          2   -1    0    0  501    0  0.00000000000E+00 -0.00000000000E+00 -0.62140342597E+03  0.62140342597E+03  0.00000000000E+00 0. -1.
         23    2    1    2    0    0  0.11455725401E+03  0.32651977738E+02 -0.23119898884E+03  0.28860157085E+03  0.12509347769E+03 0.  0.
          5    1    3    3  502    0  0.10146369613E+03  0.74800666837E+02 -0.14903920666E+03  0.19524389597E+03  0.41800000000E+01 0.  1.
         -5    1    3    3    0  502  0.13093557875E+02 -0.42148689099E+02 -0.82159782186E+02  0.93357674882E+02  0.41800000000E+01 0.  1.
        -11    1    1    2    0    0 -0.15267355611E+02  0.24465527806E+02 -0.36147027711E+02  0.46241343088E+02  0.00000000000E+00 0.  1.
         11    1    1    2    0    0 -0.99289898396E+02 -0.57117505544E+02 -0.31006815031E+03  0.33054977114E+03  0.00000000000E+00 0. -1.
</event>
<event>
 7    1  0.8653652E-006  0.8770660E+02  0.7561462E-02  0.1308502E+00
         -1   -1    0    0    0  501 -0.00000000000E+00  0.00000000000E+00  0.12558077359E+04  0.12558077359E+04  0.00000000000E+00 0.  1.
          1   -1    0    0  501    0  0.00000000000E+00 -0.00000000000E+00 -0.15403403935E+02  0.15403403935E+02  0.00000000000E+00 0. -1.
         23    2    1    2    0    0  0.23481377556E+02  0.78621113380E+01  0.10459688794E+04  0.10537130295E+04  0.12508822483E+03 0.  0.
          5    1    3    3  502    0  0.44292536772E+02 -0.14910291475E+02  0.97604457008E+03  0.97717174580E+03  0.41800000000E+01 0.  1.
         -5    1    3    3    0  502 -0.20811159216E+02  0.22772402813E+02  0.69924309332E+02  0.76541283719E+02  0.41800000000E+01 0.  1.
        -11    1    1    2    0    0  0.27969919170E+02  0.23989062230E+02  0.78626992690E+02  0.86833147268E+02  0.00000000000E+00 0.  1.
         11    1    1    2    0    0 -0.51451296726E+02 -0.31851173568E+02  0.11580845986E+03  0.13066496304E+03  0.00000000000E+00 0. -1.
</event>
<event>
 7    1  0.8653652E-006  0.1265024E+03  0.7561462E-02  0.1232740E+00
          2   -1    0    0  501    0  0.00000000000E+00  0.00000000000E+00  0.34895860651E+03  0.34895860651E+03  0.00000000000E+00 0. -1.
         -2   -1    0    0    0  501 -0.00000000000E+00 -0.00000000000E+00 -0.65693614410E+02  0.65693614410E+02  0.00000000000E+00 0.  1.
         23    2    1    2    0    0 -0.64063964363E+02 -0.15239756855E+02  0.40526859891E+02  0.14705914008E+03  0.12509005791E+03 0.  0.
          5    1    3    3  502    0 -0.67804947331E+02  0.43994065485E+02  0.31642836572E+02  0.86900691521E+02  0.41800000000E+01 0. -1.
         -5    1    3    3    0  502  0.37409829683E+01 -0.59233822340E+02  0.88840233196E+01  0.60158448558E+02  0.41800000000E+01 0. -1.
        -11    1    1    2    0    0  0.37176093288E+02 -0.37854470587E+02  0.11852213469E+03  0.12985576332E+03  0.00000000000E+00 0. -1.
         11    1    1    2    0    0  0.26887871074E+02  0.53094227442E+02  0.12421599751E+03  0.13773731751E+03  0.00000000000E+00 0.  1.
</event>
<event>
 7    1  0.8653652E-006  0.1463308E+03  0.7561462E-02  0.1205056E+00
         -1   -1    0    0    0  501 -0.00000000000E+00  0.00000000000E+00  0.70272199526E+02  0.70272199526E+02  0.00000000000E+00 0.  1.
          1   -1    0    0  501    0  0.00000000000E+00 -0.00000000000E+00 -0.37791371246E+03  0.37791371246E+03  0.00000000000E+00 0. -1.
         23    2    1    2    0    0  0.50211021501E+02  0.11669268784E+03 -0.13643087830E+03  0.21730182591E+03  0.11166185076E+03 0.  0.
          5    1    3    3  502    0 -0.17559323656E+02 -0.10148238746E+01 -0.57231535198E+02  0.60019003123E+02  0.41800000000E+01 0. -1.
         -5    1    3    3    0  502  0.67770345157E+02  0.11770751172E+03 -0.79199343102E+02  0.15728282279E+03  0.41800000000E+01 0.  1.
        -11    1    1    2    0    0  0.74839144198E+01 -0.49800516176E+02 -0.16976273673E+02  0.53144089552E+02  0.00000000000E+00 0. -1.
         11    1    1    2    0    0 -0.57694935921E+02 -0.66892171667E+02 -0.15423436096E+03  0.17773999651E+03  0.00000000000E+00 0.  1.
</event>
<event>
 7    1  0.8653652E-006  0.9504709E+02  0.7561462E-02  0.1291070E+00
          1   -1    0    0  501    0  0.00000000000E+00  0.00000000000E+00  0.22392619658E+03  0.22392619658E+03  0.00000000000E+00 0. -1.
         -1   -1    0    0    0  501 -0.00000000000E+00 -0.00000000000E+00 -0.63022227416E+02  0.63022227416E+02  0.00000000000E+00 0.  1.
         23    2    1    2    0    0 -0.41393948801E+02 -0.13064871820E+02  0.65647885342E+02  0.14778605576E+03  0.12508766347E+03 0.  0.
          5    1    3    3  502    0 -0.60966954437E+02 -0.24384664250E+02 -0.11933429721E+02  0.66868980319E+02  0.41800000000E+01 0.  1.
         -5    1    3    3    0  502  0.19573005636E+02  0.11319792430E+02  0.77581315063E+02  0.80917075436E+02  0.41800000000E+01 0.  1.
        -11    1    1    2    0    0  0.50038688515E+02 -0.29354630330E+02  0.58231611367E+02  0.82197842019E+02  0.00000000000E+00 0. -1.
         11    1    1    2    0    0 -0.86447397137E+01  0.42419502151E+02  0.37024472459E+02  0.56964526227E+02  0.00000000000E+00 0.  1.
</event>
<event>
 7    1  0.8653652E-006  0.1738852E+03  0.7561462E-02  0.1173856E+00
         -1   -1    0    0    0  501 -0.00000000000E+00  0.00000000000E+00  0.74404713122E+02  0.74404713122E+02  0.00000000000E+00 0.  1.
          1   -1    0    0  501    0  0.00000000000E+00 -0.00000000000E+00 -0.43995026936E+03  0.43995026936E+03  0.00000000000E+00 0. -1.
         23    2    1    2    0    0 -0.21002351837E+02 -0.13954091921E+03 -0.23970967206E+03  0.30499489425E+03  0.12509353189E+03 0.  0.
          5    1    3    3  502    0  0.48508523203E+02 -0.73111521144E+02 -0.81571504346E+02  0.11987390904E+03  0.41800000000E+01 0.  1.
         -5    1    3    3    0  502 -0.69510875040E+02 -0.66429398069E+02 -0.15813816771E+03  0.18512098521E+03  0.41800000000E+01 0.  1.
        -11    1    1    2    0    0  0.53197438554E+02  0.92027256574E+02 -0.10165339556E+03  0.14707955755E+03  0.00000000000E+00 0. -1.
         11    1    1    2    0    0 -0.32195086717E+02  0.47513662639E+02 -0.24182488620E+02  0.62280530681E+02  0.00000000000E+00 0.  1.
</event>
<event>
 7    1  0.8653652E-006  0.1444230E+03  0.7561462E-02  0.1207498E+00
         -1   -1    0    0    0  501 -0.00000000000E+00  0.00000000000E+00  0.36281259278E+03  0.36281259278E+03  0.00000000000E+00 0.  1.
          1   -1    0    0  501    0  0.00000000000E+00 -0.00000000000E+00 -0.76420446215E+02  0.76420446215E+02  0.00000000000E+00 0. -1.
         23    2    1    2    0    0  0.67104117700E+02  0.63671601319E+02  0.16783025245E+03  0.22884966282E+03  0.12509252221E+03 0.  0.
          5    1    3    3  502    0  0.75959990506E+02 -0.24357709077E+01  0.43423350849E+02  0.87629406802E+02  0.41800000000E+01 0. -1.
         -5    1    3    3    0  502 -0.88558728056E+01  0.66107372227E+02  0.12440690160E+03  0.14122025602E+03  0.41800000000E+01 0. -1.
        -11    1    1    2    0    0  0.32014156555E+02 -0.12637232756E+02 -0.14015045462E+02  0.37162176618E+02  0.00000000000E+00 0. -1.
         11    1    1    2    0    0 -0.99118274256E+02 -0.51034368563E+02  0.13257693958E+03  0.17322119955E+03  0.00000000000E+00 0.  1.
</event>
<event>
 6    1  0.8653652E-006  0.1303439E+03  0.7561462E-02  0.1226946E+00
         -2   -1    0    0    0  501 -0.00000000000E+00  0.00000000000E+00  0.93388506827E+02  0.93388506827E+02  0.00000000000E+00 0.  1.
          2   -1    0    0  501    0  0.00000000000E+00 -0.00000000000E+00 -0.36133038877E+03  0.36133038877E+03  0.00000000000E+00 0. -1.
          5    1    1    2  502    0 -0.10596541440E+03 -0.24184638133E+02 -0.16163526362E+03  0.19482555432E+03  0.41800000000E+01 0. -1.
         -5    1    1    2    0  502  0.99031444282E+02  0.20140874974E+02  0.20927130625E+02  0.10328745808E+03  0.41800000000E+01 0.  1.
        -11    1    1    2    0    0 -0.18594645537E+02  0.14097963665E+02  0.29877628838E+01  0.23525308695E+02  0.00000000000E+00 0.  1.
         11    1    1    2    0    0  0.25528615656E+02 -0.10054200506E+02 -0.13022151183E+03  0.13308057450E+03  0.00000000000E+00 0. -1.
</event>
<event>
 7    1  0.8653652E-006  0.1387811E+03  0.7561462E-02  0.1214979E+00
         -2   -1    0    0    0  501 -0.00000000000E+00  0.00000000000E+00  0.10252683781E+03  0.10252683781E+03  0.00000000000E+00 0.  1.
          2   -1    0    0  501    0  0.00000000000E+00 -0.00000000000E+00 -0.30599196026E+03  0.30599196026E+03  0.00000000000E+00 0. -1.
         23    2    1    2    0    0  0.98911385961E+02 -0.46578564342E+02 -0.10865288087E+02  0.16648939334E+03  0.12509052195E+03 0.  0.
          5    1    3    3  502    0  0.99805149289E+02 -0.81845824580E+02  0.65691406015E+00  0.12914221139E+03  0.41800000000E+01 0.  1.
         -5    1    3    3    0  502 -0.89376332730E+00  0.35267260239E+02 -0.11522202147E+02  0.37347181955E+02  0.41800000000E+01 0.  1.
        -11    1    1    2    0    0 -0.57707356478E+02  0.11631481218E+02 -0.21613651196E+02  0.62710288351E+02  0.00000000000E+00 0.  1.
         11    1    1    2    0    0 -0.41204029483E+02  0.34947083124E+02 -0.17098618316E+03  0.17931911637E+03  0.00000000000E+00 0. -1.
</event>
<event>
 6    1  0.8653652E-006  0.2564200E+03  0.7561462E-02  0.1109313E+00
         -2   -1    0    0    0  501 -0.00000000000E+00  0.00000000000E+00  0.40276429848E+03  0.40276429848E+03  0.00000000000E+00 0.  1.
          2   -1    0    0  501    0  0.00000000000E+00 -0.00000000000E+00 -0.47875714545E+03  0.47875714545E+03  0.00000000000E+00 0. -1.
          5    1    1    2  502    0 -0.21303157478E+03  0.11723546041E+03 -0.28720558829E+03  0.37633911220E+03  0.41800000000E+01 0. -1.
         -5    1    1    2    0  502  0.11807277133E+03 -0.98427981414E+02  0.30557936752E+03  0.34208985531E+03  0.41800000000E+01 0.  1.
        -11    1    1    2    0    0  0.67654752175E+02  0.18030323643E+02 -0.94034350554E+02  0.11723786567E+03  0.00000000000E+00 0. -1.
         11    1    1    2    0    0  0.27304051270E+02 -0.36837802640E+02 -0.33227564789E+00  0.45854610741E+02  0.00000000000E+00 0.  1.
</event>
<event>
 7    1  0.8653652E-006  0.1257295E+03  0.7561462E-02  0.1233934E+00
         -1   -1    0    0    0  501 -0.00000000000E+00  0.00000000000E+00  0.39656640223E+02  0.39656640223E+02  0.00000000000E+00 0.  1.
          1   -1    0    0  501    0  0.00000000000E+00 -0.00000000000E+00 -0.47223628776E+03  0.47223628776E+03  0.00000000000E+00 0. -1.
         23    2    1    2    0    0 -0.70998720512E+02  0.42954338333E+02 -0.22290587536E+03  0.26873303695E+03  0.12507806516E+03 0.  0.
          5    1    3    3  502    0  0.15121002558E+02  0.54594750102E+02 -0.52255793763E+02  0.77184012845E+02  0.41800000000E+01 0. -1.
         -5    1    3    3    0  502 -0.86119723070E+02 -0.11640411769E+02 -0.17065008159E+03  0.19154902411E+03  0.41800000000E+01 0. -1.
        -11    1    1    2    0    0  0.27599217117E+02 -0.55917292845E+02 -0.59074618602E+02  0.85896862501E+02  0.00000000000E+00 0.  1.
         11    1    1    2    0    0  0.43399503394E+02  0.12962954512E+02 -0.15059915357E+03  0.15726302853E+03  0.00000000000E+00 0. -1.
</event>
<event>
 7    1  0.8653652E-006  0.1003331E+03  0.7561462E-02  0.1279597E+00
         -3   -1    0    0    0  501 -0.00000000000E+00  0.00000000000E+00  0.11700952787E+03  0.11700952787E+03  0.00000000000E+00 0.  1.
          3   -1    0    0  501    0  0.00000000000E+00 -0.00000000000E+00 -0.14059855980E+03  0.14059855980E+03  0.00000000000E+00 0. -1.
         23    2    1    2    0    0  0.22855248019E+02  0.58396875536E+02  0.17858390904E+02  0.14106186233E+03  0.12508784690E+03 0.  0.
          5    1    3    3  502    0 -0.21207917503E+02  0.57829835075E+02  0.55454091198E+02  0.82986108597E+02  0.41800000000E+01 0.  1.
         -5    1    3    3    0  502  0.44063165522E+02  0.56704046135E+00 -0.37595700293E+02  0.58075753729E+02  0.41800000000E+01 0.  1.
        -11    1    1    2    0    0 -0.22498912895E+02 -0.74874847102E+02 -0.71676237819E+01  0.78509990706E+02  0.00000000000E+00 0.  1.
         11    1    1    2    0    0 -0.35633512364E+00  0.16477971566E+02 -0.34279799057E+02  0.38036234633E+02  0.00000000000E+00 0. -1.
</event>
<event>
 7    1  0.8653652E-006  0.7985458E+02  0.7561462E-02  0.1329465E+00
         -2   -1    0    0    0  501 -0.00000000000E+00  0.00000000000E+00  0.35821865163E+03  0.35821865163E+03  0.00000000000E+00 0.  1.
          2   -1    0    0  501    0  0.00000000000E+00 -0.00000000000E+00 -0.44036315890E+02  0.44036315890E+02  0.00000000000E+00 0. -1.
         23    2    1    2    0    0 -0.28567731823E+02 -0.22593722354E+02  0.25870917272E+03  0.28964595823E+03  0.12505100351E+03 0.  0.
          5    1    3    3  502    0  0.18549783398E+02  0.11823138156E+02 -0.19758852780E+01  0.22477935461E+02  0.41800000000E+01 0.  1.
         -5    1    3    3    0  502 -0.47117515220E+02 -0.34416860511E+02  0.26068505800E+03  0.26716802277E+03  0.41800000000E+01 0.  1.
        -11    1    1    2    0    0  0.23018305899E+02 -0.23205660011E+02  0.57815536361E+02  0.66415218947E+02  0.00000000000E+00 0.  1.
         11    1    1    2    0    0  0.55494259237E+01  0.45799382366E+02 -0.23423733417E+01  0.46193790341E+02  0.00000000000E+00 0. -1.
</event>
<event>
 7    1  0.8653652E-006  0.1322034E+03  0.7561462E-02  0.1224222E+00
         -1   -1    0    0    0  501 -0.00000000000E+00  0.00000000000E+00  0.30644430382E+02  0.30644430382E+02  0.00000000000E+00 0.  1.
          1   -1    0    0  501    0  0.00000000000E+00 -0.00000000000E+00 -0.71217549683E+03  0.71217549683E+03  0.00000000000E+00 0. -1.
         23    2    1    2    0    0  0.12501803594E+02  0.10092482796E+03 -0.36587830472E+03  0.39982500998E+03  0.12510391181E+03 0.  0.
          5    1    3    3  502    0  0.17320913648E+01 -0.14092347135E+02 -0.18219458189E+03  0.18279478236E+03  0.41800000000E+01 0. -1.
         -5    1    3    3    0  502  0.10769712229E+02  0.11501717510E+03 -0.18368372283E+03  0.21703022762E+03  0.41800000000E+01 0. -1.
        -11    1    1    2    0    0  0.36372852685E+02 -0.60461795158E+02 -0.15713540740E+03  0.17225025209E+03  0.00000000000E+00 0.  1.
         11    1    1    2    0    0 -0.48874656279E+02 -0.40463032805E+02 -0.15851735432E+03  0.17074466513E+03  0.00000000000E+00 0. -1.
</event>
<event>
 7    1  0.8653652E-006  0.9838123E+02  0.7561462E-02  0.1283737E+00
          2   -1    0    0  501    0  0.00000000000E+00  0.00000000000E+00  0.97002410823E+02  0.97002410823E+02  0.00000000000E+00 0. -1.
         -2   -1    0    0    0  501 -0.00000000000E+00 -0.00000000000E+00 -0.12033185257E+03  0.12033185257E+03  0.00000000000E+00 0.  1.
         23    2    1    2    0    0 -0.21020703704E+02 -0.10170642541E+02  0.12905600413E+01  0.12725397783E+03  0.12508635967E+03 0.  0.
          5    1    3    3  502    0  0.43909023819E+02 -0.36214849015E+02 -0.18566164012E+01  0.57100237184E+02  0.41800000000E+01 0. -1.
         -5    1    3    3    0  502 -0.64929727524E+02  0.26044206474E+02  0.31471764425E+01  0.70153740647E+02  0.41800000000E+01 0. -1.
        -11    1    1    2    0    0 -0.50453866877E+01 -0.25184022463E+02  0.15993373166E+02  0.30256881854E+02  0.00000000000E+00 0. -1.
         11    1    1    2    0    0  0.26066090392E+02  0.35354665005E+02 -0.40613374951E+02  0.59823403705E+02  0.00000000000E+00 0.  1.
</event>
<event>
 7    1  0.8653652E-006  0.1542970E+03  0.7561462E-02  0.1195290E+00
          2   -1    0    0  501    0  0.00000000000E+00  0.00000000000E+00  0.70391764499E+02  0.70391764499E+02  0.00000000000E+00 0.  1.
         -2   -1    0    0    0  501 -0.00000000000E+00 -0.00000000000E+00 -0.41963972765E+03  0.41963972765E+03  0.00000000000E+00 0. -1.
         23    2    1    2    0    0 -0.72113595499E+02 -0.11129970988E+03 -0.16890911402E+03  0.24851674681E+03  0.12506913515E+03 0.  0.
          5    1    3    3  502    0 -0.77898774030E+02 -0.47673581464E+02 -0.15944403834E+03  0.18379571031E+03  0.41800000000E+01 0.  1.
         -5    1    3    3    0  502  0.57851785313E+01 -0.63626128414E+02 -0.94650756818E+01  0.64721036497E+02  0.41800000000E+01 0.  1.
        -11    1    1    2    0    0  0.14045649406E+02  0.90315123014E+02 -0.70193355880E+02  0.11524412749E+03  0.00000000000E+00 0.  1.
         11    1    1    2    0    0  0.58067946093E+02  0.20984586864E+02 -0.11014549324E+03  0.12627061785E+03  0.00000000000E+00 0. -1.
</event>
<event>
 7    1  0.8653652E-006  0.2115203E+03  0.7561462E-02  0.1140368E+00
         -1   -1    0    0    0  501 -0.00000000000E+00  0.00000000000E+00  0.89411740353E+02  0.89411740353E+02  0.00000000000E+00 0.  1.
          1   -1    0    0  501    0  0.00000000000E+00 -0.00000000000E+00 -0.59801137892E+03  0.59801137892E+03  0.00000000000E+00 0. -1.
         23    2    1    2    0    0  0.15917769115E+03  0.10757954838E+03 -0.16161564888E+03  0.28049481223E+03  0.12508727007E+03 0.  0.
          5    1    3    3  502    0 -0.13951663827E+02  0.36346297076E+02 -0.46054095544E+02  0.60449601744E+02  0.41800000000E+01 0. -1.
         -5    1    3    3    0  502  0.17312935498E+03  0.71233251309E+02 -0.11556155333E+03  0.22004521048E+03  0.41800000000E+01 0. -1.
        -11    1    1    2    0    0 -0.10203383488E+03 -0.92028703346E+02 -0.16058427707E+03  0.21134686120E+03  0.00000000000E+00 0.  1.
         11    1    1    2    0    0 -0.57143856271E+02 -0.15550845039E+02 -0.18639971263E+03  0.19558144584E+03  0.00000000000E+00 0. -1.
</event>
<event>
 7    1  0.8653652E-006  0.1952551E+03  0.7561462E-02  0.1153805E+00
          2   -1    0    0  501    0  0.00000000000E+00  0.00000000000E+00  0.15202774631E+03  0.15202774631E+03  0.00000000000E+00 0. -1.
         -2   -1    0    0    0  501 -0.00000000000E+00 -0.00000000000E+00 -0.28819665106E+03  0.28819665106E+03  0.00000000000E+00 0.  1.
         23    2    1    2    0    0 -0.12787872354E+02  0.17141618840E+03 -0.29324946513E+02  0.21460283484E+03  0.12508950759E+03 0.  0.
          5    1    3    3  502    0  0.20829323566E+01 -0.11829437435E+02  0.20457137522E+02  0.24088193640E+02  0.41800000000E+01 0. -1.
         -5    1    3    3    0  502 -0.14870804711E+02  0.18324562583E+03 -0.49782084035E+02  0.19051464120E+03  0.41800000000E+01 0. -1.
        -11    1    1    2    0    0  0.37942412667E+01  0.10805994605E+02  0.40163927800E+01  0.12136605668E+02  0.00000000000E+00 0. -1.
         11    1    1    2    0    0  0.89936310875E+01 -0.18222218300E+03 -0.11086035102E+03  0.21348495686E+03  0.00000000000E+00 0.  1.
</event>
<event>
 7    1  0.8653652E-006  0.8107138E+02  0.7561462E-02  0.1326038E+00
         -2   -1    0    0    0  501 -0.00000000000E+00  0.00000000000E+00  0.21844151400E+03  0.21844151400E+03  0.00000000000E+00 0. -1.
          2   -1    0    0  501    0  0.00000000000E+00 -0.00000000000E+00 -0.82876457306E+02  0.82876457306E+02  0.00000000000E+00 0.  1.
         23    2    1    2    0    0 -0.13171138440E+02  0.78530629606E+02  0.85738641403E+02  0.17130073255E+03  0.12510910305E+03 0.  0.
          5    1    3    3  502    0 -0.17816328108E+02  0.48672328483E+02  0.11674641231E+03  0.12780302928E+03  0.41800000000E+01 0. -1.
         -5    1    3    3    0  502  0.46451896683E+01  0.29858301123E+02 -0.31007770903E+02  0.43497703265E+02  0.41800000000E+01 0. -1.
        -11    1    1    2    0    0  0.39782044173E+01 -0.20199318913E+02  0.65716184207E+02  0.68865488176E+02  0.00000000000E+00 0. -1.
         11    1    1    2    0    0  0.91929340226E+01 -0.58331310694E+02 -0.15889768917E+02  0.61151750583E+02  0.00000000000E+00 0.  1.
</event>
<event>
 7    1  0.8653652E-006  0.1410205E+03  0.7561462E-02  0.1211962E+00
          1   -1    0    0  501    0  0.00000000000E+00  0.00000000000E+00  0.12296360155E+03  0.12296360155E+03  0.00000000000E+00 0. -1.
         -1   -1    0    0    0  501 -0.00000000000E+00 -0.00000000000E+00 -0.24437450947E+03  0.24437450947E+03  0.00000000000E+00 0.  1.
         23    2    1    2    0    0 -0.48272906424E+02  0.95284454584E+02 -0.14738887841E+03  0.22086209538E+03  0.12508870018E+03 0.  0.
          5    1    3    3  502    0  0.20834704142E+02 -0.13579601760E+02 -0.31403048939E+00  0.25220259630E+02  0.41800000000E+01 0.  1.
         -5    1    3    3    0  502 -0.69107610567E+02  0.10886405634E+03 -0.14707484793E+03  0.19564183575E+03  0.41800000000E+01 0.  1.
        -11    1    1    2    0    0  0.54208958624E+02 -0.10399025853E+03 -0.12523501825E+01  0.11727810301E+03  0.00000000000E+00 0.  1.
         11    1    1    2    0    0 -0.59360521998E+01  0.87058039475E+01  0.27230320676E+02  0.29197912634E+02  0.00000000000E+00 0. -1.
</event>
<event>
 7    1  0.8653652E-006  0.1748008E+03  0.7561462E-02  0.1172932E+00
         -1   -1    0    0    0  501 -0.00000000000E+00  0.00000000000E+00  0.82682420212E+02  0.82682420212E+02  0.00000000000E+00 0.  1.
          1   -1    0    0  501    0  0.00000000000E+00 -0.00000000000E+00 -0.55030687907E+03  0.55030687907E+03  0.00000000000E+00 0. -1.
         23    2    1    2    0    0  0.10124425972E+03  0.10585024992E+03 -0.81017419413E+02  0.20896451663E+03  0.12509065285E+03 0.  0.
          5    1    3    3  502    0  0.25514596931E+02  0.99779042457E+02 -0.83777499565E+02  0.13282693177E+03  0.41800000000E+01 0. -1.
         -5    1    3    3    0  502  0.75729662789E+02  0.60712074590E+01  0.27600801523E+01  0.76137584861E+02  0.41800000000E+01 0. -1.
        -11    1    1    2    0    0 -0.56736027680E+02 -0.12343116099E+01 -0.90258013427E+02  0.10661617771E+03  0.00000000000E+00 0.  1.
         11    1    1    2    0    0 -0.44508232040E+02 -0.10461593831E+03 -0.29634902602E+03  0.31740860494E+03  0.00000000000E+00 0. -1.
</event>
<event>
 7    1  0.8653652E-006  0.1249716E+03  0.7561462E-02  0.1235114E+00
         -1   -1    0    0    0  501 -0.00000000000E+00  0.00000000000E+00  0.11150963941E+03  0.11150963941E+03  0.00000000000E+00 0.  1.
          1   -1    0    0  501    0  0.00000000000E+00 -0.00000000000E+00 -0.17016338698E+03  0.17016338698E+03  0.00000000000E+00 0. -1.
         23    2    1    2    0    0 -0.34248177777E+02 -0.78081037738E+02 -0.32145238098E+02  0.15475945182E+03  0.12509030922E+03 0.  0.
          5    1    3    3  502    0  0.12147917562E+02 -0.79957530544E+02 -0.59694334124E+02  0.10060648348E+03  0.41800000000E+01 0. -1.
         -5    1    3    3    0  502 -0.46396095339E+02  0.18764928056E+01  0.27549096027E+02  0.54152968338E+02  0.41800000000E+01 0. -1.
        -11    1    1    2    0    0  0.62753178249E+02  0.38711573866E+02 -0.26373963103E+02  0.78307938686E+02  0.00000000000E+00 0.  1.
         11    1    1    2    0    0 -0.28505000472E+02  0.39369463873E+02 -0.13454636619E+00  0.48605635890E+02  0.00000000000E+00 0. -1.
</event>
<event>
 7    1  0.8653652E-006  0.9540309E+02  0.7561462E-02  0.1290271E+00
         -4   -1    0    0    0  501 -0.00000000000E+00  0.00000000000E+00  0.44916959745E+03  0.44916959745E+03  0.00000000000E+00 0.  1.
          4   -1    0    0  501    0  0.00000000000E+00 -0.00000000000E+00 -0.36166649197E+02  0.36166649197E+02  0.00000000000E+00 0. -1.
         23    2    1    2    0    0 -0.36505164675E+02  0.32453430121E+02  0.32178696868E+03  0.34868308871E+03  0.12508873237E+03 0.  0.
          5    1    3    3  502    0 -0.50687344133E+02  0.59962061630E+02  0.30116265519E+03  0.31125724565E+03  0.41800000000E+01 0.  1.
         -5    1    3    3    0  502  0.14182179458E+02 -0.27508631510E+02  0.20624313492E+02  0.37425843060E+02  0.41800000000E+01 0.  1.
        -11    1    1    2    0    0  0.98241963473E+01 -0.48720093167E+02  0.11475379246E+02  0.51008299726E+02  0.00000000000E+00 0. -1.
         11    1    1    2    0    0  0.26680968328E+02  0.16266663046E+02  0.79740600324E+02  0.85644858208E+02  0.00000000000E+00 0.  1.
</event>
<event>
 7    1  0.8653652E-006  0.1192441E+03  0.7561462E-02  0.1244349E+00
          2   -1    0    0  501    0  0.00000000000E+00  0.00000000000E+00  0.41068206311E+03  0.41068206311E+03  0.00000000000E+00 0. -1.
         -2   -1    0    0    0  501 -0.00000000000E+00 -0.00000000000E+00 -0.43560486526E+02  0.43560486526E+02  0.00000000000E+00 0.  1.
         23    2    1    2    0    0 -0.39161192014E+02  0.45864789765E+02  0.11665075336E+03  0.18136091219E+03  0.12508878571E+03 0.  0.
          5    1    3    3  502    0 -0.79269329721E+02  0.28801149484E+01  0.59317146906E+02  0.99135856347E+02  0.41800000000E+01 0.  1.
         -5    1    3    3    0  502  0.40108137707E+02  0.42984674816E+02  0.57333606450E+02  0.82225055840E+02  0.41800000000E+01 0.  1.
        -11    1    1    2    0    0 -0.22886337204E+02  0.12102955866E+00  0.22139563050E+02  0.31842728068E+02  0.00000000000E+00 0.  1.
         11    1    1    2    0    0  0.62047529218E+02 -0.45985819323E+02  0.22833126018E+03  0.24103890938E+03  0.00000000000E+00 0. -1.
</event>
<event>
 6    1  0.8653652E-006  0.2435819E+03  0.7561462E-02  0.1117429E+00
          2   -1    0    0  501    0  0.00000000000E+00  0.00000000000E+00  0.10292264131E+04  0.10292264131E+04  0.00000000000E+00 0. -1.
         -2   -1    0    0    0  501 -0.00000000000E+00 -0.00000000000E+00 -0.87874055946E+02  0.87874055946E+02  0.00000000000E+00 0.  1.
          5    1    1    2  502    0 -0.16691826161E+03 -0.93664596745E+02  0.52955358443E+03  0.56309789018E+03  0.41800000000E+01 0. -1.
         -5    1    1    2    0  502  0.18713890748E+03  0.94758115023E+02  0.10706143696E+03  0.23554128033E+03  0.41800000000E+01 0.  1.
        -11    1    1    2    0    0  0.85901840694E+01  0.37094060141E+02  0.78819469844E+02  0.87534389736E+02  0.00000000000E+00 0.  1.
         11    1    1    2    0    0 -0.28810829936E+02 -0.38187578419E+02  0.22591786593E+03  0.23092690881E+03  0.00000000000E+00 0. -1.
</event>
<event>
 7    1  0.8653652E-006  0.1068818E+03  0.7561462E-02  0.1266456E+00
         -2   -1    0    0    0  501 -0.00000000000E+00  0.00000000000E+00  0.40353723473E+02  0.40353723473E+02  0.00000000000E+00 0.  1.
          2   -1    0    0  501    0  0.00000000000E+00 -0.00000000000E+00 -0.37875972109E+03  0.37875972109E+03  0.00000000000E+00 0. -1.
         23    2    1    2    0    0  0.33116722909E+02  0.41481786255E+02 -0.14635854959E+03  0.19971866538E+03  0.12509701969E+03 0.  0.
          5    1    3    3  502    0 -0.33204870544E+02  0.37440874442E+02 -0.14931214707E+02  0.52390801478E+02  0.41800000000E+01 0.  1.
         -5    1    3    3    0  502  0.66321593454E+02  0.40409118123E+01 -0.13142733488E+03  0.14732786390E+03  0.41800000000E+01 0.  1.
        -11    1    1    2    0    0  0.25101856734E+02  0.64181904174E+00 -0.97250479191E+02  0.10043988673E+03  0.00000000000E+00 0.  1.
         11    1    1    2    0    0 -0.58218579643E+02 -0.42123605296E+02 -0.94796968832E+02  0.11895489245E+03  0.00000000000E+00 0. -1.
</event>
<event>
 7    1  0.8653652E-006  0.8998724E+02  0.7561462E-02  0.1302883E+00
          1   -1    0    0  501    0  0.00000000000E+00  0.00000000000E+00  0.75777226520E+02  0.75777226520E+02  0.00000000000E+00 0. -1.
         -1   -1    0    0    0  501 -0.00000000000E+00 -0.00000000000E+00 -0.21854447488E+03  0.21854447488E+03  0.00000000000E+00 0.  1.
         23    2    1    2    0    0  0.51381298314E+02 -0.14626654929E+02 -0.11634921733E+03  0.17899741989E+03  0.12509579971E+03 0.  0.
          5    1    3    3  502    0 -0.92256611993E+01 -0.52774991572E+02 -0.16816620225E+02  0.56307936170E+02  0.41800000000E+01 0. -1.
         -5    1    3    3    0  502  0.60606959513E+02  0.38148336643E+02 -0.99532597103E+02  0.12268948372E+03  0.41800000000E+01 0. -1.
        -11    1    1    2    0    0 -0.29692648740E+02  0.13938328674E+02 -0.64006504961E+02  0.71921923450E+02  0.00000000000E+00 0.  1.
         11    1    1    2    0    0 -0.21688649573E+02  0.68832625535E+00  0.37588473924E+02  0.43402358062E+02  0.00000000000E+00 0. -1.
</event>
<event>
 7    1  0.8653652E-006  0.1043598E+03  0.7561462E-02  0.1271386E+00
         -1   -1    0    0    0  501 -0.00000000000E+00  0.00000000000E+00  0.20583683314E+02  0.20583683314E+02  0.00000000000E+00 0.  1.
          1   -1    0    0  501    0  0.00000000000E+00 -0.00000000000E+00 -0.61749371215E+03  0.61749371215E+03  0.00000000000E+00 0. -1.
         23    2    1    2    0    0 -0.26208475997E+02  0.77944035986E+01 -0.32234929799E+03  0.34684820020E+03  0.12508783764E+03 0.  0.
          5    1    3    3  502    0 -0.65156116613E+02  0.40081615739E+02 -0.21085917886E+03  0.22434553965E+03  0.41800000000E+01 0. -1.
         -5    1    3    3    0  502  0.38947640616E+02 -0.32287212141E+02 -0.11149011914E+03  0.12250266055E+03  0.41800000000E+01 0. -1.
        -11    1    1    2    0    0  0.30796291019E+02  0.30165786267E+02 -0.63612346427E+02  0.76843456583E+02  0.00000000000E+00 0.  1.
         11    1    1    2    0    0 -0.45878150221E+01 -0.37960189866E+02 -0.21094838442E+03  0.21438573868E+03  0.00000000000E+00 0. -1.
</event>
<event>
 7    1  0.8653652E-006  0.1318229E+03  0.7561462E-02  0.1224776E+00
          2   -1    0    0  501    0  0.00000000000E+00  0.00000000000E+00  0.30304693797E+03  0.30304693797E+03  0.00000000000E+00 0. -1.
         -2   -1    0    0    0  501 -0.00000000000E+00 -0.00000000000E+00 -0.15123237383E+03  0.15123237383E+03  0.00000000000E+00 0.  1.
         23    2    1    2    0    0  0.23670044747E+02  0.11935011454E+03 -0.68865913285E+02  0.18760172358E+03  0.12508865583E+03 0.  0.
          5    1    3    3  502    0  0.19022267998E+02  0.12303955908E+03 -0.64215145330E+01  0.12473687517E+03  0.41800000000E+01 0.  1.
         -5    1    3    3    0  502  0.46477767491E+01 -0.36894445379E+01 -0.62444398752E+02  0.62864848407E+02  0.41800000000E+01 0.  1.
        -11    1    1    2    0    0  0.12306325411E+02 -0.68075853077E+02  0.17775911784E+03  0.19074609143E+03  0.00000000000E+00 0. -1.
         11    1    1    2    0    0 -0.35976370157E+02 -0.51274261465E+02  0.42921359577E+02  0.75931496801E+02  0.00000000000E+00 0.  1.
</event>
<event>
 7    1  0.8653652E-006  0.5475483E+02  0.7561462E-02  0.1421262E+00
         -3   -1    0    0    0  501 -0.00000000000E+00  0.00000000000E+00  0.38700719937E+02  0.38700719937E+02  0.00000000000E+00 0.  1.
          3   -1    0    0  501    0  0.00000000000E+00 -0.00000000000E+00 -0.26085276758E+03  0.26085276758E+03  0.00000000000E+00 0. -1.
         23    2    1    2    0    0  0.47675324055E+00 -0.40777964638E+02 -0.10399477279E+03  0.16770577363E+03  0.12508894454E+03 0.  0.
          5    1    3    3  502    0 -0.13996575311E+02 -0.13707333144E+02  0.26705858329E+02  0.33383684210E+02  0.41800000000E+01 0. -1.
         -5    1    3    3    0  502  0.14473328551E+02 -0.27070631494E+02 -0.13070063112E+03  0.13432208942E+03  0.41800000000E+01 0. -1.
        -11    1    1    2    0    0  0.20329861150E+02  0.25867282335E+02 -0.67371978334E+02  0.74976016261E+02  0.00000000000E+00 0.  1.
         11    1    1    2    0    0 -0.20806614390E+02  0.14910682303E+02 -0.50785296515E+02  0.56871697629E+02  0.00000000000E+00 0. -1.
</event>
<event>
 7    1  0.8653652E-006  0.1343111E+03  0.7561462E-02  0.1221195E+00
          1   -1    0    0  501    0  0.00000000000E+00  0.00000000000E+00  0.86951483572E+02  0.86951483572E+02  0.00000000000E+00 0. -1.
         -1   -1    0    0    0  501 -0.00000000000E+00 -0.00000000000E+00 -0.27141990482E+03  0.27141990482E+03  0.00000000000E+00 0.  1.
         23    2    1    2    0    0  0.90831062794E+02 -0.58736526181E+02 -0.11636750924E+03  0.20221166117E+03  0.12509155539E+03 0.  0.
          5    1    3    3  502    0  0.88658670486E+02 -0.90233304068E+02 -0.66324691933E+02  0.14289452815E+03  0.41800000000E+01 0. -1.
         -5    1    3    3    0  502  0.21723923079E+01  0.31496777887E+02 -0.50042817303E+02  0.59317133016E+02  0.41800000000E+01 0. -1.
        -11    1    1    2    0    0 -0.50634343638E+02  0.44957350921E+02 -0.86502975702E+02  0.10985337939E+03  0.00000000000E+00 0.  1.
         11    1    1    2    0    0 -0.40196719156E+02  0.13779175260E+02  0.18402063693E+02  0.46306347836E+02  0.00000000000E+00 0. -1.
</event>
<event>
 7    1  0.8653652E-006  0.1067933E+03  0.7561462E-02  0.1266626E+00
          4   -1    0    0  501    0  0.00000000000E+00  0.00000000000E+00  0.10647947828E+03  0.10647947828E+03  0.00000000000E+00 0. -1.
         -4   -1    0    0    0  501 -0.00000000000E+00 -0.00000000000E+00 -0.11574480308E+03  0.11574480308E+03  0.00000000000E+00 0.  1.
         23    2    1    2    0    0 -0.99041568838E+00 -0.14701466749E+02 -0.23784741490E+02  0.12818215415E+03  0.12509131332E+03 0.  0.
          5    1    3    3  502    0 -0.57634256390E+02  0.10395862978E+02  0.65418046199E+01  0.59076637382E+02  0.41800000000E+01 0. -1.
         -5    1    3    3    0  502  0.56643840702E+02 -0.25097329727E+02 -0.30326546110E+02  0.69105516768E+02  0.41800000000E+01 0. -1.
        -11    1    1    2    0    0  0.28782993096E+02 -0.29082409997E+02  0.89407113292E+01  0.41882974844E+02  0.00000000000E+00 0.  1.
         11    1    1    2    0    0 -0.27792577407E+02  0.43783876746E+02  0.55787053662E+01  0.52159152365E+02  0.00000000000E+00 0. -1.
</event>
<event>
 7    1  0.8653652E-006  0.6470568E+02  0.7561462E-02  0.1379082E+00
         -4   -1    0    0    0  501 -0.00000000000E+00  0.00000000000E+00  0.10839504380E+03  0.10839504380E+03  0.00000000000E+00 0.  1.
          4   -1    0    0  501    0  0.00000000000E+00 -0.00000000000E+00 -0.11950614015E+03  0.11950614015E+03  0.00000000000E+00 0. -1.
         23    2    1    2    0    0  0.22116605079E+02 -0.26636873540E+02 -0.27563453629E+01  0.12982322262E+03  0.12509118450E+03 0.  0.
          5    1    3    3  502    0  0.41598209816E+01 -0.16199702078E+02  0.60607296043E+02  0.63011516342E+02  0.41800000000E+01 0. -1.
         -5    1    3    3    0  502  0.17956784098E+02 -0.10437171462E+02 -0.63363641406E+02  0.66811706276E+02  0.41800000000E+01 0. -1.
        -11    1    1    2    0    0 -0.46858457105E+02 -0.88878236964E+01  0.13520670291E+02  0.49573349064E+02  0.00000000000E+00 0.  1.
         11    1    1    2    0    0  0.24741852026E+02  0.35524697236E+02 -0.21875421279E+02  0.48504612271E+02  0.00000000000E+00 0. -1.
</event>
<event>
 7    1  0.8653652E-006  0.1508131E+03  0.7561462E-02  0.1199477E+00
         -2   -1    0    0    0  501 -0.00000000000E+00  0.00000000000E+00  0.61386495853E+02  0.61386495853E+02  0.00000000000E+00 0.  1.
          2   -1    0    0  501    0  0.00000000000E+00 -0.00000000000E+00 -0.44246458503E+03  0.44246458503E+03  0.00000000000E+00 0. -1.
         23    2    1    2    0    0  0.76365707735E+02 -0.97875807883E+02 -0.19159691209E+03  0.26032600696E+03  0.12509539596E+03 0.  0.
          5    1    3    3  502    0 -0.69138616336E+01  0.23618410521E+02 -0.11103204479E+02  0.27320035650E+02  0.41800000000E+01 0. -1.
         -5    1    3    3    0  502  0.83279569369E+02 -0.12149421840E+03 -0.18049370761E+03  0.23300597131E+03  0.41800000000E+01 0. -1.
        -11    1    1    2    0    0 -0.71574547810E+02  0.66926785749E+02 -0.18819863514E+03  0.21218114151E+03  0.00000000000E+00 0. -1.
         11    1    1    2    0    0 -0.47911599247E+01  0.30949022134E+02 -0.12825419379E+01  0.31343932400E+02  0.00000000000E+00 0.  1.
</event>
<event>
 7    1  0.8653652E-006  0.9582035E+02  0.7561462E-02  0.1289339E+00
          4   -1    0    0  501    0  0.00000000000E+00  0.00000000000E+00  0.22738209054E+02  0.22738209054E+02  0.00000000000E+00 0. -1.
         -4   -1    0    0    0  501 -0.00000000000E+00 -0.00000000000E+00 -0.88451415517E+03  0.88451415517E+03  0.00000000000E+00 0.  1.
         23    2    1    2    0    0  0.75276537627E+02 -0.18206633213E+02 -0.62963629046E+03  0.64659596165E+03  0.12508573360E+03 0.  0.
          5    1    3    3  502    0 -0.42402141727E+01 -0.24167777691E+02 -0.44169102224E+03  0.44239178612E+03  0.41800000000E+01 0.  1.
         -5    1    3    3    0  502  0.79516751800E+02  0.59611444777E+01 -0.18794526821E+03  0.20420417553E+03  0.41800000000E+01 0.  1.
        -11    1    1    2    0    0 -0.29325645637E+02 -0.12241021344E+02 -0.18622217100E+03  0.18891408912E+03  0.00000000000E+00 0.  1.
         11    1    1    2    0    0 -0.45950891989E+02  0.30447654557E+02 -0.45917484659E+02  0.71742313456E+02  0.00000000000E+00 0. -1.
</event>
<event>
 7    1  0.8653652E-006  0.1449718E+03  0.7561462E-02  0.1206791E+00
         -2   -1    0    0    0  501 -0.00000000000E+00  0.00000000000E+00  0.46447480924E+02  0.46447480924E+02  0.00000000000E+00 0.  1.
          2   -1    0    0  501    0  0.00000000000E+00 -0.00000000000E+00 -0.86307071717E+03  0.86307071717E+03  0.00000000000E+00 0. -1.
         23    2    1    2    0    0  0.24046357681E+02  0.13217720130E+03 -0.19687341567E+03  0.26917573056E+03  0.12508953699E+03 0.  0.
          5    1    3    3  502    0  0.26820649471E+02  0.12900642892E+03 -0.21383441318E+03  0.25120635860E+03  0.41800000000E+01 0.  1.
         -5    1    3    3    0  502 -0.27742917907E+01  0.31707723821E+01  0.16960997506E+02  0.17969371965E+02  0.41800000000E+01 0.  1.
        -11    1    1    2    0    0 -0.46895530100E+02 -0.58146555830E+02 -0.19984852620E+03  0.21335333633E+03  0.00000000000E+00 0.  1.
         11    1    1    2    0    0  0.22849172419E+02 -0.74030645471E+02 -0.41990129437E+03  0.42698913120E+03  0.00000000000E+00 0. -1.
</event>
<event>
 7    1  0.8653652E-006  0.1203661E+03  0.7561462E-02  0.1242494E+00
         -1   -1    0    0    0  501 -0.00000000000E+00  0.00000000000E+00  0.19462319372E+03  0.19462319372E+03  0.00000000000E+00 0.  1.
          1   -1    0    0  501    0  0.00000000000E+00 -0.00000000000E+00 -0.10923746515E+03  0.10923746515E+03  0.00000000000E+00 0. -1.
         23    2    1    2    0    0 -0.82321906022E+02 -0.44089668557E+02  0.85105506115E+02  0.16788453640E+03  0.11055078157E+03 0.  0.
          5    1    3    3  502    0 -0.76201468642E+02  0.20845325985E+02  0.51461988735E+02  0.94376904606E+02  0.41800000000E+01 0. -1.
         -5    1    3    3    0  502 -0.61204373798E+01 -0.64934994541E+02  0.33643517381E+02  0.73507631791E+02  0.41800000000E+01 0.  1.
        -11    1    1    2    0    0  0.30804656161E+02  0.41605331329E+01 -0.46368324055E+02  0.55823457012E+02  0.00000000000E+00 0. -1.
         11    1    1    2    0    0  0.51517249860E+02  0.39929135424E+02  0.46648546514E+02  0.80152665463E+02  0.00000000000E+00 0.  1.
</event>
<event>
 7    1  0.8653652E-006  0.7835332E+02  0.7561462E-02  0.1333791E+00
          1   -1    0    0  501    0  0.00000000000E+00  0.00000000000E+00  0.11956345133E+03  0.11956345133E+03  0.00000000000E+00 0. -1.
         -1   -1    0    0    0  501 -0.00000000000E+00 -0.00000000000E+00 -0.96880988007E+02  0.96880988007E+02  0.00000000000E+00 0.  1.
         23    2    1    2    0    0  0.19454656073E+02 -0.14014246950E+02 -0.81114386451E+01  0.11609363411E+03  0.11330072235E+03 0.  0.
          5    1    3    3  502    0  0.49258245685E+02 -0.37939740464E+02  0.23215606883E+02  0.66499890807E+02  0.41800000000E+01 0. -1.
         -5    1    3    3    0  502 -0.29803589612E+02  0.23925493514E+02 -0.31327045528E+02  0.49593743307E+02  0.41800000000E+01 0.  1.
        -11    1    1    2    0    0  0.67760205673E+01 -0.15224005409E+02  0.52771759183E+02  0.55340250837E+02  0.00000000000E+00 0. -1.
         11    1    1    2    0    0 -0.26230676640E+02  0.29238252359E+02 -0.21977857217E+02  0.45010554383E+02  0.00000000000E+00 0.  1.
</event>
<event>
 6    1  0.8653652E-006  0.1188035E+03  0.7561462E-02  0.1245084E+00
          3   -1    0    0  501    0  0.00000000000E+00  0.00000000000E+00  0.61525059949E+02  0.61525059949E+02  0.00000000000E+00 0. -1.
         -3   -1    0    0    0  501 -0.00000000000E+00 -0.00000000000E+00 -0.38027500509E+03  0.38027500509E+03  0.00000000000E+00 0.  1.
          5    1    1    2  502    0 -0.44324537340E+02  0.63113091400E+02 -0.93050537385E+01  0.77794494288E+02  0.41800000000E+01 0. -1.
         -5    1    1    2    0  502  0.17074689557E+02 -0.86225832471E+02 -0.21159738186E+03  0.22916667213E+03  0.41800000000E+01 0.  1.
        -11    1    1    2    0    0  0.47073334674E+01  0.42426413099E+02 -0.96039998209E+02  0.10509919492E+03  0.00000000000E+00 0. -1.
         11    1    1    2    0    0  0.22542514315E+02 -0.19313672028E+02 -0.18075113396E+01  0.29739703699E+02  0.00000000000E+00 0.  1.
</event>
<event>
 7    1  0.8653652E-006  0.9403957E+02  0.7561462E-02  0.1293354E+00
          1   -1    0    0  501    0  0.00000000000E+00  0.00000000000E+00  0.10524156200E+03  0.10524156200E+03  0.00000000000E+00 0. -1.
         -1   -1    0    0    0  501 -0.00000000000E+00 -0.00000000000E+00 -0.13282285041E+03  0.13282285041E+03  0.00000000000E+00 0.  1.
         23    2    1    2    0    0 -0.10364941993E+02 -0.63426329146E+01 -0.59013459614E+02  0.13884387049E+03  0.12508945177E+03 0.  0.
          5    1    3    3  502    0  0.22377817012E+02 -0.47447437151E+02 -0.67348578873E+02  0.85471220084E+02  0.41800000000E+01 0. -1.
         -5    1    3    3    0  502 -0.32742759005E+02  0.41104804237E+02  0.83351192589E+01  0.53372650409E+02  0.41800000000E+01 0. -1.
        -11    1    1    2    0    0  0.46236602493E+02 -0.38514641139E+00 -0.63699848754E+01  0.46674923194E+02  0.00000000000E+00 0.  1.
         11    1    1    2    0    0 -0.35871660500E+02  0.67277793260E+01  0.37802156082E+02  0.52545618715E+02  0.00000000000E+00 0. -1.
</event>
<event>
 7    1  0.8653652E-006  0.9952515E+02  0.7561462E-02  0.1281298E+00
          2   -1    0    0  501    0  0.00000000000E+00  0.00000000000E+00  0.13438481983E+03  0.13438481983E+03  0.00000000000E+00 0.  1.
         -2   -1    0    0    0  501 -0.00000000000E+00 -0.00000000000E+00 -0.94145656294E+02  0.94145656294E+02  0.00000000000E+00 0. -1.
         23    2    1    2    0    0 -0.11515022533E+02  0.11186732211E+02  0.11501450429E+01  0.12612354962E+03  0.12509231876E+03 0.  0.
          5    1    3    3  502    0  0.49252019639E+02 -0.24502823602E+02 -0.41738233536E+01  0.55326693417E+02  0.41800000000E+01 0.  1.
         -5    1    3    3    0  502 -0.60767042173E+02  0.35689555814E+02  0.53239683965E+01  0.70796856202E+02  0.41800000000E+01 0.  1.
        -11    1    1    2    0    0  0.18603813812E+02 -0.39732420208E+02  0.53881682797E+02  0.69483831536E+02  0.00000000000E+00 0.  1.
         11    1    1    2    0    0 -0.70887912784E+01  0.28545687996E+02 -0.14792664305E+02  0.32923094967E+02  0.00000000000E+00 0. -1.
</event>
<event>
 7    1  0.8653652E-006  0.1067692E+03  0.7561462E-02  0.1266672E+00
         -2   -1    0    0    0  501 -0.00000000000E+00  0.00000000000E+00  0.83625930552E+02  0.83625930552E+02  0.00000000000E+00 0.  1.
          2   -1    0    0  501    0  0.00000000000E+00 -0.00000000000E+00 -0.27237888111E+03  0.27237888111E+03  0.00000000000E+00 0. -1.
         23    2    1    2    0    0  0.33043976085E+02  0.65275742485E+02 -0.13250498243E+02  0.14552059188E+03  0.12509132682E+03 0.  0.
          5    1    3    3  502    0  0.43742239473E+02  0.65398616882E+01  0.44123084265E+02  0.62613674785E+02  0.41800000000E+01 0.  1.
         -5    1    3    3    0  502 -0.10698263387E+02  0.58735880797E+02 -0.57373582508E+02  0.82906917096E+02  0.41800000000E+01 0.  1.
        -11    1    1    2    0    0 -0.55281402651E+02 -0.19938123737E+02 -0.57899067896E+02  0.82497662515E+02  0.00000000000E+00 0.  1.
         11    1    1    2    0    0  0.22237426566E+02 -0.45337618748E+02 -0.11760338442E+03  0.12798655727E+03  0.00000000000E+00 0. -1.
</event>
<event>
 7    1  0.8653652E-006  0.6633211E+02  0.7561462E-02  0.1373030E+00
          2   -1    0    0  501    0  0.00000000000E+00  0.00000000000E+00  0.61966299009E+02  0.61966299009E+02  0.00000000000E+00 0. -1.
         -2   -1    0    0    0  501 -0.00000000000E+00 -0.00000000000E+00 -0.21589366420E+03  0.21589366420E+03  0.00000000000E+00 0.  1.
         23    2    1    2    0    0 -0.12495471210E+02 -0.38489543065E+02 -0.82925342248E+02  0.15543879243E+03  0.12508806530E+03 0.  0.
          5    1    3    3  502    0 -0.28063729918E+02  0.95058620291E+01 -0.98117152963E+02  0.10257866472E+03  0.41800000000E+01 0. -1.
         -5    1    3    3    0  502  0.15568258708E+02 -0.47995405094E+02  0.15191810715E+02  0.52860127716E+02  0.41800000000E+01 0. -1.
        -11    1    1    2    0    0 -0.72862331458E+01  0.29492512348E+02 -0.89102399988E+02  0.94138914173E+02  0.00000000000E+00 0.  1.
         11    1    1    2    0    0  0.19781704356E+02  0.89970307171E+01  0.18100377049E+02  0.28282256598E+02  0.00000000000E+00 0. -1.
</event>
<event>
 7    1  0.8653652E-006  0.9476101E+02  0.7561462E-02  0.1291715E+00
          3   -1    0    0  501    0  0.00000000000E+00  0.00000000000E+00  0.23625154181E+03  0.23625154181E+03  0.00000000000E+00 0. -1.
         -3   -1    0    0    0  501 -0.00000000000E+00 -0.00000000000E+00 -0.50229001727E+02  0.50229001727E+02  0.00000000000E+00 0.  1.
         23    2    1    2    0    0  0.12704727927E+02 -0.35019758579E+00  0.11300423759E+03  0.16905507763E+03  0.12509248103E+03 0.  0.
          5    1    3    3  502    0  0.57882199568E+02  0.26596066190E+01  0.10886660460E+03  0.12339705236E+03  0.41800000000E+01 0.  1.
         -5    1    3    3    0  502 -0.45177471641E+02 -0.30098042048E+01  0.41376329977E+01  0.45658025276E+02  0.41800000000E+01 0.  1.
        -11    1    1    2    0    0 -0.31247359561E+02  0.34839907381E+02  0.60139912222E+02  0.76203842868E+02  0.00000000000E+00 0. -1.
         11    1    1    2    0    0  0.18542631633E+02 -0.34489709795E+02  0.12878390263E+02  0.41221623032E+02  0.00000000000E+00 0.  1.
</event>
<event>
 7    1  0.8653652E-006  0.1796232E+03  0.7561462E-02  0.1168168E+00
         -2   -1    0    0    0  501 -0.00000000000E+00  0.00000000000E+00  0.18332887148E+03  0.18332887148E+03  0.00000000000E+00 0.  1.
          2   -1    0    0  501    0  0.00000000000E+00 -0.00000000000E+00 -0.19530481646E+03  0.19530481646E+03  0.00000000000E+00 0. -1.
         23    2    1    2    0    0  0.14906330270E+03 -0.41102302551E+02  0.22668768794E+01  0.19890206196E+03  0.12509046341E+03 0.  0.
          5    1    3    3  502    0 -0.19095724021E+02  0.69012753133E+01  0.11547529837E+02  0.23729562200E+02  0.41800000000E+01 0. -1.
         -5    1    3    3    0  502  0.16815902672E+03 -0.48003577864E+02 -0.92806529577E+01  0.17517249976E+03  0.41800000000E+01 0. -1.
        -11    1    1    2    0    0 -0.81248168649E+02  0.49681534028E+02 -0.44331657200E+02  0.10504673037E+03  0.00000000000E+00 0. -1.
         11    1    1    2    0    0 -0.67815134046E+02 -0.85792314773E+01  0.30088835349E+02  0.74684895602E+02  0.00000000000E+00 0.  1.
</event>
<event>
 7    1  0.8653652E-006  0.9183678E+02  0.7561462E-02  0.1298464E+00
         -1   -1    0    0    0  501 -0.00000000000E+00  0.00000000000E+00  0.18521795177E+02  0.18521795177E+02  0.00000000000E+00 0.  1.
          1   -1    0    0  501    0  0.00000000000E+00 -0.00000000000E+00 -0.95542674580E+03  0.95542674580E+03  0.00000000000E+00 0. -1.
         23    2    1    2    0    0 -0.64765803323E+02 -0.14157373324E+01 -0.36264385535E+03  0.38904346148E+03  0.12509050926E+03 0.  0.
          5    1    3    3  502    0 -0.40510109089E+02 -0.20251944658E+02 -0.28952781955E+02  0.53916103195E+02  0.41800000000E+01 0. -1.
         -5    1    3    3    0  502 -0.24255694234E+02  0.18836207326E+02 -0.33369107339E+03  0.33512735828E+03  0.41800000000E+01 0. -1.
        -11    1    1    2    0    0  0.79541203561E+02 -0.19207207610E+02 -0.49396093500E+03  0.50069264544E+03  0.00000000000E+00 0. -1.
         11    1    1    2    0    0 -0.14775400238E+02  0.20622944942E+02 -0.80300160276E+02  0.84212434062E+02  0.00000000000E+00 0.  1.
</event>
<event>
 7    1  0.8653652E-006  0.1036825E+03  0.7561462E-02  0.1272737E+00
         -2   -1    0    0    0  501 -0.00000000000E+00  0.00000000000E+00  0.23265849850E+02  0.23265849850E+02  0.00000000000E+00 0.  1.
          2   -1    0    0  501    0  0.00000000000E+00 -0.00000000000E+00 -0.69197450798E+03  0.69197450798E+03  0.00000000000E+00 0. -1.
         23    2    1    2    0    0 -0.21168161255E+02  0.44444258560E+02 -0.25173378361E+03  0.28537862451E+03  0.12509068049E+03 0.  0.
          5    1    3    3  502    0  0.23768719590E+02  0.52750246926E+02 -0.22481216749E+03  0.23217563101E+03  0.41800000000E+01 0. -1.
         -5    1    3    3    0  502 -0.44936880845E+02 -0.83059883657E+01 -0.26921616119E+02  0.53202993499E+02  0.41800000000E+01 0. -1.
        -11    1    1    2    0    0  0.32807361667E+02  0.19705442464E+02 -0.18390044190E+03  0.18784035768E+03  0.00000000000E+00 0.  1.
         11    1    1    2    0    0 -0.11639200413E+02 -0.64149701024E+02 -0.23307443262E+03  0.24202137564E+03  0.00000000000E+00 0. -1.
</event>
<event>
 7    1  0.8653652E-006  0.1079210E+03  0.7561462E-02  0.1264469E+00
         -1   -1    0    0    0  501 -0.00000000000E+00  0.00000000000E+00  0.21639747869E+03  0.21639747869E+03  0.00000000000E+00 0.  1.
          1   -1    0    0  501    0  0.00000000000E+00 -0.00000000000E+00 -0.67364075584E+02  0.67364075584E+02  0.00000000000E+00 0. -1.
         23    2    1    2    0    0 -0.46317166025E+02 -0.25203832615E+02  0.86206747368E+02  0.16080696027E+03  0.12508701824E+03 0.  0.
          5    1    3    3  502    0  0.42572383487E+02 -0.15806560371E+02  0.21741944529E+02  0.50521675927E+02  0.41800000000E+01 0.  1.
         -5    1    3    3    0  502 -0.88889549513E+02 -0.93972722445E+01  0.64464802839E+02  0.11028528435E+03  0.41800000000E+01 0.  1.
        -11    1    1    2    0    0 -0.86887549171E+01  0.24230178148E+02  0.62874894842E+02  0.67940035300E+02  0.00000000000E+00 0.  1.
         11    1    1    2    0    0  0.55005920942E+02  0.97365446756E+00 -0.48239108772E-01  0.55014558698E+02  0.00000000000E+00 0. -1.
</event>
<event>
 7    1  0.8653652E-006  0.6641147E+02  0.7561462E-02  0.1372739E+00
          1   -1    0    0  501    0  0.00000000000E+00  0.00000000000E+00  0.11211750034E+04  0.11211750034E+04  0.00000000000E+00 0. -1.
         -1   -1    0    0    0  501 -0.00000000000E+00 -0.00000000000E+00 -0.10306051301E+02  0.10306051301E+02  0.00000000000E+00 0.  1.
         23    2    1    2    0    0  0.11332482655E+02 -0.66671112388E+01  0.61526312870E+03  0.62798809238E+03  0.12508977218E+03 0.  0.
          5    1    3    3  502    0 -0.10627736093E+02 -0.16259952590E+02  0.59758959441E+03  0.59791983625E+03  0.41800000000E+01 0.  1.
         -5    1    3    3    0  502  0.21960218749E+02  0.95928413513E+01  0.17673534286E+02  0.30068256132E+02  0.41800000000E+01 0.  1.
        -11    1    1    2    0    0 -0.39761254172E+02  0.31619600389E+02  0.26987477167E+03  0.27461454594E+03  0.00000000000E+00 0.  1.
         11    1    1    2    0    0  0.28428771517E+02 -0.24952489150E+02  0.22573105176E+03  0.22887841640E+03  0.00000000000E+00 0. -1.
</event>
<event>
 7    1  0.8653652E-006  0.1552450E+03  0.7561462E-02  0.1194172E+00
          1   -1    0    0  501    0  0.00000000000E+00  0.00000000000E+00  0.70837826492E+02  0.70837826492E+02  0.00000000000E+00 0. -1.
         -1   -1    0    0    0  501 -0.00000000000E+00 -0.00000000000E+00 -0.49951808558E+03  0.49951808558E+03  0.00000000000E+00 0.  1.
         23    2    1    2    0    0 -0.14884085791E+03 -0.11386989464E+02 -0.24105462216E+03  0.30989947281E+03  0.12508832028E+03 0.  0.
          5    1    3    3  502    0 -0.60186156892E+01 -0.11392352221E+02  0.12773823262E+02  0.18618603188E+02  0.41800000000E+01 0.  1.
         -5    1    3    3    0  502 -0.14282224222E+03  0.53627577287E-02 -0.25382844542E+03  0.29128086962E+03  0.41800000000E+01 0.  1.
        -11    1    1    2    0    0  0.11906295882E+03 -0.66463907067E+01 -0.19132790511E+03  0.22544739951E+03  0.00000000000E+00 0.  1.
         11    1    1    2    0    0  0.29777899088E+02  0.18033380170E+02  0.37022681852E+01  0.35009039749E+02  0.00000000000E+00 0. -1.
</event>
<event>
 7    1  0.8653652E-006  0.1022793E+03  0.7561462E-02  0.1275575E+00
         -2   -1    0    0    0  501 -0.00000000000E+00  0.00000000000E+00  0.15021357064E+03  0.15021357064E+03  0.00000000000E+00 0.  1.
          2   -1    0    0  501    0  0.00000000000E+00 -0.00000000000E+00 -0.83337094980E+02  0.83337094980E+02  0.00000000000E+00 0. -1.
         23    2    1    2    0    0 -0.13635080335E+02 -0.20910701161E+02  0.35427007230E+02  0.13239412861E+03  0.12509979860E+03 0.  0.
          5    1    3    3  502    0 -0.41202854436E+02  0.35513549867E+02  0.42367308185E+02  0.69074949444E+02  0.41800000000E+01 0.  1.
         -5    1    3    3    0  502  0.27567774101E+02 -0.56424251028E+02 -0.69403009554E+01  0.63319179166E+02  0.41800000000E+01 0.  1.
        -11    1    1    2    0    0 -0.35368776822E+02  0.62649817383E+01  0.34653600003E+02  0.49910643787E+02  0.00000000000E+00 0.  1.
         11    1    1    2    0    0  0.49003857156E+02  0.14645719422E+02 -0.32041315684E+01  0.51245893228E+02  0.00000000000E+00 0. -1.
</event>
<event>
 7    1  0.8653652E-006  0.8137100E+02  0.7561462E-02  0.1325205E+00
         -4   -1    0    0    0  501 -0.00000000000E+00  0.00000000000E+00  0.33850961479E+03  0.33850961479E+03  0.00000000000E+00 0.  1.
          4   -1    0    0  501    0  0.00000000000E+00 -0.00000000000E+00 -0.50936675709E+02  0.50936675709E+02  0.00000000000E+00 0. -1.
         23    2    1    2    0    0  0.49831468039E+02 -0.45576121862E+02  0.11842431803E+03  0.18501821786E+03  0.12508822386E+03 0.  0.
          5    1    3    3  502    0  0.49896364686E+02 -0.16835209514E+02  0.13947810326E+03  0.14914652251E+03  0.41800000000E+01 0. -1.
         -5    1    3    3    0  502 -0.64896646849E-01 -0.28740912348E+02 -0.21053785237E+02  0.35871695346E+02  0.41800000000E+01 0. -1.
        -11    1    1    2    0    0 -0.27132412882E+02 -0.29579377477E+01  0.14155131728E+03  0.14415856772E+03  0.00000000000E+00 0.  1.
         11    1    1    2    0    0 -0.22699055157E+02  0.48534059610E+02  0.27597303779E+02  0.60269504918E+02  0.00000000000E+00 0. -1.
</event>
<event>
 7    1  0.8653652E-006  0.2094861E+03  0.7561462E-02  0.1141974E+00
          2   -1    0    0  501    0  0.00000000000E+00  0.00000000000E+00  0.15339591342E+03  0.15339591342E+03  0.00000000000E+00 0. -1.
         -2   -1    0    0    0  501 -0.00000000000E+00 -0.00000000000E+00 -0.37104290768E+03  0.37104290768E+03  0.00000000000E+00 0.  1.
         23    2    1    2    0    0 -0.16495335512E+03 -0.95101519926E+02 -0.21504737738E+03  0.31332692655E+03  0.12519776325E+03 0.  0.
          5    1    3    3  502    0 -0.63457858834E+02  0.83279618582E+01 -0.13073771379E+03  0.14562306480E+03  0.41800000000E+01 0.  1.
         -5    1    3    3    0  502 -0.10149549629E+03 -0.10342948178E+03 -0.84309663592E+02  0.16770386175E+03  0.41800000000E+01 0.  1.
        -11    1    1    2    0    0  0.28969936863E+02 -0.17035191561E+02  0.79696840670E+01  0.34539410208E+02  0.00000000000E+00 0. -1.
         11    1    1    2    0    0  0.13598341826E+03  0.11213671149E+03 -0.10569300957E+02  0.17657248434E+03  0.00000000000E+00 0.  1.
</event>
<event>
 7    1  0.8653652E-006  0.9008728E+02  0.7561462E-02  0.1302640E+00
         -1   -1    0    0    0  501 -0.00000000000E+00  0.00000000000E+00  0.34252763091E+03  0.34252763091E+03  0.00000000000E+00 0.  1.
          1   -1    0    0  501    0  0.00000000000E+00 -0.00000000000E+00 -0.50518456457E+02  0.50518456457E+02  0.00000000000E+00 0. -1.
         23    2    1    2    0    0 -0.41172291963E+02  0.73212147033E+01  0.25741681391E+03  0.28923883950E+03  0.12508769875E+03 0.  0.
          5    1    3    3  502    0  0.28226280212E+02 -0.19952953695E+02  0.17325471772E+03  0.17671873944E+03  0.41800000000E+01 0.  1.
         -5    1    3    3    0  502 -0.69398572174E+02  0.27274168398E+02  0.84162096188E+02  0.11252010006E+03  0.41800000000E+01 0.  1.
        -11    1    1    2    0    0  0.24784428724E+02  0.24519071083E+02 -0.18730021913E+02  0.39576084632E+02  0.00000000000E+00 0. -1.
         11    1    1    2    0    0  0.16387863239E+02 -0.31840285787E+02  0.53322382451E+02  0.64231163237E+02  0.00000000000E+00 0.  1.
</event>
<event>
 7    1  0.8653652E-006  0.1103143E+03  0.7561462E-02  0.1259989E+00
          1   -1    0    0  501    0  0.00000000000E+00  0.00000000000E+00  0.33781689207E+03  0.33781689207E+03  0.00000000000E+00 0. -1.
         -1   -1    0    0    0  501 -0.00000000000E+00 -0.00000000000E+00 -0.48953059477E+02  0.48953059477E+02  0.00000000000E+00 0.  1.
         23    2    1    2    0    0 -0.75440161638E+00  0.65612910054E+02  0.15785979493E+03  0.21183219090E+03  0.12509012414E+03 0.  0.
          5    1    3    3  502    0 -0.67964622860E+01  0.90797568711E+02  0.16140132169E+03  0.18535978374E+03  0.41800000000E+01 0.  1.
         -5    1    3    3    0  502  0.60420606696E+01 -0.25184658658E+02 -0.35415267664E+01  0.26472407157E+02  0.41800000000E+01 0.  1.
        -11    1    1    2    0    0 -0.37713990809E+02 -0.47711139953E+02  0.11403825448E+03  0.12924171719E+03  0.00000000000E+00 0.  1.
         11    1    1    2    0    0  0.38468392425E+02 -0.17901770100E+02  0.16965783187E+02  0.45696043457E+02  0.00000000000E+00 0. -1.
</event>
<event>
 7    1  0.8653652E-006  0.1429894E+03  0.7561462E-02  0.1209362E+00
          2   -1    0    0  501    0  0.00000000000E+00  0.00000000000E+00  0.43830526212E+03  0.43830526212E+03  0.00000000000E+00 0. -1.
         -2   -1    0    0    0  501 -0.00000000000E+00 -0.00000000000E+00 -0.66031809037E+02  0.66031809037E+02  0.00000000000E+00 0.  1.
         23    2    1    2    0    0  0.11502108290E+03 -0.20756238152E+01  0.10704435840E+03  0.20084179686E+03  0.12507907488E+03 0.  0.
          5    1    3    3  502    0  0.75404920231E+02 -0.57162991249E+02  0.32943150288E+02  0.10028077141E+03  0.41800000000E+01 0.  1.
         -5    1    3    3    0  502  0.39616162667E+02  0.55087367434E+02  0.74101208112E+02  0.10056102545E+03  0.41800000000E+01 0.  1.
        -11    1    1    2    0    0 -0.32509678790E+02 -0.19612443013E+02  0.18112899364E+02  0.42066664467E+02  0.00000000000E+00 0.  1.
         11    1    1    2    0    0 -0.82511404108E+02  0.21688066829E+02  0.24711619532E+03  0.26142860983E+03  0.00000000000E+00 0. -1.
</event>
<event>
 7    1  0.8653652E-006  0.6256249E+02  0.7561462E-02  0.1387382E+00
          2   -1    0    0  501    0  0.00000000000E+00  0.00000000000E+00  0.28971221129E+02  0.28971221129E+02  0.00000000000E+00 0. -1.
         -2   -1    0    0    0  501 -0.00000000000E+00 -0.00000000000E+00 -0.42615272680E+03  0.42615272680E+03  0.00000000000E+00 0.  1.
         23    2    1    2    0    0  0.77987096412E+00 -0.25748025411E+02 -0.20699950747E+03  0.24321306156E+03  0.12506089799E+03 0.  0.
          5    1    3    3  502    0  0.18983529081E+02 -0.17401969971E+02  0.79640885392E+01  0.27278233841E+02  0.41800000000E+01 0.  1.
         -5    1    3    3    0  502 -0.18203658117E+02 -0.83460554401E+01 -0.21496359601E+03  0.21593482772E+03  0.41800000000E+01 0.  1.
        -11    1    1    2    0    0 -0.27194146844E+02 -0.14206497986E+02 -0.13676888981E+03  0.14016802569E+03  0.00000000000E+00 0.  1.
         11    1    1    2    0    0  0.26414275880E+02  0.39954523397E+02 -0.53413108387E+02  0.71742860674E+02  0.00000000000E+00 0. -1.
</event>
<event>
 7    1  0.8653652E-006  0.1217949E+03  0.7561462E-02  0.1240165E+00
          1   -1    0    0  501    0  0.00000000000E+00  0.00000000000E+00  0.38270084223E+03  0.38270084223E+03  0.00000000000E+00 0. -1.
         -1   -1    0    0    0  501 -0.00000000000E+00 -0.00000000000E+00 -0.60404225410E+02  0.60404225410E+02  0.00000000000E+00 0.  1.
         23    2    1    2    0    0 -0.39929419188E+02 -0.10006981149E+03  0.15589548611E+03  0.22706697687E+03  0.12509070192E+03 0.  0.
          5    1    3    3  502    0 -0.54804146776E+02 -0.64627008684E+02  0.21921156339E+02  0.87625077749E+02  0.41800000000E+01 0. -1.
         -5    1    3    3    0  502  0.14874727588E+02 -0.35442802802E+02  0.13397432978E+03  0.13944189912E+03  0.41800000000E+01 0. -1.
        -11    1    1    2    0    0 -0.12790392825E+02  0.28094256168E+02  0.45180762303E+01  0.31197666436E+02  0.00000000000E+00 0.  1.
         11    1    1    2    0    0  0.52719812013E+02  0.71975555318E+02  0.16188305448E+03  0.18484042433E+03  0.00000000000E+00 0. -1.
</event>
<event>
 7    1  0.8653652E-006  0.1125492E+03  0.7561462E-02  0.1255921E+00
         -1   -1    0    0    0  501 -0.00000000000E+00  0.00000000000E+00  0.19050478972E+03  0.19050478972E+03  0.00000000000E+00 0.  1.
          1   -1    0    0  501    0  0.00000000000E+00 -0.00000000000E+00 -0.77945260078E+02  0.77945260078E+02  0.00000000000E+00 0. -1.
         23    2    1    2    0    0 -0.41620108764E+02  0.34090376479E+02  0.82598522325E+02  0.15926292729E+03  0.12509107441E+03 0.  0.
          5    1    3    3  502    0 -0.85971618991E+02  0.30331161451E+02  0.59474852195E+02  0.10893038635E+03  0.41800000000E+01 0. -1.
         -5    1    3    3    0  502  0.44351510227E+02  0.37592150286E+01  0.23123670130E+02  0.50332540939E+02  0.41800000000E+01 0. -1.
        -11    1    1    2    0    0 -0.60692291439E+01 -0.40554036851E+02  0.42907440962E+02  0.59350770317E+02  0.00000000000E+00 0.  1.
         11    1    1    2    0    0  0.47689337908E+02  0.64636603714E+01 -0.12946433647E+02  0.49836352190E+02  0.00000000000E+00 0. -1.
</event>
<event>
 7    1  0.8653652E-006  0.1058641E+03  0.7561462E-02  0.1268427E+00
          1   -1    0    0  501    0  0.00000000000E+00  0.00000000000E+00  0.16526377922E+03  0.16526377922E+03  0.00000000000E+00 0. -1.
         -1   -1    0    0    0  501 -0.00000000000E+00 -0.00000000000E+00 -0.10402614987E+03  0.10402614987E+03  0.00000000000E+00 0.  1.
         23    2    1    2    0    0 -0.21323071889E+02 -0.29426842479E+02 -0.32725527780E+02  0.13430985707E+03  0.12509022778E+03 0.  0.
          5    1    3    3  502    0 -0.58946282304E+02 -0.45132299116E+02 -0.50241762320E+02  0.89740156574E+02  0.41800000000E+01 0. -1.
         -5    1    3    3    0  502  0.37623210415E+02  0.15705456637E+02  0.17516234541E+02  0.44569700499E+02  0.41800000000E+01 0. -1.
        -11    1    1    2    0    0 -0.42180530409E+01  0.57947937047E+02  0.49716985284E+02  0.76469170292E+02  0.00000000000E+00 0. -1.
         11    1    1    2    0    0  0.25541124930E+02 -0.28521094568E+02  0.44246171841E+02  0.58510901725E+02  0.00000000000E+00 0.  1.
</event>
<event>
 7    1  0.8653652E-006  0.1023218E+03  0.7561462E-02  0.1275488E+00
          1   -1    0    0  501    0  0.00000000000E+00  0.00000000000E+00  0.20819201878E+03  0.20819201878E+03  0.00000000000E+00 0. -1.
         -1   -1    0    0    0  501 -0.00000000000E+00 -0.00000000000E+00 -0.65772161742E+02  0.65772161742E+02  0.00000000000E+00 0.  1.
         23    2    1    2    0    0 -0.10679778732E+02 -0.43634532422E+01  0.26682391371E+02  0.12842479579E+03  0.12509148958E+03 0.  0.
          5    1    3    3  502    0 -0.49325458114E+02 -0.46755595291E+02  0.15432771978E+02  0.69819262099E+02  0.41800000000E+01 0. -1.
         -5    1    3    3    0  502  0.38645679382E+02  0.42392142049E+02  0.11249619393E+02  0.58605533688E+02  0.41800000000E+01 0. -1.
        -11    1    1    2    0    0 -0.20575219313E+01  0.40586371273E+02  0.91536261490E+02  0.10015175534E+03  0.00000000000E+00 0. -1.
         11    1    1    2    0    0  0.12737300663E+02 -0.36222918031E+02  0.24201204182E+02  0.45387629401E+02  0.00000000000E+00 0.  1.
</event>
<event>
 7    1  0.8653652E-006  0.6936037E+02  0.7561462E-02  0.1362282E+00
         -1   -1    0    0    0  501 -0.00000000000E+00  0.00000000000E+00  0.27006020469E+02  0.27006020469E+02  0.00000000000E+00 0.  1.
          1   -1    0    0  501    0  0.00000000000E+00 -0.00000000000E+00 -0.54204549531E+03  0.54204549531E+03  0.00000000000E+00 0. -1.
         23    2    1    2    0    0 -0.18938122311E+02 -0.30712469367E+02 -0.19136438229E+03  0.23144981790E+03  0.12508710222E+03 0.  0.
          5    1    3    3  502    0  0.12076395547E+02 -0.24392578566E+02 -0.19709798208E+03  0.19901237188E+03  0.41800000000E+01 0. -1.
         -5    1    3    3    0  502 -0.31014517859E+02 -0.63198908016E+01  0.57335997910E+01  0.32437446020E+02  0.41800000000E+01 0. -1.
        -11    1    1    2    0    0  0.37444613251E+02  0.43018318604E+02 -0.29901186548E+03  0.30440231684E+03  0.00000000000E+00 0.  1.
         11    1    1    2    0    0 -0.18506490939E+02 -0.12305849237E+02 -0.24663227062E+02  0.33199381040E+02  0.00000000000E+00 0. -1.
</event>
<event>
 7    1  0.8653652E-006  0.1258015E+03  0.7561462E-02  0.1233822E+00
         -2   -1    0    0    0  501 -0.00000000000E+00  0.00000000000E+00  0.32510914057E+03  0.32510914057E+03  0.00000000000E+00 0. -1.
          2   -1    0    0  501    0  0.00000000000E+00 -0.00000000000E+00 -0.66808482656E+02  0.66808482656E+02  0.00000000000E+00 0.  1.
         23    2    1    2    0    0  0.31342765287E+02 -0.93723829913E+02  0.13355013648E+03  0.20796451387E+03  0.12508826822E+03 0.  0.
          5    1    3    3  502    0  0.60873259853E+02 -0.94236118480E+01  0.23254028980E+02  0.65974089529E+02  0.41800000000E+01 0.  1.
         -5    1    3    3    0  502 -0.29530494566E+02 -0.84300218065E+02  0.11029610750E+03  0.14199042435E+03  0.41800000000E+01 0.  1.
        -11    1    1    2    0    0 -0.29302992961E+02  0.61188180877E+02  0.15024255846E+02  0.69486596832E+02  0.00000000000E+00 0.  1.
         11    1    1    2    0    0 -0.20397723260E+01  0.32535649036E+02  0.10972626558E+03  0.11446651252E+03  0.00000000000E+00 0. -1.
</event>
<event>
 7    1  0.8653652E-006  0.1888671E+03  0.7561462E-02  0.1159487E+00
          1   -1    0    0  501    0  0.00000000000E+00  0.00000000000E+00  0.53701530093E+03  0.53701530093E+03  0.00000000000E+00 0. -1.
         -1   -1    0    0    0  501 -0.00000000000E+00 -0.00000000000E+00 -0.21230841342E+03  0.21230841342E+03  0.00000000000E+00 0.  1.
         23    2    1    2    0    0 -0.59907855903E+02 -0.15956319578E+03 -0.13492584310E+03  0.25079771241E+03  0.12508055312E+03 0.  0.
          5    1    3    3  502    0 -0.88435329739E+01 -0.12089926954E+03 -0.25515283875E+02  0.12394895547E+03  0.41800000000E+01 0. -1.
         -5    1    3    3    0  502 -0.51064322929E+02 -0.38663926244E+02 -0.10941055922E+03  0.12684875694E+03  0.41800000000E+01 0. -1.
        -11    1    1    2    0    0  0.49137260879E+02  0.17017861665E+03  0.43415031728E+03  0.46889415647E+03  0.00000000000E+00 0.  1.
         11    1    1    2    0    0  0.10770595024E+02 -0.10615420870E+02  0.25482413326E+02  0.29631845476E+02  0.00000000000E+00 0. -1.
</event>
<event>
 6    1  0.8653652E-006  0.2644849E+03  0.7561462E-02  0.1104478E+00
         -1   -1    0    0    0  501 -0.00000000000E+00  0.00000000000E+00  0.34492197840E+03  0.34492197840E+03  0.00000000000E+00 0.  1.
          1   -1    0    0  501    0  0.00000000000E+00 -0.00000000000E+00 -0.23284257436E+03  0.23284257436E+03  0.00000000000E+00 0. -1.
          5    1    1    2  502    0 -0.21007743432E+03 -0.70850951428E+02  0.77392791760E+02  0.23486060194E+03  0.41800000000E+01 0. -1.
         -5    1    1    2    0  502  0.82587340428E+02 -0.36141344800E+01 -0.51579000026E+02  0.97527413637E+02  0.41800000000E+01 0.  1.
        -11    1    1    2    0    0 -0.13043093404E+02  0.82660305191E+02  0.73785567951E+01  0.84007686793E+02  0.00000000000E+00 0. -1.
         11    1    1    2    0    0  0.14053318729E+03 -0.81952192834E+01  0.78887055511E+02  0.16136885039E+03  0.00000000000E+00 0.  1.
</event>
<event>
 7    1  0.8653652E-006  0.1267083E+03  0.7561462E-02  0.1232423E+00
          1   -1    0    0  501    0  0.00000000000E+00  0.00000000000E+00  0.48318987476E+03  0.48318987476E+03  0.00000000000E+00 0. -1.
         -1   -1    0    0    0  501 -0.00000000000E+00 -0.00000000000E+00 -0.35444382254E+02  0.35444382254E+02  0.00000000000E+00 0.  1.
         23    2    1    2    0    0  0.23541176805E+02 -0.63396397381E+02  0.20695988388E+03  0.25107309184E+03  0.12502805167E+03 0.  0.
          5    1    3    3  502    0  0.27998223531E+02  0.31171673297E+02  0.35104007754E+02  0.54820958560E+02  0.41800000000E+01 0.  1.
         -5    1    3    3    0  502 -0.44570467259E+01 -0.94568070678E+02  0.17185587613E+03  0.19625213328E+03  0.41800000000E+01 0.  1.
        -11    1    1    2    0    0  0.37001461882E+02  0.28114937880E+02  0.10209059203E+03  0.11216972361E+03  0.00000000000E+00 0.  1.
         11    1    1    2    0    0 -0.60542638687E+02  0.35281459500E+02  0.13869501659E+03  0.15539144157E+03  0.00000000000E+00 0. -1.
</event>
<event>
 7    1  0.8653652E-006  0.1179153E+03  0.7561462E-02  0.1246576E+00
          1   -1    0    0  501    0  0.00000000000E+00  0.00000000000E+00  0.18516684829E+03  0.18516684829E+03  0.00000000000E+00 0. -1.
         -1   -1    0    0    0  501 -0.00000000000E+00 -0.00000000000E+00 -0.16173043421E+03  0.16173043421E+03  0.00000000000E+00 0.  1.
         23    2    1    2    0    0 -0.62185958283E+02 -0.25772479118E+02 -0.10409222804E+03  0.17610050197E+03  0.12507949779E+03 0.  0.
          5    1    3    3  502    0 -0.66610556900E+02  0.37151128155E+02 -0.72970628937E+02  0.10563786112E+03  0.41800000000E+01 0.  1.
         -5    1    3    3    0  502  0.44245986167E+01 -0.62923607273E+02 -0.31121599101E+02  0.70462640851E+02  0.41800000000E+01 0.  1.
        -11    1    1    2    0    0  0.16843957676E+02  0.44187928597E+02  0.17585367288E+02  0.50453315913E+02  0.00000000000E+00 0.  1.
         11    1    1    2    0    0  0.45342000607E+02 -0.18415449479E+02  0.10994327483E+03  0.12034346463E+03  0.00000000000E+00 0. -1.
</event>
<event>
 7    1  0.8653652E-006  0.1244080E+03  0.7561462E-02  0.1235997E+00
          2   -1    0    0  501    0  0.00000000000E+00  0.00000000000E+00  0.10544851555E+03  0.10544851555E+03  0.00000000000E+00 0. -1.
         -2   -1    0    0    0  501 -0.00000000000E+00 -0.00000000000E+00 -0.16534243480E+03  0.16534243480E+03  0.00000000000E+00 0.  1.
         23    2    1    2    0    0  0.55162149951E+02  0.36258476099E+02 -0.72556949780E+02  0.15896246538E+03  0.12508802726E+03 0.  0.
          5    1    3    3  502    0 -0.20526467803E+02 -0.30752086719E+02 -0.34872342049E+02  0.50995875892E+02  0.41800000000E+01 0. -1.
         -5    1    3    3    0  502  0.75688617754E+02  0.67010562818E+02 -0.37684607731E+02  0.10796658949E+03  0.41800000000E+01 0. -1.
        -11    1    1    2    0    0 -0.32493679021E+02 -0.65686592504E+02  0.25442349792E+01  0.73328307922E+02  0.00000000000E+00 0. -1.
         11    1    1    2    0    0 -0.22668470929E+02  0.29428116405E+02  0.10118795546E+02  0.38500177048E+02  0.00000000000E+00 0.  1.
</event>
<event>
 7    1  0.8653652E-006  0.1094378E+03  0.7561462E-02  0.1261615E+00
          1   -1    0    0  501    0  0.00000000000E+00  0.00000000000E+00  0.10821103060E+03  0.10821103060E+03  0.00000000000E+00 0. -1.
         -1   -1    0    0    0  501 -0.00000000000E+00 -0.00000000000E+00 -0.15035992253E+03  0.15035992253E+03  0.00000000000E+00 0.  1.
         23    2    1    2    0    0  0.27899855465E+02 -0.45681065294E+02 -0.63444973700E+02  0.15013461187E+03  0.12509986145E+03 0.  0.
          5    1    3    3  502    0 -0.39203775655E+02 -0.55531331661E+02 -0.30642198191E+02  0.74679860281E+02  0.41800000000E+01 0. -1.
         -5    1    3    3    0  502  0.67103631120E+02  0.98502663672E+01 -0.32802775508E+02  0.75454751594E+02  0.41800000000E+01 0. -1.
        -11    1    1    2    0    0 -0.18907823742E+02 -0.13326038332E+02  0.39723807959E+02  0.45968141305E+02  0.00000000000E+00 0. -1.
         11    1    1    2    0    0 -0.89920317226E+01  0.59007103626E+02 -0.18427726190E+02  0.62468199953E+02  0.00000000000E+00 0.  1.
</event>
<event>
 7    1  0.8653652E-006  0.1261638E+03  0.7561462E-02  0.1233262E+00
          2   -1    0    0  501    0  0.00000000000E+00  0.00000000000E+00  0.12512163513E+03  0.12512163513E+03  0.00000000000E+00 0. -1.
         -2   -1    0    0    0  501 -0.00000000000E+00 -0.00000000000E+00 -0.19287700194E+03  0.19287700194E+03  0.00000000000E+00 0.  1.
         23    2    1    2    0    0 -0.86772891598E+02  0.40355971240E+02 -0.94276345477E+02  0.18354921780E+03  0.12507656418E+03 0.  0.
          5    1    3    3  502    0 -0.75772243252E+01  0.54616719700E+02 -0.86408646162E+02  0.10258814225E+03  0.41800000000E+01 0. -1.
         -5    1    3    3    0  502 -0.79195667273E+02 -0.14260748460E+02 -0.78676993145E+01  0.80961075549E+02  0.41800000000E+01 0. -1.
        -11    1    1    2    0    0  0.12133166512E+02  0.17999810453E+02 -0.19445357853E+02  0.29143247039E+02  0.00000000000E+00 0.  1.
         11    1    1    2    0    0  0.74639725086E+02 -0.58355781692E+02  0.45966336514E+02  0.10530617223E+03  0.00000000000E+00 0. -1.
</event>
<event>
 7    1  0.8653652E-006  0.1141023E+03  0.7561462E-02  0.1253156E+00
         -1   -1    0    0    0  501 -0.00000000000E+00  0.00000000000E+00  0.75062390912E+02  0.75062390912E+02  0.00000000000E+00 0.  1.
          1   -1    0    0  501    0  0.00000000000E+00 -0.00000000000E+00 -0.40168931592E+03  0.40168931592E+03  0.00000000000E+00 0. -1.
         23    2    1    2    0    0  0.79600300456E+02 -0.51370798379E+02 -0.41064568215E+02  0.16219930680E+03  0.12508856705E+03 0.  0.
          5    1    3    3  502    0  0.52468328104E+01 -0.52719423093E+02 -0.65004148709E+02  0.83963555041E+02  0.41800000000E+01 0. -1.
         -5    1    3    3    0  502  0.74353467646E+02  0.13486247134E+01  0.23939580495E+02  0.78235751762E+02  0.41800000000E+01 0. -1.
        -11    1    1    2    0    0 -0.50528790208E+02  0.12526026340E+02 -0.24741643231E+03  0.25283384060E+03  0.00000000000E+00 0. -1.
         11    1    1    2    0    0 -0.29071510248E+02  0.38844772040E+02 -0.38145924477E+02  0.61718559422E+02  0.00000000000E+00 0.  1.
</event>
<event>
 7    1  0.8653652E-006  0.1323839E+03  0.7561462E-02  0.1223961E+00
          1   -1    0    0  501    0  0.00000000000E+00  0.00000000000E+00  0.18924198734E+03  0.18924198734E+03  0.00000000000E+00 0. -1.
         -1   -1    0    0    0  501 -0.00000000000E+00 -0.00000000000E+00 -0.15277339896E+03  0.15277339896E+03  0.00000000000E+00 0.  1.
         23    2    1    2    0    0 -0.86707732832E+02  0.18288350232E+02 -0.79104827296E+02  0.17250442811E+03  0.12509000491E+03 0.  0.
          5    1    3    3  502    0  0.12371500882E+02 -0.37011088322E+02 -0.14317382189E+02  0.41777201026E+02  0.41800000000E+01 0.  1.
         -5    1    3    3    0  502 -0.99079233714E+02  0.55299438553E+02 -0.64787445107E+02  0.13072722708E+03  0.41800000000E+01 0.  1.
        -11    1    1    2    0    0  0.25270303667E+02 -0.39575960147E+02  0.86207733939E+02  0.98166278629E+02  0.00000000000E+00 0. -1.
         11    1    1    2    0    0  0.61437429165E+02  0.21287609915E+02  0.29365681733E+02  0.71344679563E+02  0.00000000000E+00 0.  1.
</event>
<event>
 7    1  0.8653652E-006  0.1320997E+03  0.7561462E-02  0.1224373E+00
         -1   -1    0    0    0  501 -0.00000000000E+00  0.00000000000E+00  0.82401606240E+02  0.82401606240E+02  0.00000000000E+00 0.  1.
          1   -1    0    0  501    0  0.00000000000E+00 -0.00000000000E+00 -0.30320059721E+03  0.30320059721E+03  0.00000000000E+00 0. -1.
         23    2    1    2    0    0 -0.14490025481E+02  0.11381225512E+03 -0.13102758332E+03  0.21443231214E+03  0.12509915525E+03 0.  0.
          5    1    3    3  502    0 -0.36405294862E+02  0.78271043049E+02 -0.10805803098E+02  0.87097298779E+02  0.41800000000E+01 0. -1.
         -5    1    3    3    0  502  0.21915269381E+02  0.35541212075E+02 -0.12022178023E+03  0.12733501337E+03  0.41800000000E+01 0. -1.
        -11    1    1    2    0    0 -0.24291584916E+02 -0.12476196621E+02  0.42011846477E+01  0.27629450453E+02  0.00000000000E+00 0.  1.
         11    1    1    2    0    0  0.38781610398E+02 -0.10133605850E+03 -0.93972592292E+02  0.14354044085E+03  0.00000000000E+00 0. -1.
</event>
<event>
 7    1  0.8653652E-006  0.2158901E+03  0.7561462E-02  0.1136985E+00
         -1   -1    0    0    0  501 -0.00000000000E+00  0.00000000000E+00  0.12851198863E+03  0.12851198863E+03  0.00000000000E+00 0. -1.
          1   -1    0    0  501    0  0.00000000000E+00 -0.00000000000E+00 -0.40503922391E+03  0.40503922391E+03  0.00000000000E+00 0.  1.
         23    2    1    2    0    0  0.18489597518E+03  0.74900612143E+02 -0.12837514234E+03  0.26818629994E+03  0.12508833266E+03 0.  0.
          5    1    3    3  502    0  0.64362770069E+02 -0.26236915262E+02 -0.74125144519E+02  0.10170030159E+03  0.41800000000E+01 0. -1.
         -5    1    3    3    0  502  0.12053320511E+03  0.10113752741E+03 -0.54249997821E+02  0.16648599835E+03  0.41800000000E+01 0. -1.
        -11    1    1    2    0    0 -0.16835613655E+03 -0.51428040197E+02 -0.83939221234E+02  0.19502416489E+03  0.00000000000E+00 0. -1.
         11    1    1    2    0    0 -0.16539838629E+02 -0.23472571946E+02 -0.64212871700E+02  0.70340747704E+02  0.00000000000E+00 0.  1.
</event>
<event>
 7    1  0.8653652E-006  0.2652164E+03  0.7561462E-02  0.1104049E+00
         -3   -1    0    0    0  501 -0.00000000000E+00  0.00000000000E+00  0.94058779238E+02  0.94058779238E+02  0.00000000000E+00 0.  1.
          3   -1    0    0  501    0  0.00000000000E+00 -0.00000000000E+00 -0.78740266545E+03  0.78740266545E+03  0.00000000000E+00 0. -1.
         23    2    1    2    0    0  0.32155848099E+02 -0.24054558269E+03 -0.26692613267E+03  0.38182022920E+03  0.12506378853E+03 0.  0.
          5    1    3    3  502    0  0.68515932385E+02 -0.76596601230E+02 -0.12524077935E+03  0.16206232605E+03  0.41800000000E+01 0.  1.
         -5    1    3    3    0  502 -0.36360084286E+02 -0.16394898146E+03 -0.14168535332E+03  0.21975790315E+03  0.41800000000E+01 0.  1.
        -11    1    1    2    0    0 -0.59942805188E+02  0.10216753188E+03 -0.21427861017E+03  0.24484008503E+03  0.00000000000E+00 0. -1.
         11    1    1    2    0    0  0.27786957089E+02  0.13837805081E+03 -0.21213914337E+03  0.25480113046E+03  0.00000000000E+00 0.  1.
</event>
<event>
 7    1  0.8653652E-006  0.1060069E+03  0.7561462E-02  0.1268148E+00
         -1   -1    0    0    0  501 -0.00000000000E+00  0.00000000000E+00  0.29692016618E+02  0.29692016618E+02  0.00000000000E+00 0.  1.
          1   -1    0    0  501    0  0.00000000000E+00 -0.00000000000E+00 -0.47476740436E+03  0.47476740436E+03  0.00000000000E+00 0. -1.
         23    2    1    2    0    0  0.27119657617E+02 -0.15667153263E+02 -0.17502208641E+03  0.21739526191E+03  0.12508810354E+03 0.  0.
          5    1    3    3  502    0  0.57547238578E+02 -0.44592471007E+02 -0.15370444416E+03  0.17012554686E+03  0.41800000000E+01 0.  1.
         -5    1    3    3    0  502 -0.30427580961E+02  0.28925317744E+02 -0.21317642247E+02  0.47269715048E+02  0.41800000000E+01 0.  1.
        -11    1    1    2    0    0 -0.26414339604E+02  0.53181873548E+02 -0.15179708567E+03  0.16299811112E+03  0.00000000000E+00 0. -1.
         11    1    1    2    0    0 -0.70531801314E+00 -0.37514720285E+02 -0.11825621567E+03  0.12406604796E+03  0.00000000000E+00 0.  1.
</event>
<event>
 7    1  0.8653652E-006  0.1409287E+03  0.7561462E-02  0.1212085E+00
         -2   -1    0    0    0  501 -0.00000000000E+00  0.00000000000E+00  0.32357554898E+03  0.32357554898E+03  0.00000000000E+00 0.  1.
          2   -1    0    0  501    0  0.00000000000E+00 -0.00000000000E+00 -0.91698774656E+02  0.91698774656E+02  0.00000000000E+00 0. -1.
         23    2    1    2    0    0 -0.10524376935E+03 -0.17996470247E+02  0.22063568761E+03  0.27518415169E+03  0.12508431861E+03 0.  0.
          5    1    3    3  502    0 -0.64357961970E+02  0.36389057749E+02  0.44682829701E+02  0.86487793722E+02  0.41800000000E+01 0.  1.
         -5    1    3    3    0  502 -0.40885807380E+02 -0.54385527995E+02  0.17595285791E+03  0.18869635796E+03  0.41800000000E+01 0.  1.
        -11    1    1    2    0    0  0.14038681552E+01 -0.26592500093E+02  0.19968146018E+01  0.26704291332E+02  0.00000000000E+00 0.  1.
         11    1    1    2    0    0  0.10383990119E+03  0.44588970340E+02  0.92442721037E+01  0.11338588062E+03  0.00000000000E+00 0. -1.
</event>
<event>
 7    1  0.8653652E-006  0.1199251E+03  0.7561462E-02  0.1243221E+00
         -4   -1    0    0    0  501 -0.00000000000E+00  0.00000000000E+00  0.10008266168E+03  0.10008266168E+03  0.00000000000E+00 0. -1.
          4   -1    0    0  501    0  0.00000000000E+00 -0.00000000000E+00 -0.15992298978E+03  0.15992298978E+03  0.00000000000E+00 0.  1.
         23    2    1    2    0    0  0.61070393468E+02 -0.77326494557E+01 -0.14393236264E+02  0.14015608172E+03  0.12508866922E+03 0.  0.
          5    1    3    3  502    0  0.59983836338E+02  0.49964482235E+02 -0.23387898850E+02  0.81602550937E+02  0.41800000000E+01 0.  1.
         -5    1    3    3    0  502  0.10865571300E+01 -0.57697131691E+02  0.89946625861E+01  0.58553530780E+02  0.41800000000E+01 0.  1.
        -11    1    1    2    0    0 -0.16590207283E+01 -0.32190554276E+02 -0.34882534411E+02  0.47495003330E+02  0.00000000000E+00 0.  1.
         11    1    1    2    0    0 -0.59411372739E+02  0.39923203732E+02 -0.10564557421E+02  0.72354566411E+02  0.00000000000E+00 0. -1.
</event>
<event>
 7    1  0.8653652E-006  0.1017265E+03  0.7561462E-02  0.1276707E+00
          1   -1    0    0  501    0  0.00000000000E+00  0.00000000000E+00  0.61859463546E+03  0.61859463546E+03  0.00000000000E+00 0. -1.
         -1   -1    0    0    0  501 -0.00000000000E+00 -0.00000000000E+00 -0.23658319208E+02  0.23658319208E+02  0.00000000000E+00 0.  1.
         23    2    1    2    0    0 -0.18409302293E+01 -0.36986880590E+02  0.23124547701E+03  0.26550593044E+03  0.12509000800E+03 0.  0.
          5    1    3    3  502    0 -0.82936774275E+01  0.34993004603E+02  0.18247750633E+02  0.40543165386E+02  0.41800000000E+01 0.  1.
         -5    1    3    3    0  502  0.64527471982E+01 -0.71979885193E+02  0.21299772637E+03  0.22496276505E+03  0.41800000000E+01 0.  1.
        -11    1    1    2    0    0 -0.35374323746E+02 -0.82077256991E+01  0.19045007509E+03  0.19388125398E+03  0.00000000000E+00 0. -1.
         11    1    1    2    0    0  0.37215253975E+02  0.45194606290E+02  0.17324076416E+03  0.18286577026E+03  0.00000000000E+00 0.  1.
</event>
<event>
 7    1  0.8653652E-006  0.2574065E+03  0.7561462E-02  0.1108712E+00
          2   -1    0    0  501    0  0.00000000000E+00  0.00000000000E+00  0.26182207621E+03  0.26182207621E+03  0.00000000000E+00 0. -1.
         -2   -1    0    0    0  501 -0.00000000000E+00 -0.00000000000E+00 -0.26430213857E+03  0.26430213857E+03  0.00000000000E+00 0.  1.
         23    2    1    2    0    0 -0.39054829730E+02 -0.23420453051E+03 -0.38190987240E+02  0.27107629267E+03  0.12508702212E+03 0.  0.
          5    1    3    3  502    0 -0.17912442424E+02 -0.24245220837E+03 -0.44423098845E+02  0.24717364959E+03  0.41800000000E+01 0. -1.
         -5    1    3    3    0  502 -0.21142387306E+02  0.82476778624E+01  0.62321116042E+01  0.23902643079E+02  0.41800000000E+01 0. -1.
        -11    1    1    2    0    0 -0.18821004851E+02  0.10952752595E+03 -0.63133491375E+01  0.11131202784E+03  0.00000000000E+00 0. -1.
         11    1    1    2    0    0  0.57875834581E+02  0.12467700456E+03  0.42024274019E+02  0.14373589427E+03  0.00000000000E+00 0.  1.
</event>
<event>
 7    1  0.8653652E-006  0.1027246E+03  0.7561462E-02  0.1274669E+00
         -3   -1    0    0    0  501 -0.00000000000E+00  0.00000000000E+00  0.23530860033E+03  0.23530860033E+03  0.00000000000E+00 0.  1.
          3   -1    0    0  501    0  0.00000000000E+00 -0.00000000000E+00 -0.61147829257E+02  0.61147829257E+02  0.00000000000E+00 0. -1.
         23    2    1    2    0    0 -0.18715731613E+02  0.64472975572E+02  0.13351953375E+03  0.19489029338E+03  0.12509083648E+03 0.  0.
          5    1    3    3  502    0 -0.52703572442E+02  0.59421543375E+02  0.13870356429E+03  0.15988976675E+03  0.41800000000E+01 0. -1.
         -5    1    3    3    0  502  0.33987840830E+02  0.50514321972E+01 -0.51840305378E+01  0.35000526626E+02  0.41800000000E+01 0. -1.
        -11    1    1    2    0    0  0.40256417136E+02 -0.53978725685E+02  0.20858008750E+02  0.70493534996E+02  0.00000000000E+00 0.  1.
         11    1    1    2    0    0 -0.21540685523E+02 -0.10494249887E+02  0.19783228575E+02  0.31072601216E+02  0.00000000000E+00 0. -1.
</event>
<event>
 7    1  0.8653652E-006  0.1107768E+03  0.7561462E-02  0.1259138E+00
          1   -1    0    0  501    0  0.00000000000E+00  0.00000000000E+00  0.25241774308E+02  0.25241774308E+02  0.00000000000E+00 0. -1.
         -1   -1    0    0    0  501 -0.00000000000E+00 -0.00000000000E+00 -0.79714468250E+03  0.79714468250E+03  0.00000000000E+00 0.  1.
         23    2    1    2    0    0 -0.20505851242E+02  0.86072654938E+02 -0.48651506267E+03  0.51007378767E+03  0.12509744521E+03 0.  0.
          5    1    3    3  502    0 -0.46602221722E+02  0.55165292322E+02 -0.11181223397E+03  0.13317065973E+03  0.41800000000E+01 0. -1.
         -5    1    3    3    0  502  0.26096370480E+02  0.30907362616E+02 -0.37470282870E+03  0.37690312795E+03  0.41800000000E+01 0. -1.
        -11    1    1    2    0    0 -0.22053463517E+02 -0.41039467068E+02 -0.47684972541E+02  0.66666706207E+02  0.00000000000E+00 0.  1.
         11    1    1    2    0    0  0.42559314759E+02 -0.45033187870E+02 -0.23770287297E+03  0.24564596293E+03  0.00000000000E+00 0. -1.
</event>
<event>
 7    1  0.8653652E-006  0.1482747E+03  0.7561462E-02  0.1202609E+00
          2   -1    0    0  501    0  0.00000000000E+00  0.00000000000E+00  0.43890202589E+03  0.43890202589E+03  0.00000000000E+00 0. -1.
         -2   -1    0    0    0  501 -0.00000000000E+00 -0.00000000000E+00 -0.64401042398E+02  0.64401042398E+02  0.00000000000E+00 0.  1.
         23    2    1    2    0    0  0.76503633629E+02 -0.95854863165E+02  0.26780314944E+03  0.31994287291E+03  0.12491578892E+03 0.  0.
          5    1    3    3  502    0  0.20189178849E+02 -0.10934215133E+03  0.13459676306E+03  0.17463410327E+03  0.41800000000E+01 0.  1.
         -5    1    3    3    0  502  0.56314454780E+02  0.13487288166E+02  0.13320638638E+03  0.14530876963E+03  0.41800000000E+01 0.  1.
        -11    1    1    2    0    0 -0.72896258426E+02  0.69820053749E+02  0.34736163226E+02  0.10674879594E+03  0.00000000000E+00 0.  1.
         11    1    1    2    0    0 -0.36073752029E+01  0.26034809416E+02  0.71961670828E+02  0.76611399449E+02  0.00000000000E+00 0. -1.
</event>
<event>
 7    1  0.8653652E-006  0.1284794E+03  0.7561462E-02  0.1229730E+00
          1   -1    0    0  501    0  0.00000000000E+00  0.00000000000E+00  0.13372965760E+03  0.13372965760E+03  0.00000000000E+00 0. -1.
         -1   -1    0    0    0  501 -0.00000000000E+00 -0.00000000000E+00 -0.15840220592E+03  0.15840220592E+03  0.00000000000E+00 0.  1.
         23    2    1    2    0    0  0.41226356290E+02  0.82598302271E+02 -0.42061054763E+02  0.16105717925E+03  0.12509272828E+03 0.  0.
          5    1    3    3  502    0  0.39424783649E+02 -0.21223729342E+02 -0.34837199256E+02  0.56884647357E+02  0.41800000000E+01 0. -1.
         -5    1    3    3    0  502  0.18015726412E+01  0.10382203161E+03 -0.72238555071E+01  0.10417253189E+03  0.41800000000E+01 0. -1.
        -11    1    1    2    0    0 -0.14048620855E+02 -0.79479686025E+02 -0.21501786768E+02  0.83526708739E+02  0.00000000000E+00 0.  1.
         11    1    1    2    0    0 -0.27177735435E+02 -0.31186162458E+01  0.38890293210E+02  0.47547975526E+02  0.00000000000E+00 0. -1.
</event>
<event>
 7    1  0.8653652E-006  0.1136093E+03  0.7561462E-02  0.1254028E+00
         -2   -1    0    0    0  501 -0.00000000000E+00  0.00000000000E+00  0.27892478638E+02  0.27892478638E+02  0.00000000000E+00 0.  1.
          2   -1    0    0  501    0  0.00000000000E+00 -0.00000000000E+00 -0.83115331302E+03  0.83115331302E+03  0.00000000000E+00 0. -1.
         23    2    1    2    0    0  0.79022801104E+01 -0.81167001885E+02 -0.23871487776E+03  0.28157057629E+03  0.12508664336E+03 0.  0.
          5    1    3    3  502    0 -0.20245405402E+02 -0.76838489132E+02 -0.57719557109E+02  0.98300811415E+02  0.41800000000E+01 0. -1.
         -5    1    3    3    0  502  0.28147685512E+02 -0.43285127528E+01 -0.18099532065E+03  0.18326976488E+03  0.41800000000E+01 0. -1.
        -11    1    1    2    0    0 -0.46498081604E+02  0.32404442810E+02 -0.32964621660E+03  0.33448280617E+03  0.00000000000E+00 0.  1.
         11    1    1    2    0    0  0.38595801494E+02  0.48762559075E+02 -0.23489974003E+03  0.24299240919E+03  0.00000000000E+00 0. -1.
</event>
<event>
 7    1  0.8653652E-006  0.1273526E+03  0.7561462E-02  0.1231438E+00
         -2   -1    0    0    0  501 -0.00000000000E+00  0.00000000000E+00  0.90413019920E+02  0.90413019920E+02  0.00000000000E+00 0.  1.
          2   -1    0    0  501    0  0.00000000000E+00 -0.00000000000E+00 -0.56715947431E+03  0.56715947431E+03  0.00000000000E+00 0. -1.
         23    2    1    2    0    0  0.40281188036E+01 -0.11676530187E+03 -0.14180978809E+02  0.17175243448E+03  0.12508971632E+03 0.  0.
          5    1    3    3  502    0  0.21994344409E+02 -0.11157720700E+03 -0.55197233166E+02  0.12648095215E+03  0.41800000000E+01 0. -1.
         -5    1    3    3    0  502 -0.17966225605E+02 -0.51880948689E+01  0.41016254357E+02  0.45271482330E+02  0.41800000000E+01 0. -1.
        -11    1    1    2    0    0 -0.18663743952E+02  0.49462531715E+02 -0.72543431491E+02  0.89763170813E+02  0.00000000000E+00 0.  1.
         11    1    1    2    0    0  0.14635625149E+02  0.67302770157E+02 -0.39002204409E+03  0.39605688893E+03  0.00000000000E+00 0. -1.
</event>
<event>
 7    1  0.8653652E-006  0.1140372E+03  0.7561462E-02  0.1253271E+00
          2   -1    0    0  501    0  0.00000000000E+00  0.00000000000E+00  0.37514529912E+03  0.37514529912E+03  0.00000000000E+00 0.  1.
         -2   -1    0    0    0  501 -0.00000000000E+00 -0.00000000000E+00 -0.38780946832E+02  0.38780946832E+02  0.00000000000E+00 0. -1.
         23    2    1    2    0    0 -0.66490830160E+00  0.52004981379E+02  0.16735169981E+03  0.21531264528E+03  0.12509190060E+03 0.  0.
          5    1    3    3  502    0 -0.56600488689E+02 -0.31038283903E+01  0.70185820226E+02  0.90314842807E+02  0.41800000000E+01 0. -1.
         -5    1    3    3    0  502  0.55935580388E+02  0.55108809769E+02  0.97165879586E+02  0.12499780247E+03  0.41800000000E+01 0. -1.
        -11    1    1    2    0    0 -0.66584921513E+01  0.19560208732E+02  0.78132637811E+01  0.22090368360E+02  0.00000000000E+00 0. -1.
         11    1    1    2    0    0  0.73234004529E+01 -0.71565190111E+02  0.16119938869E+03  0.17652323231E+03  0.00000000000E+00 0.  1.
</event>
<event>
 7    1  0.8653652E-006  0.3005920E+03  0.7561462E-02  0.1084945E+00
         -2   -1    0    0    0  501 -0.00000000000E+00  0.00000000000E+00  0.40600491389E+02  0.40600491389E+02  0.00000000000E+00 0.  1.
          2   -1    0    0  501    0  0.00000000000E+00 -0.00000000000E+00 -0.23912756649E+04  0.23912756649E+04  0.00000000000E+00 0. -1.
         23    2    1    2    0    0 -0.48042421753E+02  0.28777286546E+03 -0.12220128852E+04  0.12625704925E+04  0.12508980968E+03 0.  0.
          5    1    3    3  502    0 -0.21021054325E+02  0.20129429313E+02 -0.31846546846E+03  0.31981995818E+03  0.41800000000E+01 0. -1.
         -5    1    3    3    0  502 -0.27021367428E+02  0.26764343615E+03 -0.90354741677E+03  0.94275053432E+03  0.41800000000E+01 0. -1.
        -11    1    1    2    0    0  0.52787875521E+02 -0.85953009524E+02 -0.30418005482E+03  0.32046838440E+03  0.00000000000E+00 0. -1.
         11    1    1    2    0    0 -0.47454537685E+01 -0.20181985594E+03 -0.82448223342E+03  0.84883727935E+03  0.00000000000E+00 0.  1.
</event>
<event>
 6    1  0.8653652E-006  0.2560208E+03  0.7561462E-02  0.1109558E+00
          4   -1    0    0  501    0  0.00000000000E+00  0.00000000000E+00  0.38607927637E+03  0.38607927637E+03  0.00000000000E+00 0. -1.
         -4   -1    0    0    0  501 -0.00000000000E+00 -0.00000000000E+00 -0.65943644367E+03  0.65943644367E+03  0.00000000000E+00 0.  1.
          5    1    1    2  502    0 -0.19896012740E+03 -0.76671176179E+02 -0.53270490566E+03  0.57380797351E+03  0.41800000000E+01 0. -1.
         -5    1    1    2    0  502  0.12882903613E+03  0.13728312118E+03  0.87275372376E+01  0.18851317784E+03  0.41800000000E+01 0.  1.
        -11    1    1    2    0    0 -0.73293364574E+00  0.10236002475E+02 -0.28376264018E+01  0.10647303039E+02  0.00000000000E+00 0.  1.
         11    1    1    2    0    0  0.70864024908E+02 -0.70847947477E+02  0.25345782752E+03  0.27254726566E+03  0.00000000000E+00 0. -1.
</event>
<event>
 7    1  0.8653652E-006  0.1014264E+03  0.7561462E-02  0.1277325E+00
          2   -1    0    0  501    0  0.00000000000E+00  0.00000000000E+00  0.21796191013E+03  0.21796191013E+03  0.00000000000E+00 0. -1.
         -2   -1    0    0    0  501 -0.00000000000E+00 -0.00000000000E+00 -0.60957016288E+02  0.60957016288E+02  0.00000000000E+00 0.  1.
         23    2    1    2    0    0 -0.33097744681E+02  0.27033909652E+02  0.70843207815E+02  0.14997482102E+03  0.12508954342E+03 0.  0.
          5    1    3    3  502    0 -0.15702981405E+02 -0.50239408373E+02  0.25949280472E+02  0.58833828158E+02  0.41800000000E+01 0. -1.
         -5    1    3    3    0  502 -0.17394763276E+02  0.77273318025E+02  0.44893927343E+02  0.91140992864E+02  0.41800000000E+01 0. -1.
        -11    1    1    2    0    0 -0.12595784732E+02 -0.21213044479E+02 -0.64583305363E+01  0.25502099568E+02  0.00000000000E+00 0.  1.
         11    1    1    2    0    0  0.45693529413E+02 -0.58208651726E+01  0.92620016566E+02  0.10344200583E+03  0.00000000000E+00 0. -1.
</event>
<event>
 7    1  0.8653652E-006  0.1040692E+03  0.7561462E-02  0.1271965E+00
          2   -1    0    0  501    0  0.00000000000E+00  0.00000000000E+00  0.13469073163E+02  0.13469073163E+02  0.00000000000E+00 0.  1.
         -2   -1    0    0    0  501 -0.00000000000E+00 -0.00000000000E+00 -0.11447399251E+04  0.11447399251E+04  0.00000000000E+00 0. -1.
         23    2    1    2    0    0  0.29730606420E+02 -0.38749829259E-01 -0.92090810518E+03  0.92984080736E+03  0.12509307894E+03 0.  0.
          5    1    3    3  502    0  0.72808610825E+02  0.13507389134E+02 -0.72343665733E+03  0.72722872120E+03  0.41800000000E+01 0.  1.
         -5    1    3    3    0  502 -0.43078004405E+02 -0.13546138963E+02 -0.19747144785E+03  0.20261208616E+03  0.41800000000E+01 0.  1.
        -11    1    1    2    0    0 -0.27043537884E+02 -0.40112724530E+02 -0.12348232686E+03  0.13262077008E+03  0.00000000000E+00 0. -1.
         11    1    1    2    0    0 -0.26870685364E+01  0.40151474360E+02 -0.86880419888E+02  0.95747420804E+02  0.00000000000E+00 0.  1.
</event>
<event>
 7    1  0.8653652E-006  0.1260375E+03  0.7561462E-02  0.1233457E+00
          1   -1    0    0  501    0  0.00000000000E+00  0.00000000000E+00  0.26367833689E+03  0.26367833689E+03  0.00000000000E+00 0. -1.
         -1   -1    0    0    0  501 -0.00000000000E+00 -0.00000000000E+00 -0.99506571474E+02  0.99506571474E+02  0.00000000000E+00 0.  1.
         23    2    1    2    0    0  0.82222081232E+01 -0.11688393601E+03  0.62872192600E+02  0.18257769791E+03  0.12510892841E+03 0.  0.
          5    1    3    3  502    0 -0.15655777446E+02 -0.83377554067E+02  0.97019289412E+02  0.12894624774E+03  0.41800000000E+01 0. -1.
         -5    1    3    3    0  502  0.23877985569E+02 -0.33506381946E+02 -0.34147096811E+02  0.53631450163E+02  0.41800000000E+01 0. -1.
        -11    1    1    2    0    0 -0.11568802776E+02  0.31385304975E+01 -0.14121553801E+02  0.18523116723E+02  0.00000000000E+00 0.  1.
         11    1    1    2    0    0  0.33465946527E+01  0.11374540552E+03  0.11542112661E+03  0.16208409373E+03  0.00000000000E+00 0. -1.
</event>
<event>
 7    1  0.8653652E-006  0.9545040E+02  0.7561462E-02  0.1290165E+00
          2   -1    0    0  501    0  0.00000000000E+00  0.00000000000E+00  0.40623132549E+03  0.40623132549E+03  0.00000000000E+00 0. -1.
         -2   -1    0    0    0  501 -0.00000000000E+00 -0.00000000000E+00 -0.32367532816E+02  0.32367532816E+02  0.00000000000E+00 0.  1.
         23    2    1    2    0    0 -0.35061955461E+02  0.81091840157E+01  0.21625176758E+03  0.25240236974E+03  0.12508808769E+03 0.  0.
          5    1    3    3  502    0 -0.44054030767E+02  0.41724046715E+02  0.40221249502E+02  0.72916904848E+02  0.41800000000E+01 0. -1.
         -5    1    3    3    0  502  0.89920753059E+01 -0.33614862699E+02  0.17603051808E+03  0.17948546489E+03  0.41800000000E+01 0. -1.
        -11    1    1    2    0    0  0.27308326363E+02  0.38822776267E+02  0.52228126889E+02  0.70574286281E+02  0.00000000000E+00 0.  1.
         11    1    1    2    0    0  0.77536290980E+01 -0.46931960283E+02  0.10538389821E+03  0.11562220229E+03  0.00000000000E+00 0. -1.
</event>
<event>
 7    1  0.8653652E-006  0.1025809E+03  0.7561462E-02  0.1274960E+00
          2   -1    0    0  501    0  0.00000000000E+00  0.00000000000E+00  0.76752139724E+02  0.76752139724E+02  0.00000000000E+00 0. -1.
         -2   -1    0    0    0  501 -0.00000000000E+00 -0.00000000000E+00 -0.19595279815E+03  0.19595279815E+03  0.00000000000E+00 0.  1.
         23    2    1    2    0    0 -0.40345676679E+02 -0.22212909129E+02 -0.10771740629E+03  0.17138053333E+03  0.12508821139E+03 0.  0.
          5    1    3    3  502    0 -0.82923385976E+02 -0.80804417735E+01 -0.46929770406E+02  0.95715501521E+02  0.41800000000E+01 0. -1.
         -5    1    3    3    0  502  0.42577709298E+02 -0.14132467356E+02 -0.60787635880E+02  0.75665031807E+02  0.41800000000E+01 0. -1.
        -11    1    1    2    0    0  0.44753351252E+02 -0.85881228180E+01 -0.38853158437E+02  0.59884774545E+02  0.00000000000E+00 0.  1.
         11    1    1    2    0    0 -0.44076745732E+01  0.30801031947E+02  0.27369906295E+02  0.41439630003E+02  0.00000000000E+00 0. -1.
</event>
<event>
 7    1  0.8653652E-006  0.1012186E+03  0.7561462E-02  0.1277754E+00
          1   -1    0    0  501    0  0.00000000000E+00  0.00000000000E+00  0.24617934669E+02  0.24617934669E+02  0.00000000000E+00 0. -1.
         -1   -1    0    0    0  501 -0.00000000000E+00 -0.00000000000E+00 -0.63910542297E+03  0.63910542297E+03  0.00000000000E+00 0.  1.
         23    2    1    2    0    0  0.37583926106E+02 -0.46089020391E+02 -0.39609532899E+03  0.41961391391E+03  0.12509027861E+03 0.  0.
          5    1    3    3  502    0  0.21891411335E+02  0.17129338681E+02 -0.12949989903E+02  0.30948711966E+02  0.41800000000E+01 0. -1.
         -5    1    3    3    0  502  0.15692514771E+02 -0.63218359072E+02 -0.38314533908E+03  0.38866520195E+03  0.41800000000E+01 0. -1.
        -11    1    1    2    0    0  0.23648915225E+02  0.41357977723E+02 -0.94414498591E+02  0.10575372834E+03  0.00000000000E+00 0. -1.
         11    1    1    2    0    0 -0.61232841331E+02  0.47310426677E+01 -0.12397766072E+03  0.13835571538E+03  0.00000000000E+00 0.  1.
</event>
<event>
 7    1  0.8653652E-006  0.7845127E+02  0.7561462E-02  0.1333505E+00
          1   -1    0    0  501    0  0.00000000000E+00  0.00000000000E+00  0.37465189254E+03  0.37465189254E+03  0.00000000000E+00 0. -1.
         -1   -1    0    0    0  501 -0.00000000000E+00 -0.00000000000E+00 -0.23208616874E+02  0.23208616874E+02  0.00000000000E+00 0.  1.
         23    2    1    2    0    0 -0.16210341987E+02 -0.29224463798E+02  0.21320461049E+03  0.24943709373E+03  0.12508322559E+03 0.  0.
          5    1    3    3  502    0 -0.53448817327E+02 -0.38823100929E+02  0.19641431135E+03  0.20726809533E+03  0.41800000000E+01 0. -1.
         -5    1    3    3    0  502  0.37238475340E+02  0.95986371313E+01  0.16790299134E+02  0.42168998393E+02  0.41800000000E+01 0. -1.
        -11    1    1    2    0    0  0.16151777562E+02 -0.56812743643E+01  0.28299334926E+02  0.33075809197E+02  0.00000000000E+00 0.  1.
         11    1    1    2    0    0  0.58564424949E-01  0.34905738162E+02  0.10993933025E+03  0.11534760649E+03  0.00000000000E+00 0. -1.
</event>
<event>
 7    1  0.8653652E-006  0.1580037E+03  0.7561462E-02  0.1190969E+00
          2   -1    0    0  501    0  0.00000000000E+00  0.00000000000E+00  0.41722674043E+03  0.41722674043E+03  0.00000000000E+00 0. -1.
         -2   -1    0    0    0  501 -0.00000000000E+00 -0.00000000000E+00 -0.79307047772E+02  0.79307047772E+02  0.00000000000E+00 0.  1.
         23    2    1    2    0    0 -0.14436437378E+03  0.20591999188E+02  0.16818264896E+03  0.25533610129E+03  0.12508404521E+03 0.  0.
          5    1    3    3  502    0 -0.39410124107E+02  0.14845526624E+02  0.14025027936E+03  0.14649628256E+03  0.41800000000E+01 0.  1.
         -5    1    3    3    0  502 -0.10495424967E+03  0.57464725640E+01  0.27932369601E+02  0.10883981873E+03  0.41800000000E+01 0.  1.
        -11    1    1    2    0    0  0.92073731698E+02  0.28891065953E+02  0.11856268243E+03  0.15287045308E+03  0.00000000000E+00 0. -1.
         11    1    1    2    0    0  0.52290642078E+02 -0.49483065141E+02  0.51174361272E+02  0.88327233831E+02  0.00000000000E+00 0.  1.
</event>
<event>
 7    1  0.8653652E-006  0.9477618E+02  0.7561462E-02  0.1291681E+00
         -3   -1    0    0    0  501 -0.00000000000E+00  0.00000000000E+00  0.82165581502E+03  0.82165581502E+03  0.00000000000E+00 0.  1.
          3   -1    0    0  501    0  0.00000000000E+00 -0.00000000000E+00 -0.16478102679E+02  0.16478102679E+02  0.00000000000E+00 0. -1.
         23    2    1    2    0    0  0.53414734253E+01  0.25069872073E+02  0.58550028735E+03  0.59926225770E+03  0.12509051597E+03 0.  0.
          5    1    3    3  502    0 -0.36406400334E+02  0.39115025749E+02  0.11718097036E+03  0.12885753156E+03  0.41800000000E+01 0. -1.
         -5    1    3    3    0  502  0.41747873759E+02 -0.14045153676E+02  0.46831931699E+03  0.47040472613E+03  0.41800000000E+01 0. -1.
        -11    1    1    2    0    0 -0.33681314050E+02  0.19479383000E+02  0.11884135789E+03  0.12504857306E+03  0.00000000000E+00 0.  1.
         11    1    1    2    0    0  0.28339840624E+02 -0.44549255073E+02  0.10083606709E+03  0.11382308694E+03  0.00000000000E+00 0. -1.
</event>
<event>
 7    1  0.8653652E-006  0.9875332E+02  0.7561462E-02  0.1282940E+00
         -1   -1    0    0    0  501 -0.00000000000E+00  0.00000000000E+00  0.79844875925E+02  0.79844875925E+02  0.00000000000E+00 0.  1.
          1   -1    0    0  501    0  0.00000000000E+00 -0.00000000000E+00 -0.17675490293E+03  0.17675490293E+03  0.00000000000E+00 0. -1.
         23    2    1    2    0    0 -0.26692250845E+02  0.70829285818E+00 -0.68667977513E+01  0.12809309926E+03  0.12509081194E+03 0.  0.
          5    1    3    3  502    0 -0.67085244449E+02 -0.13060259847E+02  0.26846657449E+02  0.73547371307E+02  0.41800000000E+01 0.  1.
         -5    1    3    3    0  502  0.40392993604E+02  0.13768552706E+02 -0.33713455200E+02  0.54545727948E+02  0.41800000000E+01 0.  1.
        -11    1    1    2    0    0  0.32924378816E+02  0.36078824169E+02 -0.28539460853E+02  0.56570284599E+02  0.00000000000E+00 0. -1.
         11    1    1    2    0    0 -0.62321279706E+01 -0.36787117027E+02 -0.61503768398E+02  0.71936394998E+02  0.00000000000E+00 0.  1.
</event>
<event>
 7    1  0.8653652E-006  0.8490428E+02  0.7561462E-02  0.1315683E+00
          1   -1    0    0  501    0  0.00000000000E+00  0.00000000000E+00  0.32500334884E+03  0.32500334884E+03  0.00000000000E+00 0. -1.
         -1   -1    0    0    0  501 -0.00000000000E+00 -0.00000000000E+00 -0.49859520189E+02  0.49859520189E+02  0.00000000000E+00 0.  1.
         23    2    1    2    0    0 -0.30934594151E+02  0.63309573180E+01  0.69426470945E+02  0.14650852712E+03  0.12509070116E+03 0.  0.
          5    1    3    3  502    0 -0.31074483533E+02  0.34468304920E+02  0.96548592131E+02  0.10720443374E+03  0.41800000000E+01 0.  1.
         -5    1    3    3    0  502  0.13988938219E+00 -0.28137347602E+02 -0.27122121186E+02  0.39304093384E+02  0.41800000000E+01 0.  1.
        -11    1    1    2    0    0  0.34394214230E+02 -0.44611004816E+02  0.15355028846E+03  0.16355670212E+03  0.00000000000E+00 0. -1.
         11    1    1    2    0    0 -0.34596200791E+01  0.38280047498E+02  0.52167069242E+02  0.64797639778E+02  0.00000000000E+00 0.  1.
</event>
<event>
 7    1  0.8653652E-006  0.2642819E+03  0.7561462E-02  0.1104598E+00
          1   -1    0    0  501    0  0.00000000000E+00  0.00000000000E+00  0.13260062491E+03  0.13260062491E+03  0.00000000000E+00 0. -1.
         -1   -1    0    0    0  501 -0.00000000000E+00 -0.00000000000E+00 -0.60443967371E+03  0.60443967371E+03  0.00000000000E+00 0.  1.
         23    2    1    2    0    0  0.23562860466E+03  0.95469490633E+02 -0.31994582834E+03  0.42735482499E+03  0.12502619883E+03 0.  0.
          5    1    3    3  502    0  0.90283520445E+02 -0.80712287285E+00 -0.18825190012E+03  0.20882532368E+03  0.41800000000E+01 0. -1.
         -5    1    3    3    0  502  0.14534508421E+03  0.96276613506E+02 -0.13169392822E+03  0.21852950131E+03  0.41800000000E+01 0. -1.
        -11    1    1    2    0    0 -0.11506487072E+03 -0.84438236681E+02 -0.49307709904E+02  0.15099996868E+03  0.00000000000E+00 0.  1.
         11    1    1    2    0    0 -0.12056373394E+03 -0.11031253952E+02 -0.10258551055E+03  0.15868550495E+03  0.00000000000E+00 0. -1.
</event>
<event>
 7    1  0.8653652E-006  0.9701273E+02  0.7561462E-02  0.1286706E+00
         -2   -1    0    0    0  501 -0.00000000000E+00  0.00000000000E+00  0.16379109115E+03  0.16379109115E+03  0.00000000000E+00 0. -1.
          2   -1    0    0  501    0  0.00000000000E+00 -0.00000000000E+00 -0.70814257009E+02  0.70814257009E+02  0.00000000000E+00 0.  1.
         23    2    1    2    0    0 -0.15844440557E+02 -0.37715978876E+01  0.82549982181E+02  0.15075356253E+03  0.12508743266E+03 0.  0.
          5    1    3    3  502    0  0.22978003026E+02 -0.51835964561E+02  0.65067122970E+02  0.86406936855E+02  0.41800000000E+01 0. -1.
         -5    1    3    3    0  502 -0.38822443583E+02  0.48064366674E+02  0.17482859211E+02  0.64346625675E+02  0.41800000000E+01 0. -1.
        -11    1    1    2    0    0 -0.35670223486E+01  0.36779623776E+02 -0.12751558102E+02  0.39090492547E+02  0.00000000000E+00 0.  1.
         11    1    1    2    0    0  0.19411462906E+02 -0.33008025889E+02  0.23178410059E+02  0.44761293078E+02  0.00000000000E+00 0. -1.
</event>
<event>
 7    1  0.8653652E-006  0.9949904E+02  0.7561462E-02  0.1281353E+00
          4   -1    0    0  501    0  0.00000000000E+00  0.00000000000E+00  0.57532663390E+02  0.57532663390E+02  0.00000000000E+00 0. -1.
         -4   -1    0    0    0  501 -0.00000000000E+00 -0.00000000000E+00 -0.27499332324E+03  0.27499332324E+03  0.00000000000E+00 0.  1.
         23    2    1    2    0    0  0.36909134494E+02  0.60382862534E+02 -0.12957185414E+03  0.19351720055E+03  0.12510662344E+03 0.  0.
          5    1    3    3  502    0  0.63301988975E+02  0.92271051453E+01 -0.15925888521E+02  0.66055942978E+02  0.41800000000E+01 0. -1.
         -5    1    3    3    0  502 -0.26392854482E+02  0.51155757388E+02 -0.11364596562E+03  0.12746125757E+03  0.41800000000E+01 0. -1.
        -11    1    1    2    0    0 -0.29892060665E+02 -0.19487756173E+02  0.61622844979E+01  0.36211623571E+02  0.00000000000E+00 0. -1.
         11    1    1    2    0    0 -0.70170738286E+01 -0.40895106361E+02 -0.94051090210E+02  0.10279716251E+03  0.00000000000E+00 0.  1.
</event>
<event>
 7    1  0.8653652E-006  0.9498229E+02  0.7561462E-02  0.1291216E+00
          4   -1    0    0  501    0  0.00000000000E+00  0.00000000000E+00  0.10232307135E+03  0.10232307135E+03  0.00000000000E+00 0. -1.
         -4   -1    0    0    0  501 -0.00000000000E+00 -0.00000000000E+00 -0.14335051301E+03  0.14335051301E+03  0.00000000000E+00 0.  1.
         23    2    1    2    0    0 -0.47982934264E+02  0.18282674305E+01 -0.51115857287E+02  0.14341109047E+03  0.12509278740E+03 0.  0.
          5    1    3    3  502    0 -0.24743058792E+02  0.44935606140E+02  0.21456483595E+02  0.55760924901E+02  0.41800000000E+01 0. -1.
         -5    1    3    3    0  502 -0.23239875472E+02 -0.43107338709E+02 -0.72572340882E+02  0.87650165565E+02  0.41800000000E+01 0. -1.
        -11    1    1    2    0    0 -0.20249128935E+02  0.47469791067E+01 -0.18648597006E+02  0.27934408953E+02  0.00000000000E+00 0. -1.
         11    1    1    2    0    0  0.68232063199E+02 -0.65752465372E+01  0.28737012636E+02  0.74328084938E+02  0.00000000000E+00 0.  1.
</event>
<event>
 7    1  0.8653652E-006  0.1389089E+03  0.7561462E-02  0.1214805E+00
         -2   -1    0    0    0  501 -0.00000000000E+00  0.00000000000E+00  0.20592044368E+02  0.20592044368E+02  0.00000000000E+00 0.  1.
          2   -1    0    0  501    0  0.00000000000E+00 -0.00000000000E+00 -0.10136263358E+04  0.10136263358E+04  0.00000000000E+00 0. -1.
         23    2    1    2    0    0 -0.85204371268E+02  0.38407219968E+02 -0.58168301204E+03  0.60227673617E+03  0.12508893239E+03 0.  0.
          5    1    3    3  502    0 -0.96926518398E+02 -0.11113167214E+02 -0.28584578510E+03  0.30206545270E+03  0.41800000000E+01 0. -1.
         -5    1    3    3    0  502  0.11722147129E+02  0.49520387182E+02 -0.29583722693E+03  0.30021128347E+03  0.41800000000E+01 0. -1.
        -11    1    1    2    0    0  0.22301153408E+02 -0.58874924656E+02 -0.15759139436E+03  0.16970163751E+03  0.00000000000E+00 0.  1.
         11    1    1    2    0    0  0.62903217861E+02  0.20467704688E+02 -0.25375988501E+03  0.26224000646E+03  0.00000000000E+00 0. -1.
</event>
<event>
 7    1  0.8653652E-006  0.3286849E+03  0.7561462E-02  0.1071720E+00
          1   -1    0    0  501    0  0.00000000000E+00  0.00000000000E+00  0.15704318378E+04  0.15704318378E+04  0.00000000000E+00 0. -1.
         -1   -1    0    0    0  501 -0.00000000000E+00 -0.00000000000E+00 -0.76440890812E+02  0.76440890812E+02  0.00000000000E+00 0.  1.
         23    2    1    2    0    0  0.87616516281E+02  0.30407706514E+03  0.54727205446E+03  0.64435050429E+03  0.12466497228E+03 0.  0.
          5    1    3    3  502    0  0.90724641945E+02  0.14715445582E+03  0.36422503828E+03  0.40319070604E+03  0.41800000000E+01 0.  1.
         -5    1    3    3    0  502 -0.31081256635E+01  0.15692260931E+03  0.18304701618E+03  0.24115979825E+03  0.41800000000E+01 0.  1.
        -11    1    1    2    0    0  0.37040249112E+00 -0.15004296994E+03  0.49420500639E+03  0.51648002708E+03  0.00000000000E+00 0. -1.
         11    1    1    2    0    0 -0.87986918772E+02 -0.15403409520E+03  0.45251388613E+03  0.48604219724E+03  0.00000000000E+00 0.  1.
</event>
<event>
 7    1  0.8653652E-006  0.9950434E+02  0.7561462E-02  0.1281342E+00
         -2   -1    0    0    0  501 -0.00000000000E+00  0.00000000000E+00  0.47495590360E+02  0.47495590360E+02  0.00000000000E+00 0.  1.
          2   -1    0    0  501    0  0.00000000000E+00 -0.00000000000E+00 -0.29898436692E+03  0.29898436692E+03  0.00000000000E+00 0. -1.
         23    2    1    2    0    0  0.26799649886E+02 -0.29868679712E+02 -0.81474080598E+02  0.15458363133E+03  0.12509082302E+03 0.  0.
          5    1    3    3  502    0  0.60263788556E+01  0.49043152920E+02 -0.33301436860E+02  0.59732789884E+02  0.41800000000E+01 0.  1.
         -5    1    3    3    0  502  0.20773271031E+02 -0.78911832631E+02 -0.48172643737E+02  0.94850841447E+02  0.41800000000E+01 0.  1.
        -11    1    1    2    0    0 -0.15647890302E+02 -0.14881371792E+02 -0.12702811570E+03  0.12885050980E+03  0.00000000000E+00 0. -1.
         11    1    1    2    0    0 -0.11151759584E+02  0.44750051504E+02 -0.42986580264E+02  0.63045816151E+02  0.00000000000E+00 0.  1.
</event>
<event>
 7    1  0.8653652E-006  0.4579218E+02  0.7561462E-02  0.1469456E+00
         -2   -1    0    0    0  501 -0.00000000000E+00  0.00000000000E+00  0.74696185036E+02  0.74696185036E+02  0.00000000000E+00 0.  1.
          2   -1    0    0  501    0  0.00000000000E+00 -0.00000000000E+00 -0.71110142243E+02  0.71110142243E+02  0.00000000000E+00 0. -1.
         23    2    1    2    0    0  0.13467170592E+02  0.15925335335E+02  0.12207027060E+02  0.11316798694E+03  0.11055768073E+03 0.  0.
          5    1    3    3  502    0  0.22906496647E+02  0.34279138834E+02 -0.39554478562E+02  0.57286962934E+02  0.41800000000E+01 0. -1.
         -5    1    3    3    0  502 -0.94393260551E+01 -0.18353803499E+02  0.51761505622E+02  0.55881024002E+02  0.41800000000E+01 0.  1.
        -11    1    1    2    0    0 -0.13931386867E+02 -0.79991272242E+00 -0.10397250669E+02  0.17401902824E+02  0.00000000000E+00 0. -1.
         11    1    1    2    0    0  0.46421627551E+00 -0.15125422613E+02  0.17762664021E+01  0.15236437520E+02  0.00000000000E+00 0.  1.
</event>
<event>
 7    1  0.8653652E-006  0.2560792E+03  0.7561462E-02  0.1109522E+00
         -2   -1    0    0    0  501 -0.00000000000E+00  0.00000000000E+00  0.10968223637E+03  0.10968223637E+03  0.00000000000E+00 0. -1.
          2   -1    0    0  501    0  0.00000000000E+00 -0.00000000000E+00 -0.65861111105E+03  0.65861111105E+03  0.00000000000E+00 0.  1.
         23    2    1    2    0    0  0.86342439625E+02 -0.22397635754E+03 -0.20600509826E+03  0.34015646974E+03  0.12509155760E+03 0.  0.
          5    1    3    3  502    0  0.63560306144E+02 -0.23530525604E+03 -0.19478239774E+03  0.31203546418E+03  0.41800000000E+01 0.  1.
         -5    1    3    3    0  502  0.22782133480E+02  0.11328898499E+02 -0.11222700528E+02  0.28121005570E+02  0.41800000000E+01 0.  1.
        -11    1    1    2    0    0 -0.44567227720E+02  0.16078851006E+03 -0.16453089941E+03  0.23432797446E+03  0.00000000000E+00 0. -1.
         11    1    1    2    0    0 -0.41775211905E+02  0.63187847474E+02 -0.17839287700E+03  0.19380890321E+03  0.00000000000E+00 0.  1.
</event>
<event>
 7    1  0.8653652E-006  0.2059303E+03  0.7561462E-02  0.1144830E+00
          1   -1    0    0  501    0  0.00000000000E+00  0.00000000000E+00  0.95671984417E+03  0.95671984417E+03  0.00000000000E+00 0. -1.
         -1   -1    0    0    0  501 -0.00000000000E+00 -0.00000000000E+00 -0.58115311419E+02  0.58115311419E+02  0.00000000000E+00 0.  1.
         23    2    1    2    0    0 -0.15897319725E+03 -0.12487013816E+03  0.34982668146E+03  0.42295524503E+03  0.12508958144E+03 0.  0.
          5    1    3    3  502    0 -0.92774362325E+02 -0.76667801323E+02  0.30842170631E+03  0.33109886044E+03  0.41800000000E+01 0.  1.
         -5    1    3    3    0  502 -0.66198834921E+02 -0.48202336838E+02  0.41404975158E+02  0.91856384587E+02  0.41800000000E+01 0.  1.
        -11    1    1    2    0    0  0.11932599615E+03  0.12044517421E+03  0.34711325749E+03  0.38630732180E+03  0.00000000000E+00 0.  1.
         11    1    1    2    0    0  0.39647201095E+02  0.44249639548E+01  0.20166459379E+03  0.20557258876E+03  0.00000000000E+00 0. -1.
</event>
<event>
 7    1  0.8653652E-006  0.1043645E+03  0.7561462E-02  0.1271377E+00
         -1   -1    0    0    0  501 -0.00000000000E+00  0.00000000000E+00  0.63961382409E+03  0.63961382409E+03  0.00000000000E+00 0.  1.
          1   -1    0    0  501    0  0.00000000000E+00 -0.00000000000E+00 -0.28949090934E+02  0.28949090934E+02  0.00000000000E+00 0. -1.
         23    2    1    2    0    0 -0.51443540364E+01  0.35150897281E+02  0.43411456696E+03  0.45317102715E+03  0.12508586107E+03 0.  0.
          5    1    3    3  502    0  0.13066140407E+02  0.74404974847E+02  0.17829478266E+03  0.19368357244E+03  0.41800000000E+01 0.  1.
         -5    1    3    3    0  502 -0.18210494444E+02 -0.39254077566E+02  0.25581978430E+03  0.25948745471E+03  0.41800000000E+01 0.  1.
        -11    1    1    2    0    0  0.40071463517E+02 -0.40043187000E-01  0.95371478571E+01  0.41190787575E+02  0.00000000000E+00 0. -1.
         11    1    1    2    0    0 -0.34927109480E+02 -0.35110854094E+02  0.16701301833E+03  0.17420110029E+03  0.00000000000E+00 0.  1.
</event>
<event>
 7    1  0.8653652E-006  0.1121497E+03  0.7561462E-02  0.1256640E+00
          1   -1    0    0  501    0  0.00000000000E+00  0.00000000000E+00  0.27710295518E+02  0.27710295518E+02  0.00000000000E+00 0. -1.
         -1   -1    0    0    0  501 -0.00000000000E+00 -0.00000000000E+00 -0.59181589411E+03  0.59181589411E+03  0.00000000000E+00 0.  1.
         23    2    1    2    0    0  0.17920630888E+02  0.44819195865E+02 -0.42794135358E+03  0.44845410192E+03  0.12508944835E+03 0.  0.
          5    1    3    3  502    0  0.57285855993E+01 -0.38630885183E+02 -0.66078991138E+02  0.76870458909E+02  0.41800000000E+01 0.  1.
         -5    1    3    3    0  502  0.12192045289E+02  0.83450081049E+02 -0.36186236245E+03  0.37158364301E+03  0.41800000000E+01 0.  1.
        -11    1    1    2    0    0  0.35640040145E+02 -0.11254348094E+02 -0.31866307502E+02  0.49115520626E+02  0.00000000000E+00 0.  1.
         11    1    1    2    0    0 -0.53560671033E+02 -0.33564847771E+02 -0.10429793751E+03  0.12195656709E+03  0.00000000000E+00 0. -1.
</event>
<event>
 7    1  0.8653652E-006  0.2026189E+03  0.7561462E-02  0.1147548E+00
          2   -1    0    0  501    0  0.00000000000E+00  0.00000000000E+00  0.17181457927E+03  0.17181457927E+03  0.00000000000E+00 0.  1.
         -2   -1    0    0    0  501 -0.00000000000E+00 -0.00000000000E+00 -0.37582244319E+03  0.37582244319E+03  0.00000000000E+00 0. -1.
         23    2    1    2    0    0 -0.62065935907E+02 -0.18055309784E+03 -0.24247415355E+03  0.33300571398E+03  0.12508992313E+03 0.  0.
          5    1    3    3  502    0  0.19526374985E+02 -0.88891803568E+02 -0.16302869808E+03  0.18675883074E+03  0.41800000000E+01 0.  1.
         -5    1    3    3    0  502 -0.81592310892E+02 -0.91661294269E+02 -0.79445455468E+02  0.14624688324E+03  0.41800000000E+01 0.  1.
        -11    1    1    2    0    0  0.53372747009E+02  0.16623976558E+03  0.62406366346E+02  0.18541538325E+03  0.00000000000E+00 0.  1.
         11    1    1    2    0    0  0.86931888973E+01  0.14313332256E+02 -0.23940076719E+02  0.29215925226E+02  0.00000000000E+00 0. -1.
</event>
<event>
 7    1  0.8653652E-006  0.1128041E+03  0.7561462E-02  0.1255464E+00
          1   -1    0    0  501    0  0.00000000000E+00  0.00000000000E+00  0.39782558371E+02  0.39782558371E+02  0.00000000000E+00 0. -1.
         -1   -1    0    0    0  501 -0.00000000000E+00 -0.00000000000E+00 -0.37300295916E+03  0.37300295916E+03  0.00000000000E+00 0.  1.
         23    2    1    2    0    0 -0.22170609248E+01  0.42725857237E+02 -0.23496978503E+03  0.26960862206E+03  0.12509034724E+03 0.  0.
          5    1    3    3  502    0  0.14293901174E+02  0.79580731668E+02 -0.20092535679E+03  0.21662382109E+03  0.41800000000E+01 0.  1.
         -5    1    3    3    0  502 -0.16510962099E+02 -0.36854874431E+02 -0.34044428241E+02  0.52984800962E+02  0.41800000000E+01 0.  1.
        -11    1    1    2    0    0  0.43972515803E+02  0.45974169651E+00 -0.44645376683E+02  0.62665805410E+02  0.00000000000E+00 0. -1.
         11    1    1    2    0    0 -0.41755454878E+02 -0.43185598934E+02 -0.53605239075E+02  0.80511090066E+02  0.00000000000E+00 0.  1.
</event>
<event>
 7    1  0.8653652E-006  0.8793568E+02  0.7561462E-02  0.1307929E+00
         -1   -1    0    0    0  501 -0.00000000000E+00  0.00000000000E+00  0.55411252702E+02  0.55411252702E+02  0.00000000000E+00 0.  1.
          1   -1    0    0  501    0  0.00000000000E+00 -0.00000000000E+00 -0.24863842728E+03  0.24863842728E+03  0.00000000000E+00 0. -1.
         23    2    1    2    0    0  0.38055604748E+02 -0.39451736106E+01 -0.77530186430E+02  0.15206175904E+03  0.12509218723E+03 0.  0.
          5    1    3    3  502    0  0.40329650004E+02  0.27016055382E+02  0.17680310904E+02  0.51830625228E+02  0.41800000000E+01 0.  1.
         -5    1    3    3    0  502 -0.22740452562E+01 -0.30961228993E+02 -0.95210497334E+02  0.10023113381E+03  0.41800000000E+01 0.  1.
        -11    1    1    2    0    0  0.25601275353E+02  0.17147294633E+02 -0.55015694109E+02  0.63056971155E+02  0.00000000000E+00 0.  1.
         11    1    1    2    0    0 -0.63656880101E+02 -0.13202121023E+02 -0.60681294037E+02  0.88930949785E+02  0.00000000000E+00 0. -1.
</event>
<event>
 7    1  0.8653652E-006  0.1367057E+03  0.7561462E-02  0.1217832E+00
          1   -1    0    0  501    0  0.00000000000E+00  0.00000000000E+00  0.15950608272E+03  0.15950608272E+03  0.00000000000E+00 0. -1.
         -1   -1    0    0    0  501 -0.00000000000E+00 -0.00000000000E+00 -0.13765996755E+03  0.13765996755E+03  0.00000000000E+00 0.  1.
         23    2    1    2    0    0 -0.78681852120E+02 -0.63302631640E+02  0.13598775779E+02  0.16133888206E+03  0.12508897288E+03 0.  0.
          5    1    3    3  502    0 -0.10261739200E+03 -0.40805684415E+02  0.41490620267E+02  0.11804396212E+03  0.41800000000E+01 0. -1.
         -5    1    3    3    0  502  0.23935539884E+02 -0.22496947225E+02 -0.27891844488E+02  0.43294919943E+02  0.41800000000E+01 0. -1.
        -11    1    1    2    0    0 -0.12039050650E+02  0.31384048155E+02 -0.15118334997E+02  0.36857309617E+02  0.00000000000E+00 0.  1.
         11    1    1    2    0    0  0.90720902770E+02  0.31918583485E+02  0.23365674379E+02  0.98969858595E+02  0.00000000000E+00 0. -1.
</event>
<event>
 7    1  0.8653652E-006  0.8000933E+02  0.7561462E-02  0.1329025E+00
         -2   -1    0    0    0  501 -0.00000000000E+00  0.00000000000E+00  0.23071636718E+03  0.23071636718E+03  0.00000000000E+00 0.  1.
          2   -1    0    0  501    0  0.00000000000E+00 -0.00000000000E+00 -0.56559468975E+02  0.56559468975E+02  0.00000000000E+00 0. -1.
         23    2    1    2    0    0 -0.17696100998E+02 -0.10710858444E+02  0.12384155743E+03  0.17723296023E+03  0.12508763475E+03 0.  0.
          5    1    3    3  502    0  0.25407411749E+02 -0.70966464732E+01 -0.15768189516E+02  0.31016240319E+02  0.41800000000E+01 0.  1.
         -5    1    3    3    0  502 -0.43103512746E+02 -0.36142119705E+01  0.13960974695E+03  0.14621671991E+03  0.41800000000E+01 0.  1.
        -11    1    1    2    0    0 -0.92563795141E+01  0.45168261712E+02  0.47513024890E+02  0.66206796947E+02  0.00000000000E+00 0.  1.
         11    1    1    2    0    0  0.26952480512E+02 -0.34457403268E+02  0.28023158840E+01  0.43836078976E+02  0.00000000000E+00 0. -1.
</event>
<event>
 7    1  0.8653652E-006  0.8654112E+02  0.7561462E-02  0.1311451E+00
         -3   -1    0    0    0  501 -0.00000000000E+00  0.00000000000E+00  0.83744387120E+02  0.83744387120E+02  0.00000000000E+00 0.  1.
          3   -1    0    0  501    0  0.00000000000E+00 -0.00000000000E+00 -0.31892124547E+03  0.31892124547E+03  0.00000000000E+00 0. -1.
         23    2    1    2    0    0 -0.18827141820E+02  0.32379332116E+02  0.22023481253E+02  0.12741117398E+03  0.11977349921E+03 0.  0.
          5    1    3    3  502    0  0.24683269463E+02 -0.25502213972E+01 -0.37857063563E+02  0.45457640526E+02  0.41800000000E+01 0.  1.
         -5    1    3    3    0  502 -0.43510411284E+02  0.34929553513E+02  0.59880544816E+02  0.81953533457E+02  0.41800000000E+01 0.  1.
        -11    1    1    2    0    0  0.15495012069E+02 -0.61109083579E+02 -0.21530905290E+03  0.22434884389E+03  0.00000000000E+00 0. -1.
         11    1    1    2    0    0  0.33321297515E+01  0.28729751464E+02 -0.41891286699E+02  0.50905614712E+02  0.00000000000E+00 0.  1.
</event>
<event>
 7    1  0.8653652E-006  0.9079934E+02  0.7561462E-02  0.1300927E+00
          2   -1    0    0  501    0  0.00000000000E+00  0.00000000000E+00  0.69032728576E+03  0.69032728576E+03  0.00000000000E+00 0. -1.
         -2   -1    0    0    0  501 -0.00000000000E+00 -0.00000000000E+00 -0.24406405926E+02  0.24406405926E+02  0.00000000000E+00 0.  1.
         23    2    1    2    0    0  0.16064491246E+02 -0.70947113918E+02  0.31186261526E+03  0.34381756859E+03  0.12514259395E+03 0.  0.
          5    1    3    3  502    0  0.12598121282E+02 -0.16783130300E+02 -0.52780978510E+01  0.22038984537E+02  0.41800000000E+01 0.  1.
         -5    1    3    3    0  502  0.34663699640E+01 -0.54163983618E+02  0.31714071311E+03  0.32177858405E+03  0.41800000000E+01 0.  1.
        -11    1    1    2    0    0 -0.42823473546E+02  0.65812506091E+02  0.30339631826E+03  0.31339186616E+03  0.00000000000E+00 0. -1.
         11    1    1    2    0    0  0.26758982300E+02  0.51346078269E+01  0.50661946319E+02  0.57524256937E+02  0.00000000000E+00 0.  1.
</event>
<event>
 7    1  0.8653652E-006  0.9278672E+02  0.7561462E-02  0.1296240E+00
         -1   -1    0    0    0  501 -0.00000000000E+00  0.00000000000E+00  0.57057638437E+03  0.57057638437E+03  0.00000000000E+00 0.  1.
          1   -1    0    0  501    0  0.00000000000E+00 -0.00000000000E+00 -0.22670795782E+02  0.22670795782E+02  0.00000000000E+00 0. -1.
         23    2    1    2    0    0  0.16595390768E+02 -0.23196395072E+02  0.39687082450E+03  0.41442789210E+03  0.11589023547E+03 0.  0.
          5    1    3    3  502    0  0.49503097616E+02  0.20378039655E+02  0.28328686273E+03  0.28833095597E+03  0.41800000000E+01 0. -1.
         -5    1    3    3    0  502 -0.32907706849E+02 -0.43574434727E+02  0.11358396176E+03  0.12609693613E+03  0.41800000000E+01 0.  1.
        -11    1    1    2    0    0 -0.17429333090E+02 -0.24137047379E+02  0.11643832075E+03  0.12018428037E+03  0.00000000000E+00 0.  1.
         11    1    1    2    0    0  0.83394232237E+00  0.47333442451E+02  0.34596443340E+02  0.58635007682E+02  0.00000000000E+00 0. -1.
</event>
<event>
 7    1  0.8653652E-006  0.1370074E+03  0.7561462E-02  0.1217413E+00
          2   -1    0    0  501    0  0.00000000000E+00  0.00000000000E+00  0.37612711763E+03  0.37612711763E+03  0.00000000000E+00 0. -1.
         -2   -1    0    0    0  501 -0.00000000000E+00 -0.00000000000E+00 -0.78652811733E+02  0.78652811733E+02  0.00000000000E+00 0.  1.
         23    2    1    2    0    0 -0.12517367016E+03 -0.13352553829E+02  0.96746593098E+02  0.20212551989E+03  0.12509230239E+03 0.  0.
          5    1    3    3  502    0 -0.19515535067E+02  0.32981732049E+00 -0.30289187516E+02  0.36274952361E+02  0.41800000000E+01 0.  1.
         -5    1    3    3    0  502 -0.10565813510E+03 -0.13682371149E+02  0.12703578061E+03  0.16585056752E+03  0.41800000000E+01 0.  1.
        -11    1    1    2    0    0  0.79159886919E+02  0.45495888147E+02  0.88408516595E+02  0.12709142120E+03  0.00000000000E+00 0.  1.
         11    1    1    2    0    0  0.46013783244E+02 -0.32143334318E+02  0.11231919620E+03  0.12556298828E+03  0.00000000000E+00 0. -1.
</event>
<event>
 7    1  0.8653652E-006  0.2854157E+03  0.7561462E-02  0.1092767E+00
         -2   -1    0    0    0  501 -0.00000000000E+00  0.00000000000E+00  0.50539314290E+02  0.50539314290E+02  0.00000000000E+00 0.  1.
          2   -1    0    0  501    0  0.00000000000E+00 -0.00000000000E+00 -0.17358125315E+04  0.17358125315E+04  0.00000000000E+00 0. -1.
         23    2    1    2    0    0 -0.86615694599E+02 -0.26002888777E+03 -0.92616048213E+03  0.97392896207E+03  0.12508830274E+03 0.  0.
          5    1    3    3  502    0 -0.10941357032E+03 -0.18902400725E+03 -0.77684231338E+03  0.80697141024E+03  0.41800000000E+01 0. -1.
         -5    1    3    3    0  502  0.22797875724E+02 -0.71004880524E+02 -0.14931816875E+03  0.16695755183E+03  0.41800000000E+01 0. -1.
        -11    1    1    2    0    0  0.67381798302E+02  0.13176101080E+03 -0.51691470092E+03  0.53768213540E+03  0.00000000000E+00 0. -1.
         11    1    1    2    0    0  0.19233896297E+02  0.12826787698E+03 -0.24219803416E+03  0.27474074831E+03  0.00000000000E+00 0.  1.
</event>
<event>
 7    1  0.1351119E-005  0.9864819E+02  0.7561462E-02  0.1283165E+00
          1   -1    0    0  501    0  0.00000000000E+00  0.00000000000E+00  0.16752189382E+03  0.16752189382E+03  0.00000000000E+00 0. -1.
         -1   -1    0    0    0  501 -0.00000000000E+00 -0.00000000000E+00 -0.10743360362E+03  0.10743360362E+03  0.00000000000E+00 0.  1.
         23    2    1    2    0    0 -0.47621122858E+02 -0.24882238201E+02 -0.24681895675E+02  0.13836015350E+03  0.12508972373E+03 0.  0.
          5    1    3    3  502    0 -0.97991036851E+01 -0.60516303009E+02 -0.51098235872E+02  0.79917128778E+02  0.41800000000E+01 0. -1.
         -5    1    3    3    0  502 -0.37822019173E+02  0.35634064808E+02  0.26416340197E+02  0.58443024720E+02  0.41800000000E+01 0. -1.
        -11    1    1    2    0    0  0.50209039560E+02 -0.79055158509E+01  0.59330585349E+01  0.51172707746E+02  0.00000000000E+00 0.  1.
         11    1    1    2    0    0 -0.25879167024E+01  0.32787754051E+02  0.78837127335E+02  0.85422636198E+02  0.00000000000E+00 0. -1.
</event>
<event>
 7    1  0.8653652E-006  0.1306857E+03  0.7561462E-02  0.1226442E+00
         -2   -1    0    0    0  501 -0.00000000000E+00  0.00000000000E+00  0.24826995863E+03  0.24826995863E+03  0.00000000000E+00 0.  1.
          2   -1    0    0  501    0  0.00000000000E+00 -0.00000000000E+00 -0.73615830664E+02  0.73615830664E+02  0.00000000000E+00 0. -1.
         23    2    1    2    0    0  0.68225516852E+02  0.34312346974E+02  0.12579407965E+03  0.19314151197E+03  0.12508970728E+03 0.  0.
          5    1    3    3  502    0  0.54315968037E+02  0.79121508766E+02  0.10289285681E+03  0.14076522978E+03  0.41800000000E+01 0.  1.
         -5    1    3    3    0  502  0.13909548816E+02 -0.44809161792E+02  0.22901222838E+02  0.52376282192E+02  0.41800000000E+01 0.  1.
        -11    1    1    2    0    0 -0.51076542120E+02 -0.65231270135E+02  0.41369286201E+02  0.92603183526E+02  0.00000000000E+00 0.  1.
         11    1    1    2    0    0 -0.17148974732E+02  0.30918923161E+02  0.74907621222E+01  0.36141093798E+02  0.00000000000E+00 0. -1.
</event>
<event>
 7    1  0.8653652E-006  0.1002680E+03  0.7561462E-02  0.1279733E+00
         -3   -1    0    0    0  501 -0.00000000000E+00  0.00000000000E+00  0.75510593585E+02  0.75510593585E+02  0.00000000000E+00 0.  1.
          3   -1    0    0  501    0  0.00000000000E+00 -0.00000000000E+00 -0.28893620202E+03  0.28893620202E+03  0.00000000000E+00 0. -1.
         23    2    1    2    0    0 -0.10644589948E+02  0.92521448230E+02 -0.75479163573E+02  0.17325443022E+03  0.12508584165E+03 0.  0.
          5    1    3    3  502    0 -0.26267905744E+02  0.52041356843E+02 -0.10530478909E+03  0.12043619348E+03  0.41800000000E+01 0.  1.
         -5    1    3    3    0  502  0.15623315796E+02  0.40480091387E+02  0.29825625519E+02  0.52818236745E+02  0.41800000000E+01 0.  1.
        -11    1    1    2    0    0  0.22141590383E+02 -0.56280914291E+02 -0.14062362322E+03  0.15307774085E+03  0.00000000000E+00 0. -1.
         11    1    1    2    0    0 -0.11497000435E+02 -0.36240533939E+02  0.26771783504E+01  0.38114624531E+02  0.00000000000E+00 0.  1.
</event>
<event>
 7    1  0.8653652E-006  0.9289778E+02  0.7561462E-02  0.1295982E+00
         -1   -1    0    0    0  501 -0.00000000000E+00  0.00000000000E+00  0.60260601412E+02  0.60260601412E+02  0.00000000000E+00 0.  1.
          1   -1    0    0  501    0  0.00000000000E+00 -0.00000000000E+00 -0.35736252043E+03  0.35736252043E+03  0.00000000000E+00 0. -1.
         23    2    1    2    0    0 -0.56725718003E+02 -0.39687809132E+02 -0.60878988567E+02  0.15538931003E+03  0.12508659858E+03 0.  0.
          5    1    3    3  502    0 -0.27741806679E+02 -0.62450512167E+01 -0.95063330012E+02  0.99313229811E+02  0.41800000000E+01 0.  1.
         -5    1    3    3    0  502 -0.28983911324E+02 -0.33442757916E+02  0.34184341444E+02  0.56076080218E+02  0.41800000000E+01 0.  1.
        -11    1    1    2    0    0 -0.13164746058E+02  0.40625646886E+02 -0.71307083983E+02  0.83117109850E+02  0.00000000000E+00 0. -1.
         11    1    1    2    0    0  0.69890464061E+02 -0.93783775350E+00 -0.16491584647E+03  0.17911670197E+03  0.00000000000E+00 0.  1.
</event>
<event>
 7    1  0.8653652E-006  0.1286039E+03  0.7561462E-02  0.1229542E+00
         -1   -1    0    0    0  501 -0.00000000000E+00  0.00000000000E+00  0.25752604796E+02  0.25752604796E+02  0.00000000000E+00 0.  1.
          1   -1    0    0  501    0  0.00000000000E+00 -0.00000000000E+00 -0.71223082368E+03  0.71223082368E+03  0.00000000000E+00 0. -1.
         23    2    1    2    0    0 -0.27097814139E+02  0.66988872335E+02 -0.47646333547E+03  0.49788027865E+03  0.12508261779E+03 0.  0.
          5    1    3    3  502    0 -0.19034781449E+02  0.10246772218E+03 -0.29881300616E+03  0.31649430018E+03  0.41800000000E+01 0. -1.
         -5    1    3    3    0  502 -0.80630326900E+01 -0.35478849848E+02 -0.17765032931E+03  0.18138597847E+03  0.41800000000E+01 0. -1.
        -11    1    1    2    0    0 -0.33426780047E+02 -0.15624071683E+02 -0.62185697912E+02  0.72308521387E+02  0.00000000000E+00 0.  1.
         11    1    1    2    0    0  0.60524594185E+02 -0.51364800651E+02 -0.14782918550E+03  0.16779462844E+03  0.00000000000E+00 0. -1.
</event>
<event>
 7    1  0.8653652E-006  0.1222728E+03  0.7561462E-02  0.1239394E+00
          3   -1    0    0  501    0  0.00000000000E+00  0.00000000000E+00  0.50023590696E+02  0.50023590696E+02  0.00000000000E+00 0. -1.
         -3   -1    0    0    0  501 -0.00000000000E+00 -0.00000000000E+00 -0.38464098911E+03  0.38464098911E+03  0.00000000000E+00 0.  1.
         23    2    1    2    0    0  0.16019743331E+01  0.70962114422E+02 -0.26852370377E+03  0.30172158283E+03  0.11786749365E+03 0.  0.
          5    1    3    3  502    0  0.18754533065E+02  0.98116270861E+02 -0.16186131673E+03  0.19025008113E+03  0.41800000000E+01 0. -1.
         -5    1    3    3    0  502 -0.17152558732E+02 -0.27154156440E+02 -0.10666238704E+03  0.11147150170E+03  0.41800000000E+01 0.  1.
        -11    1    1    2    0    0 -0.68175970451E+01 -0.91110051064E+02 -0.40455269497E+02  0.99920717894E+02  0.00000000000E+00 0.  1.
         11    1    1    2    0    0  0.52156227120E+01  0.20147936642E+02 -0.25638425147E+02  0.33022279074E+02  0.00000000000E+00 0. -1.
</event>
<event>
 7    1  0.8653652E-006  0.9952651E+02  0.7561462E-02  0.1281295E+00
         -1   -1    0    0    0  501 -0.00000000000E+00  0.00000000000E+00  0.12514773575E+04  0.12514773575E+04  0.00000000000E+00 0.  1.
          1   -1    0    0  501    0  0.00000000000E+00 -0.00000000000E+00 -0.18460117245E+02  0.18460117245E+02  0.00000000000E+00 0. -1.
         23    2    1    2    0    0 -0.26230548305E+02 -0.81475204985E+02  0.92816692371E+03  0.94046144575E+03  0.12509053516E+03 0.  0.
          5    1    3    3  502    0 -0.36148746490E+02 -0.32943763482E+02  0.81944590068E+03  0.82091478241E+03  0.41800000000E+01 0. -1.
         -5    1    3    3    0  502  0.99181981850E+01 -0.48531441503E+02  0.10872102302E+03  0.11954666335E+03  0.41800000000E+01 0. -1.
        -11    1    1    2    0    0  0.41412363815E+02  0.47342975488E+02  0.27370482740E+03  0.28083923114E+03  0.00000000000E+00 0.  1.
         11    1    1    2    0    0 -0.15181815509E+02  0.34132229496E+02  0.31145489184E+02  0.48636797891E+02  0.00000000000E+00 0. -1.
</event>
<event>
 7    1  0.8653652E-006  0.1099672E+03  0.7561462E-02  0.1260631E+00
         -2   -1    0    0    0  501 -0.00000000000E+00  0.00000000000E+00  0.18562568401E+02  0.18562568401E+02  0.00000000000E+00 0.  1.
          2   -1    0    0  501    0  0.00000000000E+00 -0.00000000000E+00 -0.69552921522E+03  0.69552921522E+03  0.00000000000E+00 0. -1.
         23    2    1    2    0    0 -0.21692345285E+02 -0.28091145818E+02 -0.38426722951E+03  0.40566983368E+03  0.12508812880E+03 0.  0.
          5    1    3    3  502    0 -0.30797408981E+02  0.42023109242E+02 -0.10149769374E+03  0.11416512754E+03  0.41800000000E+01 0. -1.
         -5    1    3    3    0  502  0.91050636962E+01 -0.70114255060E+02 -0.28276953576E+03  0.29150470614E+03  0.41800000000E+01 0. -1.
        -11    1    1    2    0    0  0.50813959722E+02  0.40702121565E+02 -0.18365340931E+03  0.19485198473E+03  0.00000000000E+00 0.  1.
         11    1    1    2    0    0 -0.29121614437E+02 -0.12610975747E+02 -0.10904600801E+03  0.11356996521E+03  0.00000000000E+00 0. -1.
</event>
<event>
 7    1  0.8653652E-006  0.1036466E+03  0.7561462E-02  0.1272809E+00
         -2   -1    0    0    0  501 -0.00000000000E+00  0.00000000000E+00  0.19128132546E+03  0.19128132546E+03  0.00000000000E+00 0.  1.
          2   -1    0    0  501    0  0.00000000000E+00 -0.00000000000E+00 -0.10004606960E+03  0.10004606960E+03  0.00000000000E+00 0. -1.
         23    2    1    2    0    0  0.79569509468E+02  0.54562079320E+02  0.55565228337E+02  0.16746155451E+03  0.12509016869E+03 0.  0.
          5    1    3    3  502    0  0.46372089410E+02  0.16833352398E+02 -0.37164775088E+02  0.61906585567E+02  0.41800000000E+01 0.  1.
         -5    1    3    3    0  502  0.33197420058E+02  0.37728726921E+02  0.92730003425E+02  0.10555496894E+03  0.41800000000E+01 0.  1.
        -11    1    1    2    0    0 -0.64081149564E+02 -0.62876281092E+02  0.67597128918E+01  0.90030629075E+02  0.00000000000E+00 0. -1.
         11    1    1    2    0    0 -0.15488359905E+02  0.83142017723E+01  0.28910314626E+02  0.33835211473E+02  0.00000000000E+00 0.  1.
</event>
<event>
 7    1  0.8653652E-006  0.1098943E+03  0.7561462E-02  0.1260766E+00
          1   -1    0    0  501    0  0.00000000000E+00  0.00000000000E+00  0.25146234535E+03  0.25146234535E+03  0.00000000000E+00 0. -1.
         -1   -1    0    0    0  501 -0.00000000000E+00 -0.00000000000E+00 -0.55573868549E+02  0.55573868549E+02  0.00000000000E+00 0.  1.
         23    2    1    2    0    0  0.21550742834E+02  0.46036655952E+02  0.11522000276E+03  0.17750632391E+03  0.12509611418E+03 0.  0.
          5    1    3    3  502    0 -0.41316852455E+02  0.38867596638E+02  0.14855477419E+02  0.58787158245E+02  0.41800000000E+01 0.  1.
         -5    1    3    3    0  502  0.62867595288E+02  0.71690593138E+01  0.10036452534E+03  0.11871916566E+03  0.41800000000E+01 0.  1.
        -11    1    1    2    0    0  0.31204119642E+02 -0.28777540430E+01  0.14477195989E+02  0.34519092611E+02  0.00000000000E+00 0.  1.
         11    1    1    2    0    0 -0.52754862476E+02 -0.43158901909E+02  0.66191278056E+02  0.95010797384E+02  0.00000000000E+00 0. -1.
</event>
<event>
 7    1  0.8653652E-006  0.1149425E+03  0.7561462E-02  0.1251681E+00
         -4   -1    0    0    0  501 -0.00000000000E+00  0.00000000000E+00  0.33004030337E+03  0.33004030337E+03  0.00000000000E+00 0.  1.
          4   -1    0    0  501    0  0.00000000000E+00 -0.00000000000E+00 -0.77267046104E+02  0.77267046104E+02  0.00000000000E+00 0. -1.
         23    2    1    2    0    0 -0.51863631866E+02 -0.80298230844E+02  0.22061632982E+03  0.27102704421E+03  0.12508577665E+03 0.  0.
          5    1    3    3  502    0  0.29690751406E+01 -0.13144774633E+02  0.16992932996E+03  0.17051407592E+03  0.41800000000E+01 0.  1.
         -5    1    3    3    0  502 -0.54832707006E+02 -0.67153456211E+02  0.50686999869E+02  0.10051296829E+03  0.41800000000E+01 0.  1.
        -11    1    1    2    0    0  0.11206856876E+02 -0.18787651256E+02  0.17833357190E+02  0.28224069682E+02  0.00000000000E+00 0. -1.
         11    1    1    2    0    0  0.40656774990E+02  0.99085882100E+02  0.14323570253E+02  0.10805623559E+03  0.00000000000E+00 0.  1.
</event>
<event>
 7    1  0.8653652E-006  0.1074872E+03  0.7561462E-02  0.1265295E+00
         -2   -1    0    0    0  501 -0.00000000000E+00  0.00000000000E+00  0.25961364163E+03  0.25961364163E+03  0.00000000000E+00 0.  1.
          2   -1    0    0  501    0  0.00000000000E+00 -0.00000000000E+00 -0.61694479768E+02  0.61694479768E+02  0.00000000000E+00 0. -1.
         23    2    1    2    0    0 -0.21630056027E+02 -0.58695865850E+02  0.13477861905E+03  0.19423079871E+03  0.12508902040E+03 0.  0.
          5    1    3    3  502    0  0.29209504824E+02  0.26168908878E+02  0.26558096700E+02  0.47547995376E+02  0.41800000000E+01 0.  1.
         -5    1    3    3    0  502 -0.50839560851E+02 -0.84864774728E+02  0.10822052235E+03  0.14668280334E+03  0.41800000000E+01 0.  1.
        -11    1    1    2    0    0  0.33080772402E+02  0.55532861405E+02  0.18705870125E+01  0.64666338186E+02  0.00000000000E+00 0. -1.
         11    1    1    2    0    0 -0.11450716374E+02  0.31630044441E+01  0.61269955800E+02  0.62410984501E+02  0.00000000000E+00 0.  1.
</event>
<event>
 7    1  0.8653652E-006  0.1101836E+03  0.7561462E-02  0.1260230E+00
          1   -1    0    0  501    0  0.00000000000E+00  0.00000000000E+00  0.40535039479E+03  0.40535039479E+03  0.00000000000E+00 0. -1.
         -1   -1    0    0    0  501 -0.00000000000E+00 -0.00000000000E+00 -0.39393911465E+02  0.39393911465E+02  0.00000000000E+00 0.  1.
         23    2    1    2    0    0 -0.56434066489E+02  0.28049579776E+02  0.14902130792E+03  0.20452086990E+03  0.12509937341E+03 0.  0.
          5    1    3    3  502    0  0.35589420210E+02  0.13713930965E+02  0.79338945188E+02  0.88129560063E+02  0.41800000000E+01 0. -1.
         -5    1    3    3    0  502 -0.92023486699E+02  0.14335648810E+02  0.69682362728E+02  0.11639130984E+03  0.41800000000E+01 0. -1.
        -11    1    1    2    0    0 -0.28534315768E+01  0.15148915026E+02  0.54060388277E+01  0.16335756916E+02  0.00000000000E+00 0.  1.
         11    1    1    2    0    0  0.59287498066E+02 -0.43198494801E+02  0.21152913658E+03  0.22388767943E+03  0.00000000000E+00 0. -1.
</event>
<event>
 7    1  0.8653652E-006  0.2273149E+03  0.7561462E-02  0.1128544E+00
          3   -1    0    0  501    0  0.00000000000E+00  0.00000000000E+00  0.99802466735E+02  0.99802466735E+02  0.00000000000E+00 0. -1.
         -3   -1    0    0    0  501 -0.00000000000E+00 -0.00000000000E+00 -0.64992681131E+03  0.64992681131E+03  0.00000000000E+00 0.  1.
         23    2    1    2    0    0 -0.19984006428E+03  0.70752405614E+02 -0.41540870423E+03  0.48285971859E+03  0.12508861697E+03 0.  0.
          5    1    3    3  502    0 -0.20926281232E+03  0.64107937628E+02 -0.41652627221E+03  0.47054474828E+03  0.41800000000E+01 0. -1.
         -5    1    3    3    0  502  0.94227480434E+01  0.66444679858E+01  0.11175679857E+01  0.12314970309E+02  0.41800000000E+01 0. -1.
        -11    1    1    2    0    0  0.51674878924E+02 -0.53360544131E+02 -0.15444263022E+02  0.75869401223E+02  0.00000000000E+00 0. -1.
         11    1    1    2    0    0  0.14816518535E+03 -0.17391861483E+02 -0.11927137732E+03  0.19100015823E+03  0.00000000000E+00 0.  1.
</event>
<event>
 7    1  0.8653652E-006  0.1466326E+03  0.7561462E-02  0.1204673E+00
          2   -1    0    0  501    0  0.00000000000E+00  0.00000000000E+00  0.67440760256E+03  0.67440760256E+03  0.00000000000E+00 0.  1.
         -2   -1    0    0    0  501 -0.00000000000E+00 -0.00000000000E+00 -0.50356436400E+02  0.50356436400E+02  0.00000000000E+00 0. -1.
         23    2    1    2    0    0  0.65491153483E+02  0.82517969480E+02  0.12745390635E+03  0.20734232747E+03  0.12509211024E+03 0.  0.
          5    1    3    3  502    0  0.93827447943E+02  0.47908916261E+02  0.12329143006E+03  0.16222547078E+03  0.41800000000E+01 0. -1.
         -5    1    3    3    0  502 -0.28336294460E+02  0.34609053220E+02  0.41624762968E+01  0.45116856688E+02  0.41800000000E+01 0. -1.
        -11    1    1    2    0    0 -0.56612631696E+02 -0.10469356381E+03  0.44361248130E+03  0.45930138900E+03  0.00000000000E+00 0.  1.
         11    1    1    2    0    0 -0.88785217868E+01  0.22175594333E+02  0.52984778505E+02  0.58120322490E+02  0.00000000000E+00 0. -1.
</event>
<event>
 7    1  0.8653652E-006  0.1378993E+03  0.7561462E-02  0.1216184E+00
         -1   -1    0    0    0  501 -0.00000000000E+00  0.00000000000E+00  0.55574300927E+03  0.55574300927E+03  0.00000000000E+00 0.  1.
          1   -1    0    0  501    0  0.00000000000E+00 -0.00000000000E+00 -0.43451995158E+02  0.43451995158E+02  0.00000000000E+00 0. -1.
         23    2    1    2    0    0  0.93983610501E+02 -0.40661384161E+02  0.35497286936E+03  0.39005033339E+03  0.12508899790E+03 0.  0.
          5    1    3    3  502    0  0.51882690032E+02  0.37299982846E+02  0.21504479906E+03  0.22437655904E+03  0.41800000000E+01 0. -1.
         -5    1    3    3    0  502  0.42100920468E+02 -0.77961367007E+02  0.13992807030E+03  0.16567377435E+03  0.41800000000E+01 0. -1.
        -11    1    1    2    0    0  0.10566506081E+02 -0.78549838646E+00  0.58441774929E+02  0.59394520920E+02  0.00000000000E+00 0.  1.
         11    1    1    2    0    0 -0.10455011658E+03  0.41446882547E+02  0.98876369831E+02  0.14975015012E+03  0.00000000000E+00 0. -1.
</event>
<event>
 7    1  0.8653652E-006  0.1404809E+03  0.7561462E-02  0.1212683E+00
         -1   -1    0    0    0  501 -0.00000000000E+00  0.00000000000E+00  0.89347810246E+02  0.89347810246E+02  0.00000000000E+00 0.  1.
          1   -1    0    0  501    0  0.00000000000E+00 -0.00000000000E+00 -0.23418815128E+03  0.23418815128E+03  0.00000000000E+00 0. -1.
         23    2    1    2    0    0  0.88525715767E+02 -0.34945062795E+02 -0.70693310313E+02  0.17234563607E+03  0.12509002512E+03 0.  0.
          5    1    3    3  502    0  0.78540034625E+02 -0.78385204271E+02 -0.60412439832E+02  0.12641167895E+03  0.41800000000E+01 0. -1.
         -5    1    3    3    0  502  0.99856811419E+01  0.43440141476E+02 -0.10280870481E+02  0.45933957125E+02  0.41800000000E+01 0. -1.
        -11    1    1    2    0    0 -0.10431420675E+03  0.31791103914E+02 -0.45159922532E+02  0.11803197288E+03  0.00000000000E+00 0.  1.
         11    1    1    2    0    0  0.15788490988E+02  0.31539588817E+01 -0.28987108189E+02  0.33158352574E+02  0.00000000000E+00 0. -1.
</event>
<event>
 7    1  0.8653652E-006  0.1279632E+03  0.7561462E-02  0.1230510E+00
         -1   -1    0    0    0  501 -0.00000000000E+00  0.00000000000E+00  0.78870205848E+02  0.78870205848E+02  0.00000000000E+00 0.  1.
          1   -1    0    0  501    0  0.00000000000E+00 -0.00000000000E+00 -0.33095602427E+03  0.33095602427E+03  0.00000000000E+00 0. -1.
         23    2    1    2    0    0 -0.94562927382E+02 -0.73549088264E+02 -0.13199286470E+03  0.21776297142E+03  0.12508788819E+03 0.  0.
          5    1    3    3  502    0 -0.66493122290E+02 -0.18844392367E+02  0.30680848560E+01  0.69306074627E+02  0.41800000000E+01 0.  1.
         -5    1    3    3    0  502 -0.28069805092E+02 -0.54704695897E+02 -0.13506094956E+03  0.14845689680E+03  0.41800000000E+01 0.  1.
        -11    1    1    2    0    0  0.25603228281E+02  0.19882017314E+01 -0.81504264794E+02  0.85454218294E+02  0.00000000000E+00 0. -1.
         11    1    1    2    0    0  0.68959699101E+02  0.71560886533E+02 -0.38588688922E+02  0.10660904040E+03  0.00000000000E+00 0.  1.
</event>
<event>
 7    1  0.8653652E-006  0.1408447E+03  0.7561462E-02  0.1212197E+00
          2   -1    0    0  501    0  0.00000000000E+00  0.00000000000E+00  0.59543016398E+03  0.59543016398E+03  0.00000000000E+00 0. -1.
         -2   -1    0    0    0  501 -0.00000000000E+00 -0.00000000000E+00 -0.63172372621E+02  0.63172372621E+02  0.00000000000E+00 0.  1.
         23    2    1    2    0    0 -0.69929341256E+02  0.89537215737E+02  0.86249462189E+02  0.18971686198E+03  0.12508593934E+03 0.  0.
          5    1    3    3  502    0 -0.58102117656E+02 -0.84610597169E+01  0.66778788504E+02  0.89018675578E+02  0.41800000000E+01 0.  1.
         -5    1    3    3    0  502 -0.11827223600E+02  0.97998275454E+02  0.19470673685E+02  0.10069818640E+03  0.41800000000E+01 0.  1.
        -11    1    1    2    0    0  0.14480263467E+02 -0.58949308268E+02  0.34021213770E+03  0.34558500780E+03  0.00000000000E+00 0. -1.
         11    1    1    2    0    0  0.55449077790E+02 -0.30587907469E+02  0.10579619147E+03  0.12330066683E+03  0.00000000000E+00 0.  1.
</event>
<event>
 7    1  0.1167947E-005  0.2401333E+03  0.7561462E-02  0.1119704E+00
         -1   -1    0    0    0  501 -0.00000000000E+00  0.00000000000E+00  0.87228197770E+02  0.87228197770E+02  0.00000000000E+00 0.  1.
          1   -1    0    0  501    0  0.00000000000E+00 -0.00000000000E+00 -0.67993197953E+03  0.67993197953E+03  0.00000000000E+00 0. -1.
         23    2    1    2    0    0  0.22821372688E+02  0.21724469155E+03 -0.29577302079E+03  0.38838723524E+03  0.12508754380E+03 0.  0.
          5    1    3    3  502    0 -0.49358342531E+02  0.10614899948E+03 -0.16348001377E+03  0.20111450314E+03  0.41800000000E+01 0. -1.
         -5    1    3    3    0  502  0.72179715219E+02  0.11109569207E+03 -0.13229300702E+03  0.18727273211E+03  0.41800000000E+01 0. -1.
        -11    1    1    2    0    0  0.23378523556E+02 -0.12764893437E+03 -0.12946921632E+03  0.18331143931E+03  0.00000000000E+00 0.  1.
         11    1    1    2    0    0 -0.46199896245E+02 -0.89595757180E+02 -0.16746154465E+03  0.19546150274E+03  0.00000000000E+00 0. -1.
</event>
<event>
 7    1  0.8653652E-006  0.1736005E+03  0.7561462E-02  0.1174144E+00
          1   -1    0    0  501    0  0.00000000000E+00  0.00000000000E+00  0.68669789775E+03  0.68669789775E+03  0.00000000000E+00 0. -1.
         -1   -1    0    0    0  501 -0.00000000000E+00 -0.00000000000E+00 -0.12721268347E+03  0.12721268347E+03  0.00000000000E+00 0.  1.
         23    2    1    2    0    0 -0.37961842566E+02  0.13551375668E+03 -0.39067844541E+02  0.19230436198E+03  0.12509832700E+03 0.  0.
          5    1    3    3  502    0  0.45797080456E+02  0.45518929619E+02 -0.20648587259E+02  0.67920409949E+02  0.41800000000E+01 0.  1.
         -5    1    3    3    0  502 -0.83758923022E+02  0.89994827062E+02 -0.18419257283E+02  0.12438395203E+03  0.41800000000E+01 0.  1.
        -11    1    1    2    0    0  0.26870222987E+02 -0.36078068126E+01  0.45787610934E+02  0.53212127080E+02  0.00000000000E+00 0. -1.
         11    1    1    2    0    0  0.11091619579E+02 -0.13190594987E+03  0.55276544788E+03  0.56839409216E+03  0.00000000000E+00 0.  1.
</event>
<event>
 7    1  0.8653652E-006  0.8161416E+02  0.7561462E-02  0.1324532E+00
         -2   -1    0    0    0  501 -0.00000000000E+00  0.00000000000E+00  0.12926465673E+03  0.12926465673E+03  0.00000000000E+00 0. -1.
          2   -1    0    0  501    0  0.00000000000E+00 -0.00000000000E+00 -0.12408987978E+03  0.12408987978E+03  0.00000000000E+00 0.  1.
         23    2    1    2    0    0  0.39234633906E+02 -0.34361137781E+02  0.42975248681E+02  0.14217856039E+03  0.12509127367E+03 0.  0.
          5    1    3    3  502    0 -0.52178036357E+01 -0.43547056256E+02 -0.31987158530E+02  0.54444671862E+02  0.41800000000E+01 0. -1.
         -5    1    3    3    0  502  0.44452437542E+02  0.91859184754E+01  0.74962407211E+02  0.87733888530E+02  0.41800000000E+01 0. -1.
        -11    1    1    2    0    0 -0.20707460927E+02 -0.11809400773E+02 -0.53859517789E+02  0.58899138713E+02  0.00000000000E+00 0.  1.
         11    1    1    2    0    0 -0.18527172980E+02  0.46170538554E+02  0.16059046061E+02  0.52276837408E+02  0.00000000000E+00 0. -1.
</event>
<event>
 7    1  0.8653652E-006  0.1099918E+03  0.7561462E-02  0.1260585E+00
          2   -1    0    0  501    0  0.00000000000E+00  0.00000000000E+00  0.89337691576E+02  0.89337691576E+02  0.00000000000E+00 0. -1.
         -2   -1    0    0    0  501 -0.00000000000E+00 -0.00000000000E+00 -0.15967978286E+03  0.15967978286E+03  0.00000000000E+00 0.  1.
         23    2    1    2    0    0  0.43701325258E+02  0.13080659669E+02 -0.57042498874E+02  0.14485120261E+03  0.12508842765E+03 0.  0.
          5    1    3    3  502    0  0.81024288044E+01  0.61580444398E+02 -0.60482347873E+00  0.62254627910E+02  0.41800000000E+01 0.  1.
         -5    1    3    3    0  502  0.35598896453E+02 -0.48499784729E+02 -0.56437675395E+02  0.82596574696E+02  0.41800000000E+01 0.  1.
        -11    1    1    2    0    0 -0.46970799826E+02  0.29009897912E+02 -0.24634090599E+02  0.60453855401E+02  0.00000000000E+00 0.  1.
         11    1    1    2    0    0  0.32694745681E+01 -0.42090557581E+02  0.11334498184E+02  0.43712416434E+02  0.00000000000E+00 0. -1.
</event>
<event>
 7    1  0.8653652E-006  0.1126133E+03  0.7561462E-02  0.1255806E+00
          1   -1    0    0  501    0  0.00000000000E+00  0.00000000000E+00  0.37863381886E+03  0.37863381886E+03  0.00000000000E+00 0. -1.
         -1   -1    0    0    0  501 -0.00000000000E+00 -0.00000000000E+00 -0.40866752779E+02  0.40866752779E+02  0.00000000000E+00 0.  1.
         23    2    1    2    0    0 -0.39371430622E+02 -0.30672504981E+02  0.12854450228E+03  0.18617444593E+03  0.12508526348E+03 0.  0.
          5    1    3    3  502    0  0.19061804744E+02 -0.64251963458E+02  0.63869846413E+02  0.92674143585E+02  0.41800000000E+01 0. -1.
         -5    1    3    3    0  502 -0.58433235366E+02  0.33579458478E+02  0.64674655866E+02  0.93500302343E+02  0.41800000000E+01 0. -1.
        -11    1    1    2    0    0 -0.50575895749E+01  0.43904533867E+02  0.46595741534E+02  0.64221105841E+02  0.00000000000E+00 0.  1.
         11    1    1    2    0    0  0.44429020197E+02 -0.13232028886E+02  0.16262682227E+03  0.16910501987E+03  0.00000000000E+00 0. -1.
</event>
<event>
 7    1  0.8653652E-006  0.1875965E+03  0.7561462E-02  0.1160647E+00
         -1   -1    0    0    0  501 -0.00000000000E+00  0.00000000000E+00  0.42733158922E+02  0.42733158922E+02  0.00000000000E+00 0.  1.
          1   -1    0    0  501    0  0.00000000000E+00 -0.00000000000E+00 -0.11364865290E+04  0.11364865290E+04  0.00000000000E+00 0. -1.
         23    2    1    2    0    0 -0.13885930839E+03 -0.73538117092E+02 -0.27474499054E+03  0.34032735387E+03  0.12509250888E+03 0.  0.
          5    1    3    3  502    0 -0.15340796033E+03 -0.39455458007E+02 -0.18777111723E+03  0.24569534046E+03  0.41800000000E+01 0.  1.
         -5    1    3    3    0  502  0.14548651945E+02 -0.34082659084E+02 -0.86973873306E+02  0.94632013407E+02  0.41800000000E+01 0.  1.
        -11    1    1    2    0    0  0.79699294969E+02 -0.64452524984E+01 -0.30244064373E+03  0.31283200265E+03  0.00000000000E+00 0.  1.
         11    1    1    2    0    0  0.59160013417E+02  0.79983369590E+02 -0.51656773583E+03  0.52606033142E+03  0.00000000000E+00 0. -1.
</event>
<event>
 7    1  0.8653652E-006  0.2487627E+03  0.7561462E-02  0.1114089E+00
         -3   -1    0    0    0  501 -0.00000000000E+00  0.00000000000E+00  0.93057274926E+03  0.93057274926E+03  0.00000000000E+00 0.  1.
          3   -1    0    0  501    0  0.00000000000E+00 -0.00000000000E+00 -0.76189191748E+02  0.76189191748E+02  0.00000000000E+00 0. -1.
         23    2    1    2    0    0 -0.15481449166E+03 -0.17067129691E+03  0.59551543914E+03  0.64839848194E+03  0.11263096692E+03 0.  0.
          5    1    3    3  502    0  0.11418658694E+02  0.42942616446E+01  0.54055111096E+02  0.55572060291E+02  0.41800000000E+01 0. -1.
         -5    1    3    3    0  502 -0.16623315035E+03 -0.17496555855E+03  0.54146032805E+03  0.59282642165E+03  0.41800000000E+01 0.  1.
        -11    1    1    2    0    0 -0.64590570584E+01  0.25356748087E+02  0.53375144696E+02  0.59444008638E+02  0.00000000000E+00 0.  1.
         11    1    1    2    0    0  0.16127354872E+03  0.14531454882E+03  0.20549297367E+03  0.29891945042E+03  0.00000000000E+00 0. -1.
</event>
<event>
 7    1  0.8653652E-006  0.1024127E+03  0.7561462E-02  0.1275303E+00
         -3   -1    0    0    0  501 -0.00000000000E+00  0.00000000000E+00  0.44772236208E+03  0.44772236208E+03  0.00000000000E+00 0.  1.
          3   -1    0    0  501    0  0.00000000000E+00 -0.00000000000E+00 -0.56032827045E+02  0.56032827045E+02  0.00000000000E+00 0. -1.
         23    2    1    2    0    0 -0.32928921767E+02  0.37767704248E+02  0.37431555160E+03  0.39783388019E+03  0.12509576606E+03 0.  0.
          5    1    3    3  502    0  0.25613682009E+02 -0.81178462013E+01  0.15364068636E+02  0.31232789470E+02  0.41800000000E+01 0. -1.
         -5    1    3    3    0  502 -0.58542603776E+02  0.45885550449E+02  0.35895148296E+03  0.36660109072E+03  0.41800000000E+01 0. -1.
        -11    1    1    2    0    0  0.10564103793E+02 -0.66155628781E+02  0.19336771444E+02  0.69728604161E+02  0.00000000000E+00 0.  1.
         11    1    1    2    0    0  0.22364817974E+02  0.28387924534E+02 -0.19627880038E+01  0.36192704777E+02  0.00000000000E+00 0. -1.
</event>
<event>
 7    1  0.8653652E-006  0.3003256E+03  0.7561462E-02  0.1085078E+00
         -1   -1    0    0    0  501 -0.00000000000E+00  0.00000000000E+00  0.88031843976E+02  0.88031843976E+02  0.00000000000E+00 0.  1.
          1   -1    0    0  501    0  0.00000000000E+00 -0.00000000000E+00 -0.13804600191E+04  0.13804600191E+04  0.00000000000E+00 0. -1.
         23    2    1    2    0    0  0.17368671616E+03  0.23402219272E+03 -0.32732338941E+03  0.45576528461E+03  0.12509169175E+03 0.  0.
          5    1    3    3  502    0 -0.52025651502E+01  0.61770751870E+01  0.83594416726E+01  0.12352149897E+02  0.41800000000E+01 0.  1.
         -5    1    3    3    0  502  0.17888928131E+03  0.22784511754E+03 -0.33568283109E+03  0.44341313472E+03  0.41800000000E+01 0.  1.
        -11    1    1    2    0    0 -0.11270505575E+03 -0.20582379954E+03 -0.81823134258E+03  0.85121583398E+03  0.00000000000E+00 0. -1.
         11    1    1    2    0    0 -0.60981660410E+02 -0.28198393188E+02 -0.14687344317E+03  0.16151074452E+03  0.00000000000E+00 0.  1.
</event>
<event>
 7    1  0.8653652E-006  0.1327936E+03  0.7561462E-02  0.1223368E+00
         -1   -1    0    0    0  501 -0.00000000000E+00  0.00000000000E+00  0.48457474916E+03  0.48457474916E+03  0.00000000000E+00 0.  1.
          1   -1    0    0  501    0  0.00000000000E+00 -0.00000000000E+00 -0.57545482653E+02  0.57545482653E+02  0.00000000000E+00 0. -1.
         23    2    1    2    0    0  0.26254070238E+02  0.11638424697E+03  0.22456653585E+03  0.28339410840E+03  0.12509005757E+03 0.  0.
          5    1    3    3  502    0  0.24207994658E+02  0.20594384401E+02 -0.69490376583E+01  0.32801176787E+02  0.41800000000E+01 0. -1.
         -5    1    3    3    0  502  0.20460755800E+01  0.95789862569E+02  0.23151557351E+03  0.25059293161E+03  0.41800000000E+01 0. -1.
        -11    1    1    2    0    0  0.22864207262E+02 -0.50628397000E+02  0.15329477960E+03  0.16304998010E+03  0.00000000000E+00 0.  1.
         11    1    1    2    0    0 -0.49118277500E+02 -0.65755849970E+02  0.49167951059E+02  0.95676143323E+02  0.00000000000E+00 0. -1.
</event>
<event>
 7    1  0.8653652E-006  0.1210363E+03  0.7561462E-02  0.1241397E+00
          2   -1    0    0  501    0  0.00000000000E+00  0.00000000000E+00  0.40058616323E+03  0.40058616323E+03  0.00000000000E+00 0.  1.
         -2   -1    0    0    0  501 -0.00000000000E+00 -0.00000000000E+00 -0.46796985625E+02  0.46796985625E+02  0.00000000000E+00 0. -1.
         23    2    1    2    0    0 -0.10813499386E+02 -0.82736220947E+02  0.18928513088E+03  0.24174806043E+03  0.12510415629E+03 0.  0.
          5    1    3    3  502    0 -0.52020443242E+02 -0.93647901811E+02  0.12775276820E+03  0.16677619198E+03  0.41800000000E+01 0.  1.
         -5    1    3    3    0  502  0.41206943856E+02  0.10911680863E+02  0.61532362678E+02  0.74971868444E+02  0.41800000000E+01 0.  1.
        -11    1    1    2    0    0 -0.79503183756E+01  0.67209921161E+02  0.16791671291E+03  0.18104254621E+03  0.00000000000E+00 0.  1.
         11    1    1    2    0    0  0.18763817761E+02  0.15526299787E+02 -0.34126661883E+01  0.24592542214E+02  0.00000000000E+00 0. -1.
</event>
<event>
 7    1  0.8653652E-006  0.8513287E+02  0.7561462E-02  0.1315085E+00
         -2   -1    0    0    0  501 -0.00000000000E+00  0.00000000000E+00  0.26097135405E+03  0.26097135405E+03  0.00000000000E+00 0.  1.
          2   -1    0    0  501    0  0.00000000000E+00 -0.00000000000E+00 -0.11405797054E+03  0.11405797054E+03  0.00000000000E+00 0. -1.
         23    2    1    2    0    0 -0.53474400404E+02 -0.66138396134E+01  0.21045137374E+03  0.25068068068E+03  0.12509104119E+03 0.  0.
          5    1    3    3  502    0 -0.37352653882E+02 -0.41706376984E+02  0.20364776688E+03  0.21124518453E+03  0.41800000000E+01 0.  1.
         -5    1    3    3    0  502 -0.16121746522E+02  0.35092537370E+02  0.68036068560E+01  0.39435496146E+02  0.41800000000E+01 0.  1.
        -11    1    1    2    0    0  0.55042776346E+02 -0.12216630362E+02 -0.80952430404E+02  0.98652163046E+02  0.00000000000E+00 0. -1.
         11    1    1    2    0    0 -0.15683759415E+01  0.18830469975E+02  0.17414440177E+02  0.25696480873E+02  0.00000000000E+00 0.  1.
</event>
<event>
 7    1  0.8653652E-006  0.1433929E+03  0.7561462E-02  0.1208835E+00
         -2   -1    0    0    0  501 -0.00000000000E+00  0.00000000000E+00  0.18196613678E+03  0.18196613678E+03  0.00000000000E+00 0.  1.
          2   -1    0    0  501    0  0.00000000000E+00 -0.00000000000E+00 -0.21866176278E+03  0.21866176278E+03  0.00000000000E+00 0. -1.
         23    2    1    2    0    0  0.47328640495E+02 -0.11030342436E+03  0.97649456890E+02  0.19897451183E+03  0.12509434157E+03 0.  0.
          5    1    3    3  502    0  0.36957955768E+02 -0.11741216618E+03  0.12066275077E+03  0.17241948581E+03  0.41800000000E+01 0.  1.
         -5    1    3    3    0  502  0.10370684727E+02  0.71087418173E+01 -0.23013293884E+02  0.26555026028E+02  0.41800000000E+01 0.  1.
        -11    1    1    2    0    0 -0.74445882879E+02  0.73089475210E+02 -0.92083055068E+02  0.13915297300E+03  0.00000000000E+00 0.  1.
         11    1    1    2    0    0  0.27117242383E+02  0.37213949151E+02 -0.42262027818E+02  0.62500414728E+02  0.00000000000E+00 0. -1.
</event>
<event>
 7    1  0.8653652E-006  0.9165519E+02  0.7561462E-02  0.1298892E+00
         -3   -1    0    0    0  501 -0.00000000000E+00  0.00000000000E+00  0.31341945890E+03  0.31341945890E+03  0.00000000000E+00 0.  1.
          3   -1    0    0  501    0  0.00000000000E+00 -0.00000000000E+00 -0.71844013171E+02  0.71844013171E+02  0.00000000000E+00 0. -1.
         23    2    1    2    0    0  0.45497713710E+01 -0.17858221211E+02  0.25897639181E+03  0.28819270994E+03  0.12508657027E+03 0.  0.
          5    1    3    3  502    0  0.27394620571E+02 -0.63645486379E+02  0.18943377257E+03  0.20175192629E+03  0.41800000000E+01 0. -1.
         -5    1    3    3    0  502 -0.22844849200E+02  0.45787265168E+02  0.69542619238E+02  0.86440783644E+02  0.41800000000E+01 0. -1.
        -11    1    1    2    0    0  0.20517505913E+02 -0.11841040560E+02  0.28413074679E+02  0.36992987216E+02  0.00000000000E+00 0.  1.
         11    1    1    2    0    0 -0.25067277284E+02  0.29699261771E+02 -0.45814020763E+02  0.60077774914E+02  0.00000000000E+00 0. -1.
</event>
<event>
 7    1  0.8653652E-006  0.1885483E+03  0.7561462E-02  0.1159777E+00
         -2   -1    0    0    0  501 -0.00000000000E+00  0.00000000000E+00  0.47178759477E+02  0.47178759477E+02  0.00000000000E+00 0. -1.
          2   -1    0    0  501    0  0.00000000000E+00 -0.00000000000E+00 -0.90936193721E+03  0.90936193721E+03  0.00000000000E+00 0.  1.
         23    2    1    2    0    0 -0.10759495286E+03 -0.12145169857E+03 -0.28739708481E+03  0.35294899390E+03  0.12509483991E+03 0.  0.
          5    1    3    3  502    0 -0.39614864674E+01 -0.82057540676E+02 -0.66583968761E+02  0.10583019726E+03  0.41800000000E+01 0. -1.
         -5    1    3    3    0  502 -0.10363346639E+03 -0.39394157898E+02 -0.22081311605E+03  0.24711879664E+03  0.41800000000E+01 0. -1.
        -11    1    1    2    0    0 -0.72561305928E+01  0.45778878799E+02 -0.12929048203E+03  0.13734768261E+03  0.00000000000E+00 0. -1.
         11    1    1    2    0    0  0.11485108345E+03  0.75672819775E+02 -0.44549561090E+03  0.46624402018E+03  0.00000000000E+00 0.  1.
</event>
<event>
 7    1  0.8653652E-006  0.1034916E+03  0.7561462E-02  0.1273120E+00
          1   -1    0    0  501    0  0.00000000000E+00  0.00000000000E+00  0.14241485610E+03  0.14241485610E+03  0.00000000000E+00 0. -1.
         -1   -1    0    0    0  501 -0.00000000000E+00 -0.00000000000E+00 -0.88900516184E+02  0.88900516184E+02  0.00000000000E+00 0.  1.
         23    2    1    2    0    0 -0.25343941820E+01  0.28121840672E+02  0.29344970262E+02  0.13155669885E+03  0.12509507047E+03 0.  0.
          5    1    3    3  502    0 -0.50548005563E+02  0.49035481035E+02  0.34932600936E+02  0.78723174954E+02  0.41800000000E+01 0. -1.
         -5    1    3    3    0  502  0.48013611381E+02 -0.20913640362E+02 -0.55876306746E+01  0.52833523899E+02  0.41800000000E+01 0. -1.
        -11    1    1    2    0    0 -0.17342915203E+02 -0.50836796592E+02 -0.94923717496E+01  0.54545959675E+02  0.00000000000E+00 0.  1.
         11    1    1    2    0    0  0.19877309385E+02  0.22714955920E+02  0.33661741404E+02  0.45212713756E+02  0.00000000000E+00 0. -1.
</event>
<event>
 7    1  0.8653652E-006  0.1068031E+03  0.7561462E-02  0.1266607E+00
         -2   -1    0    0    0  501 -0.00000000000E+00  0.00000000000E+00  0.72632122907E+02  0.72632122907E+02  0.00000000000E+00 0.  1.
          2   -1    0    0  501    0  0.00000000000E+00 -0.00000000000E+00 -0.32812784961E+03  0.32812784961E+03  0.00000000000E+00 0. -1.
         23    2    1    2    0    0 -0.85483423701E+02 -0.15228707368E+01 -0.49693878411E+02  0.15953363311E+03  0.12518691497E+03 0.  0.
          5    1    3    3  502    0 -0.64410766131E+01  0.80783202921E+01 -0.75044497479E+02  0.75867619763E+02  0.41800000000E+01 0. -1.
         -5    1    3    3    0  502 -0.79042347088E+02 -0.96011910289E+01  0.25350619068E+02  0.83666013348E+02  0.41800000000E+01 0.  1.
        -11    1    1    2    0    0  0.13567660367E+01  0.32909054294E+02 -0.33777736789E+02  0.47178195930E+02  0.00000000000E+00 0.  1.
         11    1    1    2    0    0  0.84126657664E+02 -0.31386183557E+02 -0.17202411150E+03  0.19404814347E+03  0.00000000000E+00 0. -1.
</event>
<event>
 7    1  0.8653652E-006  0.1238961E+03  0.7561462E-02  0.1236805E+00
         -1   -1    0    0    0  501 -0.00000000000E+00  0.00000000000E+00  0.36165592465E+03  0.36165592465E+03  0.00000000000E+00 0.  1.
          1   -1    0    0  501    0  0.00000000000E+00 -0.00000000000E+00 -0.85001823498E+02  0.85001823498E+02  0.00000000000E+00 0. -1.
         23    2    1    2    0    0  0.20184552937E+02 -0.63636560297E+02  0.30214215042E+03  0.33141472698E+03  0.11869631089E+03 0.  0.
          5    1    3    3  502    0 -0.20547136944E+02  0.28464843524E+02  0.75146182430E+02  0.83047295484E+02  0.41800000000E+01 0. -1.
         -5    1    3    3    0  502  0.40731689881E+02 -0.92101403821E+02  0.22699596799E+03  0.24836743150E+03  0.41800000000E+01 0.  1.
        -11    1    1    2    0    0  0.23733026269E+01 -0.22489338033E+02  0.76455013765E-01  0.22614348009E+02  0.00000000000E+00 0.  1.
         11    1    1    2    0    0 -0.22557855564E+02  0.86125898330E+02 -0.25564504282E+02  0.92628673153E+02  0.00000000000E+00 0. -1.
</event>
<event>
 7    1  0.8653652E-006  0.1342763E+03  0.7561462E-02  0.1221245E+00
         -1   -1    0    0    0  501 -0.00000000000E+00  0.00000000000E+00  0.17439924236E+02  0.17439924236E+02  0.00000000000E+00 0.  1.
          1   -1    0    0  501    0  0.00000000000E+00 -0.00000000000E+00 -0.11766327801E+04  0.11766327801E+04  0.00000000000E+00 0. -1.
         23    2    1    2    0    0  0.86895903109E+02  0.29236511688E+02 -0.60950491345E+03  0.62892825659E+03  0.12509532693E+03 0.  0.
          5    1    3    3  502    0  0.11031723931E+03  0.23266708140E+02 -0.57847450743E+03  0.58937378729E+03  0.41800000000E+01 0.  1.
         -5    1    3    3    0  502 -0.23421336199E+02  0.59698035487E+01 -0.31030406022E+02  0.39554469301E+02  0.41800000000E+01 0.  1.
        -11    1    1    2    0    0 -0.10689815169E+03 -0.30487706447E+02 -0.47199660884E+03  0.48490979969E+03  0.00000000000E+00 0.  1.
         11    1    1    2    0    0  0.20002248584E+02  0.12511947588E+01 -0.77691333595E+02  0.80234648079E+02  0.00000000000E+00 0. -1.
</event>
<event>
 7    1  0.8653652E-006  0.4656721E+03  0.7561462E-02  0.1023149E+00
         -1   -1    0    0    0  501 -0.00000000000E+00  0.00000000000E+00  0.11280305660E+03  0.11280305660E+03  0.00000000000E+00 0.  1.
          1   -1    0    0  501    0  0.00000000000E+00 -0.00000000000E+00 -0.22632019555E+04  0.22632019555E+04  0.00000000000E+00 0. -1.
         23    2    1    2    0    0 -0.21760565631E+03 -0.40906699740E+03 -0.67741291623E+03  0.82909104196E+03  0.11754006455E+03 0.  0.
          5    1    3    3  502    0 -0.66883690279E+02 -0.11887931332E+03 -0.30081977225E+03  0.33032669728E+03  0.41800000000E+01 0. -1.
         -5    1    3    3    0  502 -0.15072196603E+03 -0.29018768408E+03 -0.37659314398E+03  0.49876434468E+03  0.41800000000E+01 0.  1.
        -11    1    1    2    0    0  0.84091412798E+02  0.96691570420E+02 -0.50667630112E+03  0.52262940945E+03  0.00000000000E+00 0. -1.
         11    1    1    2    0    0  0.13351424351E+03  0.31237542698E+03 -0.96630968152E+03  0.10242845607E+04  0.00000000000E+00 0.  1.
</event>
<event>
 7    1  0.8653652E-006  0.1377666E+03  0.7561462E-02  0.1216366E+00
         -1   -1    0    0    0  501 -0.00000000000E+00  0.00000000000E+00  0.13419641986E+03  0.13419641986E+03  0.00000000000E+00 0.  1.
          1   -1    0    0  501    0  0.00000000000E+00 -0.00000000000E+00 -0.19595901535E+03  0.19595901535E+03  0.00000000000E+00 0. -1.
         23    2    1    2    0    0 -0.87915249465E+02  0.69303783109E+02  0.32044184305E+01  0.16789858187E+03  0.12509020767E+03 0.  0.
          5    1    3    3  502    0 -0.11141697936E+03  0.60318856087E+02  0.30663222603E+02  0.13042167500E+03  0.41800000000E+01 0.  1.
         -5    1    3    3    0  502  0.23501729899E+02  0.89849270225E+01 -0.27458804172E+02  0.37476906868E+02  0.41800000000E+01 0.  1.
        -11    1    1    2    0    0  0.44189541305E+02 -0.65978955052E+02  0.51275354735E+01  0.79575308297E+02  0.00000000000E+00 0.  1.
         11    1    1    2    0    0  0.43725708160E+02 -0.33248280572E+01 -0.70094549393E+02  0.82681545041E+02  0.00000000000E+00 0. -1.
</event>
<event>
 6    1  0.8653652E-006  0.1306789E+03  0.7561462E-02  0.1226452E+00
          1   -1    0    0  501    0  0.00000000000E+00  0.00000000000E+00  0.93923278559E+03  0.93923278559E+03  0.00000000000E+00 0. -1.
         -1   -1    0    0    0  501 -0.00000000000E+00 -0.00000000000E+00 -0.19415869755E+02  0.19415869755E+02  0.00000000000E+00 0.  1.
          5    1    1    2  502    0  0.33883550102E+00 -0.10137006235E+03  0.39792013676E+03  0.41065059599E+03  0.41800000000E+01 0. -1.
         -5    1    1    2    0  502 -0.28747562247E+02  0.48978988214E+02  0.14910395668E+03  0.15960835166E+03  0.41800000000E+01 0.  1.
        -11    1    1    2    0    0  0.46554528305E+02 -0.99943791298E+00  0.23382956028E+03  0.23842102726E+03  0.00000000000E+00 0. -1.
         11    1    1    2    0    0 -0.18145801559E+02  0.53390512051E+02  0.13896326212E+03  0.14996868043E+03  0.00000000000E+00 0.  1.
</event>
<event>
 7    1  0.8653652E-006  0.9920433E+02  0.7561462E-02  0.1281978E+00
          1   -1    0    0  501    0  0.00000000000E+00  0.00000000000E+00  0.11567022746E+03  0.11567022746E+03  0.00000000000E+00 0. -1.
         -1   -1    0    0    0  501 -0.00000000000E+00 -0.00000000000E+00 -0.12048983747E+03  0.12048983747E+03  0.00000000000E+00 0.  1.
         23    2    1    2    0    0 -0.23998063030E+02  0.39989478781E+02 -0.22447906932E+02  0.13537449565E+03  0.12508908867E+03 0.  0.
          5    1    3    3  502    0 -0.73273857754E+02  0.32041026696E+02  0.95829376983E+00  0.80087928858E+02  0.41800000000E+01 0.  1.
         -5    1    3    3    0  502  0.49275794724E+02  0.79484520847E+01 -0.23406200702E+02  0.55286566791E+02  0.41800000000E+01 0.  1.
        -11    1    1    2    0    0  0.68966974531E+01 -0.48603716504E+02 -0.24237919439E+02  0.54748172869E+02  0.00000000000E+00 0.  1.
         11    1    1    2    0    0  0.17101365577E+02  0.86142377230E+01  0.41866216358E+02  0.46037396411E+02  0.00000000000E+00 0. -1.
</event>
<event>
 7    1  0.8653652E-006  0.1004359E+03  0.7561462E-02  0.1279382E+00
          1   -1    0    0  501    0  0.00000000000E+00  0.00000000000E+00  0.76197828378E+02  0.76197828378E+02  0.00000000000E+00 0. -1.
         -1   -1    0    0    0  501 -0.00000000000E+00 -0.00000000000E+00 -0.17389924340E+03  0.17389924340E+03  0.00000000000E+00 0.  1.
         23    2    1    2    0    0  0.34297452783E+02  0.32105573095E+02 -0.46828968191E+02  0.14158817664E+03  0.12508867419E+03 0.  0.
          5    1    3    3  502    0  0.12356451191E+02  0.73698046280E+02  0.35071296228E+00  0.74844367264E+02  0.41800000000E+01 0. -1.
         -5    1    3    3    0  502  0.21941001592E+02 -0.41592473185E+02 -0.47179681153E+02  0.66743809377E+02  0.41800000000E+01 0. -1.
        -11    1    1    2    0    0 -0.39456270181E+02 -0.47983772559E+02 -0.81686164072E+01  0.62657529312E+02  0.00000000000E+00 0. -1.
         11    1    1    2    0    0  0.51588173976E+01  0.15878199464E+02 -0.42703830425E+02  0.45851365826E+02  0.00000000000E+00 0.  1.
</event>
<event>
 7    1  0.8653652E-006  0.1232773E+03  0.7561462E-02  0.1237786E+00
         -1   -1    0    0    0  501 -0.00000000000E+00  0.00000000000E+00  0.15365371917E+03  0.15365371917E+03  0.00000000000E+00 0.  1.
          1   -1    0    0  501    0  0.00000000000E+00 -0.00000000000E+00 -0.16055309326E+03  0.16055309326E+03  0.00000000000E+00 0. -1.
         23    2    1    2    0    0 -0.18848564505E+02 -0.75766962382E+02  0.78207328386E+02  0.16691212761E+03  0.12508945262E+03 0.  0.
          5    1    3    3  502    0  0.44478195495E+02 -0.26082660908E+02 -0.38725591511E+01  0.51875660853E+02  0.41800000000E+01 0.  1.
         -5    1    3    3    0  502 -0.63326760000E+02 -0.49684301474E+02  0.82079887537E+02  0.11503646675E+03  0.41800000000E+01 0.  1.
        -11    1    1    2    0    0 -0.82042185846E+01  0.85184809906E+02 -0.41473778420E+02  0.95099081687E+02  0.00000000000E+00 0.  1.
         11    1    1    2    0    0  0.27052783089E+02 -0.94178475237E+01 -0.43632924056E+02  0.52195603134E+02  0.00000000000E+00 0. -1.
</event>
<event>
 7    1  0.8653652E-006  0.1494516E+03  0.7561462E-02  0.1201149E+00
         -4   -1    0    0    0  501 -0.00000000000E+00  0.00000000000E+00  0.26136214628E+03  0.26136214628E+03  0.00000000000E+00 0.  1.
          4   -1    0    0  501    0  0.00000000000E+00 -0.00000000000E+00 -0.12828228709E+03  0.12828228709E+03  0.00000000000E+00 0. -1.
         23    2    1    2    0    0 -0.77695838865E+02  0.10558595796E+03  0.13966617755E+03  0.22877721290E+03  0.12508930448E+03 0.  0.
          5    1    3    3  502    0 -0.87620219223E+01 -0.29936939929E+01 -0.20763698162E+02  0.23115769364E+02  0.41800000000E+01 0.  1.
         -5    1    3    3    0  502 -0.68933816943E+02  0.10857965195E+03  0.16042987571E+03  0.20566144353E+03  0.41800000000E+01 0.  1.
        -11    1    1    2    0    0  0.17570754371E+01 -0.79867806437E+02  0.40472393991E+01  0.79989586609E+02  0.00000000000E+00 0.  1.
         11    1    1    2    0    0  0.75938763428E+02 -0.25718151523E+02 -0.10633557759E+02  0.80877633863E+02  0.00000000000E+00 0. -1.
</event>
<event>
 7    1  0.8653652E-006  0.1889189E+03  0.7561462E-02  0.1159440E+00
         -3   -1    0    0    0  501 -0.00000000000E+00  0.00000000000E+00  0.12923194596E+04  0.12923194596E+04  0.00000000000E+00 0.  1.
          3   -1    0    0  501    0  0.00000000000E+00 -0.00000000000E+00 -0.28119344423E+02  0.28119344423E+02  0.00000000000E+00 0. -1.
         23    2    1    2    0    0  0.11176812673E+03 -0.11054695753E+03  0.68997429800E+03  0.71862601535E+03  0.12508426781E+03 0.  0.
          5    1    3    3  502    0  0.85525924997E+02 -0.13815724502E+03  0.56343573833E+03  0.58641232237E+03  0.41800000000E+01 0.  1.
         -5    1    3    3    0  502  0.26242201728E+02  0.27610287481E+02  0.12653855967E+03  0.13221369297E+03  0.41800000000E+01 0.  1.
        -11    1    1    2    0    0 -0.70209445061E+02  0.13623761627E+02  0.28893368784E+03  0.29765357217E+03  0.00000000000E+00 0.  1.
         11    1    1    2    0    0 -0.41558681664E+02  0.96923195908E+02  0.28529212931E+03  0.30415921649E+03  0.00000000000E+00 0. -1.
</event>
<event>
 7    1  0.8653652E-006  0.1916652E+03  0.7561462E-02  0.1156968E+00
          1   -1    0    0  501    0  0.00000000000E+00  0.00000000000E+00  0.11187300252E+04  0.11187300252E+04  0.00000000000E+00 0. -1.
         -1   -1    0    0    0  501 -0.00000000000E+00 -0.00000000000E+00 -0.46728604465E+02  0.46728604465E+02  0.00000000000E+00 0.  1.
         23    2    1    2    0    0  0.16640271773E+03  0.68165523573E+02  0.32375460224E+03  0.39089750407E+03  0.12508962046E+03 0.  0.
          5    1    3    3  502    0  0.16339830337E+03  0.54225486567E+02  0.33192456226E+03  0.37393956245E+03  0.41800000000E+01 0. -1.
         -5    1    3    3    0  502  0.30044143617E+01  0.13940037006E+02 -0.81699600171E+01  0.16957941622E+02  0.41800000000E+01 0. -1.
        -11    1    1    2    0    0 -0.12085175338E+03 -0.84412835953E+01  0.53269992807E+03  0.54630176179E+03  0.00000000000E+00 0. -1.
         11    1    1    2    0    0 -0.45550964352E+02 -0.59724239978E+02  0.21554689045E+03  0.22825936383E+03  0.00000000000E+00 0.  1.
</event>
<event>
 7    1  0.8653652E-006  0.1263124E+03  0.7561462E-02  0.1233032E+00
         -4   -1    0    0    0  501 -0.00000000000E+00  0.00000000000E+00  0.46714939566E+03  0.46714939566E+03  0.00000000000E+00 0.  1.
          4   -1    0    0  501    0  0.00000000000E+00 -0.00000000000E+00 -0.46829961946E+02  0.46829961946E+02  0.00000000000E+00 0. -1.
         23    2    1    2    0    0 -0.73344621764E+02 -0.61758721056E+02  0.17234592012E+03  0.23355006292E+03  0.12509573350E+03 0.  0.
          5    1    3    3  502    0 -0.20854787062E+02 -0.92416877239E+02  0.87062860219E+02  0.12873700079E+03  0.41800000000E+01 0. -1.
         -5    1    3    3    0  502 -0.52489834703E+02  0.30658156184E+02  0.85283059901E+02  0.10481306213E+03  0.41800000000E+01 0. -1.
        -11    1    1    2    0    0  0.28327059023E+02  0.15405274842E+02  0.19275475230E+03  0.19543320931E+03  0.00000000000E+00 0.  1.
         11    1    1    2    0    0  0.45017562742E+02  0.46353446214E+02  0.55218761297E+02  0.84996085382E+02  0.00000000000E+00 0. -1.
</event>
<event>
 7    1  0.8653652E-006  0.9667646E+02  0.7561462E-02  0.1287444E+00
          2   -1    0    0  501    0  0.00000000000E+00  0.00000000000E+00  0.22019731343E+03  0.22019731343E+03  0.00000000000E+00 0. -1.
         -2   -1    0    0    0  501 -0.00000000000E+00 -0.00000000000E+00 -0.92479284054E+02  0.92479284054E+02  0.00000000000E+00 0.  1.
         23    2    1    2    0    0  0.68910043865E+02 -0.52436683949E+02  0.34330592920E+02  0.15595992657E+03  0.12508680633E+03 0.  0.
          5    1    3    3  502    0 -0.87173976216E+01  0.19075147633E+01  0.57484847361E+02  0.58323337610E+02  0.41800000000E+01 0. -1.
         -5    1    3    3    0  502  0.77627441487E+02 -0.54344198712E+02 -0.23154254441E+02  0.97636588962E+02  0.41800000000E+01 0. -1.
        -11    1    1    2    0    0 -0.14763039544E+02  0.24693378034E+01  0.80548142902E+02  0.81927091312E+02  0.00000000000E+00 0. -1.
         11    1    1    2    0    0 -0.54147004321E+02  0.49967346145E+02  0.12839293553E+02  0.74789579600E+02  0.00000000000E+00 0.  1.
</event>
<event>
 7    1  0.9541046E-006  0.1289866E+03  0.7561462E-02  0.1228967E+00
          2   -1    0    0  501    0  0.00000000000E+00  0.00000000000E+00  0.10801555882E+04  0.10801555882E+04  0.00000000000E+00 0. -1.
         -2   -1    0    0    0  501 -0.00000000000E+00 -0.00000000000E+00 -0.16817844274E+02  0.16817844274E+02  0.00000000000E+00 0.  1.
         23    2    1    2    0    0 -0.42367911230E+02 -0.56544573345E+02  0.43766437074E+03  0.46064076461E+03  0.12508990341E+03 0.  0.
          5    1    3    3  502    0 -0.84454934105E+02 -0.52475924518E+02  0.33672248510E+03  0.35112086654E+03  0.41800000000E+01 0.  1.
         -5    1    3    3    0  502  0.42087022875E+02 -0.40686488274E+01  0.10094188564E+03  0.10951989807E+03  0.41800000000E+01 0.  1.
        -11    1    1    2    0    0 -0.21092785507E+02  0.47359088719E+02  0.28518169316E+03  0.28985580380E+03  0.00000000000E+00 0.  1.
         11    1    1    2    0    0  0.63460696737E+02  0.91854846263E+01  0.34049168001E+03  0.34647686403E+03  0.00000000000E+00 0. -1.
</event>
<event>
 7    1  0.8653652E-006  0.8728047E+02  0.7561462E-02  0.1309574E+00
         -2   -1    0    0    0  501 -0.00000000000E+00  0.00000000000E+00  0.27585828275E+02  0.27585828275E+02  0.00000000000E+00 0.  1.
          2   -1    0    0  501    0  0.00000000000E+00 -0.00000000000E+00 -0.53573139722E+03  0.53573139722E+03  0.00000000000E+00 0. -1.
         23    2    1    2    0    0 -0.50763134557E+02  0.20419277705E+02 -0.27704523076E+03  0.30886403521E+03  0.12509632139E+03 0.  0.
          5    1    3    3  502    0 -0.56951916341E+02  0.15490997407E+02 -0.39481684079E+02  0.71132043084E+02  0.41800000000E+01 0.  1.
         -5    1    3    3    0  502  0.61887817845E+01  0.49282802984E+01 -0.23756354668E+03  0.23773199212E+03  0.41800000000E+01 0.  1.
        -11    1    1    2    0    0  0.22310954877E+02 -0.56353792661E+02 -0.13506097824E+03  0.14803714567E+03  0.00000000000E+00 0.  1.
         11    1    1    2    0    0  0.28452179680E+02  0.35934514956E+02 -0.96039359940E+02  0.10641604461E+03  0.00000000000E+00 0. -1.
</event>
<event>
 7    1  0.8653652E-006  0.1071545E+03  0.7561462E-02  0.1265932E+00
          2   -1    0    0  501    0  0.00000000000E+00  0.00000000000E+00  0.48415669496E+03  0.48415669496E+03  0.00000000000E+00 0.  1.
         -2   -1    0    0    0  501 -0.00000000000E+00 -0.00000000000E+00 -0.40968787431E+02  0.40968787431E+02  0.00000000000E+00 0. -1.
         23    2    1    2    0    0 -0.68475668975E+02 -0.39549854456E+02  0.16944558393E+03  0.22496859960E+03  0.12508379856E+03 0.  0.
          5    1    3    3  502    0 -0.51416828517E+02  0.17983618817E+02  0.15321403943E+03  0.16266258045E+03  0.41800000000E+01 0.  1.
         -5    1    3    3    0  502 -0.17058840458E+02 -0.57533473274E+02  0.16231544496E+02  0.62306019143E+02  0.41800000000E+01 0.  1.
        -11    1    1    2    0    0  0.72106122286E+02  0.50470650604E+02  0.27484690375E+03  0.28859556466E+03  0.00000000000E+00 0.  1.
         11    1    1    2    0    0 -0.36304533115E+01 -0.10920796147E+02 -0.11045801438E+01  0.11561318136E+02  0.00000000000E+00 0. -1.
</event>
<event>
 7    1  0.8653652E-006  0.1334786E+03  0.7561462E-02  0.1222384E+00
          1   -1    0    0  501    0  0.00000000000E+00  0.00000000000E+00  0.52653774074E+03  0.52653774074E+03  0.00000000000E+00 0. -1.
         -1   -1    0    0    0  501 -0.00000000000E+00 -0.00000000000E+00 -0.34463878388E+02  0.34463878388E+02  0.00000000000E+00 0.  1.
         23    2    1    2    0    0  0.76199215660E+02  0.95519153005E+01  0.25724404231E+03  0.29617488685E+03  0.12508999457E+03 0.  0.
          5    1    3    3  502    0 -0.26161520629E+02  0.30843768558E+02  0.92054214954E+02  0.10063406039E+03  0.41800000000E+01 0. -1.
         -5    1    3    3    0  502  0.10236073629E+03 -0.21291853257E+02  0.16518982736E+03  0.19554082646E+03  0.41800000000E+01 0. -1.
        -11    1    1    2    0    0 -0.93366247472E+01 -0.45017561302E+02  0.10342868021E+03  0.11318677165E+03  0.00000000000E+00 0. -1.
         11    1    1    2    0    0 -0.66862590913E+02  0.35465646002E+02  0.13140113984E+03  0.15163996063E+03  0.00000000000E+00 0.  1.
</event>
<event>
 7    1  0.8653652E-006  0.2919367E+03  0.7561462E-02  0.1089342E+00
          1   -1    0    0  501    0  0.00000000000E+00  0.00000000000E+00  0.95301683327E+02  0.95301683327E+02  0.00000000000E+00 0. -1.
         -1   -1    0    0    0  501 -0.00000000000E+00 -0.00000000000E+00 -0.94276856537E+03  0.94276856537E+03  0.00000000000E+00 0.  1.
         23    2    1    2    0    0 -0.26171989774E+03  0.92129504310E+02 -0.46651234619E+03  0.55701571313E+03  0.12509030771E+03 0.  0.
          5    1    3    3  502    0 -0.20483658469E+03  0.24789182749E+02 -0.25649601440E+03  0.32921149405E+03  0.41800000000E+01 0. -1.
         -5    1    3    3    0  502 -0.56883313050E+02  0.67340321561E+02 -0.21001633179E+03  0.22780421908E+03  0.41800000000E+01 0. -1.
        -11    1    1    2    0    0  0.17335282230E+03 -0.18703120354E+02 -0.18739506788E+03  0.25596468346E+03  0.00000000000E+00 0. -1.
         11    1    1    2    0    0  0.88367075442E+02 -0.73426383957E+02 -0.19355946797E+03  0.22508985211E+03  0.00000000000E+00 0.  1.
</event>
<event>
 7    1  0.8653652E-006  0.1180986E+03  0.7561462E-02  0.1246267E+00
          1   -1    0    0  501    0  0.00000000000E+00  0.00000000000E+00  0.41214590637E+03  0.41214590637E+03  0.00000000000E+00 0. -1.
         -1   -1    0    0    0  501 -0.00000000000E+00 -0.00000000000E+00 -0.39677082737E+02  0.39677082737E+02  0.00000000000E+00 0.  1.
         23    2    1    2    0    0  0.62048763554E+02  0.38018261856E+02  0.21226764172E+03  0.25402941823E+03  0.11907122370E+03 0.  0.
          5    1    3    3  502    0 -0.48644707725E+01 -0.37734608328E+02  0.53817339467E+02  0.66040458576E+02  0.41800000000E+01 0. -1.
         -5    1    3    3    0  502  0.66913234327E+02  0.75752870184E+02  0.15845030225E+03  0.18798895965E+03  0.41800000000E+01 0.  1.
        -11    1    1    2    0    0 -0.52558496837E+02 -0.55769072348E+02  0.64996934886E+02  0.10048475787E+03  0.00000000000E+00 0.  1.
         11    1    1    2    0    0 -0.94902667171E+01  0.17750810491E+02  0.95204247036E+02  0.97308813008E+02  0.00000000000E+00 0. -1.
</event>
<event>
 7    1  0.8653652E-006  0.1842033E+03  0.7561462E-02  0.1163796E+00
         -1   -1    0    0    0  501 -0.00000000000E+00  0.00000000000E+00  0.22958129425E+03  0.22958129425E+03  0.00000000000E+00 0.  1.
          1   -1    0    0  501    0  0.00000000000E+00 -0.00000000000E+00 -0.21182583644E+03  0.21182583644E+03  0.00000000000E+00 0. -1.
         23    2    1    2    0    0 -0.17473931468E+03 -0.50127905690E+02  0.68641985396E+02  0.23109740081E+03  0.12509057309E+03 0.  0.
          5    1    3    3  502    0 -0.91324386036E+02 -0.19323306230E+02 -0.30084653571E+02  0.98163600326E+02  0.41800000000E+01 0. -1.
         -5    1    3    3    0  502 -0.83414928646E+02 -0.30804599460E+02  0.98726638967E+02  0.13293380048E+03  0.41800000000E+01 0. -1.
        -11    1    1    2    0    0  0.15198663689E+03  0.56773216179E+02 -0.72983923308E+02  0.17790387554E+03  0.00000000000E+00 0. -1.
         11    1    1    2    0    0  0.22752677789E+02 -0.66453104893E+01  0.22097395724E+02  0.32405854346E+02  0.00000000000E+00 0.  1.
</event>
<event>
 7    1  0.8653652E-006  0.1282359E+03  0.7561462E-02  0.1230097E+00
          1   -1    0    0  501    0  0.00000000000E+00  0.00000000000E+00  0.15858691627E+03  0.15858691627E+03  0.00000000000E+00 0. -1.
         -1   -1    0    0    0  501 -0.00000000000E+00 -0.00000000000E+00 -0.14665265386E+03  0.14665265386E+03  0.00000000000E+00 0.  1.
         23    2    1    2    0    0  0.51223005075E+02  0.71603776773E+02 -0.54644976327E+02  0.16243271436E+03  0.12508963250E+03 0.  0.
          5    1    3    3  502    0  0.62070787859E+02  0.10248805693E+03 -0.40764718333E+02  0.12663261499E+03  0.41800000000E+01 0. -1.
         -5    1    3    3    0  502 -0.10847782784E+02 -0.30884280160E+02 -0.13880257994E+02  0.35800099362E+02  0.41800000000E+01 0. -1.
        -11    1    1    2    0    0 -0.59958920207E+02 -0.43300700831E+02  0.45871808351E+01  0.74101720850E+02  0.00000000000E+00 0.  1.
         11    1    1    2    0    0  0.87359151321E+01 -0.28303075942E+02  0.61992057903E+02  0.68705134918E+02  0.00000000000E+00 0. -1.
</event>
<event>
 7    1  0.1471304E-005  0.3038378E+03  0.7561462E-02  0.1083338E+00
          2   -1    0    0  501    0  0.00000000000E+00  0.00000000000E+00  0.13478102306E+04  0.13478102306E+04  0.00000000000E+00 0. -1.
         -2   -1    0    0    0  501 -0.00000000000E+00 -0.00000000000E+00 -0.73334703911E+02  0.73334703911E+02  0.00000000000E+00 0.  1.
         23    2    1    2    0    0 -0.85735248876E+02 -0.28195844508E+03  0.63819344090E+03  0.71399553259E+03  0.12509058679E+03 0.  0.
          5    1    3    3  502    0 -0.69741408448E+02 -0.26959792825E+03  0.48385644811E+03  0.55828437355E+03  0.41800000000E+01 0.  1.
         -5    1    3    3    0  502 -0.15993840428E+02 -0.12360516831E+02  0.15433699279E+03  0.15571115905E+03  0.41800000000E+01 0.  1.
        -11    1    1    2    0    0  0.79345053981E+02  0.10575356791E+03  0.26838135638E+03  0.29917888824E+03  0.00000000000E+00 0. -1.
         11    1    1    2    0    0  0.63901948951E+01  0.17620487717E+03  0.36790072940E+03  0.40797051367E+03  0.00000000000E+00 0.  1.
</event>
<event>
 7    1  0.8653652E-006  0.1264307E+03  0.7561462E-02  0.1232850E+00
          1   -1    0    0  501    0  0.00000000000E+00  0.00000000000E+00  0.16320094036E+02  0.16320094036E+02  0.00000000000E+00 0. -1.
         -1   -1    0    0    0  501 -0.00000000000E+00 -0.00000000000E+00 -0.16266745487E+04  0.16266745487E+04  0.00000000000E+00 0.  1.
         23    2    1    2    0    0 -0.75033323714E+02  0.52769116293E+02 -0.12711459240E+04  0.12805756756E+04  0.12509005352E+03 0.  0.
          5    1    3    3  502    0 -0.55826785756E+02  0.77878214194E+02 -0.52115812443E+03  0.52991028421E+03  0.41800000000E+01 0.  1.
         -5    1    3    3    0  502 -0.19206537958E+02 -0.25109097901E+02 -0.74998779955E+03  0.75066539135E+03  0.41800000000E+01 0.  1.
        -11    1    1    2    0    0  0.93695392074E+02 -0.37394304306E+02 -0.29832219173E+03  0.31491791084E+03  0.00000000000E+00 0.  1.
         11    1    1    2    0    0 -0.18662068360E+02 -0.15374811987E+02 -0.40886338913E+02  0.47501056291E+02  0.00000000000E+00 0. -1.
</event>
<event>
 7    1  0.8653652E-006  0.1015598E+03  0.7561462E-02  0.1277050E+00
         -1   -1    0    0    0  501 -0.00000000000E+00  0.00000000000E+00  0.46412175212E+03  0.46412175212E+03  0.00000000000E+00 0.  1.
          1   -1    0    0  501    0  0.00000000000E+00 -0.00000000000E+00 -0.43572885910E+02  0.43572885910E+02  0.00000000000E+00 0. -1.
         23    2    1    2    0    0 -0.53435362844E+01  0.80238299306E+02  0.30414395420E+03  0.33855238006E+03  0.12508969227E+03 0.  0.
          5    1    3    3  502    0 -0.13020408372E+02  0.28322224303E+02  0.16315910649E+01  0.31493077224E+02  0.41800000000E+01 0.  1.
         -5    1    3    3    0  502  0.76768720872E+01  0.51916075003E+02  0.30251236313E+03  0.30705930284E+03  0.41800000000E+01 0.  1.
        -11    1    1    2    0    0  0.36943002487E+02 -0.79215029061E+02  0.10220729118E+03  0.13448470780E+03  0.00000000000E+00 0. -1.
         11    1    1    2    0    0 -0.31599466203E+02 -0.10232702446E+01  0.14197620823E+02  0.34657550164E+02  0.00000000000E+00 0.  1.
</event>
<event>
 7    1  0.8653652E-006  0.6965572E+02  0.7561462E-02  0.1361268E+00
          2   -1    0    0  501    0  0.00000000000E+00  0.00000000000E+00  0.38452410412E+03  0.38452410412E+03  0.00000000000E+00 0. -1.
         -2   -1    0    0    0  501 -0.00000000000E+00 -0.00000000000E+00 -0.51208740071E+02  0.51208740071E+02  0.00000000000E+00 0.  1.
         23    2    1    2    0    0  0.95658762260E+01  0.15594165796E+02  0.48122433201E+02  0.13527248398E+03  0.12509273501E+03 0.  0.
          5    1    3    3  502    0 -0.15432739370E+02  0.13372775433E+02  0.86639054578E+02  0.89111159488E+02  0.41800000000E+01 0. -1.
         -5    1    3    3    0  502  0.24998615596E+02  0.22213903639E+01 -0.38516621377E+02  0.46161324495E+02  0.41800000000E+01 0. -1.
        -11    1    1    2    0    0  0.30837591040E+02  0.21964608133E+02  0.14342462002E+03  0.14833752951E+03  0.00000000000E+00 0.  1.
         11    1    1    2    0    0 -0.40403467266E+02 -0.37558773929E+02  0.14176831083E+03  0.15212283070E+03  0.00000000000E+00 0. -1.
</event>
<event>
 7    1  0.1018837E-005  0.2818946E+03  0.7561462E-02  0.1094659E+00
          2   -1    0    0  501    0  0.00000000000E+00  0.00000000000E+00  0.57359312001E+03  0.57359312001E+03  0.00000000000E+00 0. -1.
         -2   -1    0    0    0  501 -0.00000000000E+00 -0.00000000000E+00 -0.14375045106E+03  0.14375045106E+03  0.00000000000E+00 0.  1.
         23    2    1    2    0    0 -0.23171976422E+03  0.11835988124E+03  0.16852939067E+03  0.33429418136E+03  0.12508930232E+03 0.  0.
          5    1    3    3  502    0  0.15454574450E+02  0.74195044624E+01  0.82727636859E+01  0.19488559128E+02  0.41800000000E+01 0. -1.
         -5    1    3    3    0  502 -0.24717433867E+03  0.11094037678E+03  0.16025662698E+03  0.31480562223E+03  0.41800000000E+01 0. -1.
        -11    1    1    2    0    0  0.10977480346E+03 -0.10602148076E+03  0.10898795019E+03  0.18753515709E+03  0.00000000000E+00 0.  1.
         11    1    1    2    0    0  0.12194496076E+03 -0.12338400483E+02  0.15232532808E+03  0.19551423262E+03  0.00000000000E+00 0. -1.
</event>
<event>
 7    1  0.8653652E-006  0.8419256E+02  0.7561462E-02  0.1317558E+00
          2   -1    0    0  501    0  0.00000000000E+00  0.00000000000E+00  0.27176321604E+03  0.27176321604E+03  0.00000000000E+00 0.  1.
         -2   -1    0    0    0  501 -0.00000000000E+00 -0.00000000000E+00 -0.43768071398E+02  0.43768071398E+02  0.00000000000E+00 0. -1.
         23    2    1    2    0    0  0.50438494763E+01 -0.11758606152E+02  0.11479685550E+03  0.17026441652E+03  0.12509175937E+03 0.  0.
          5    1    3    3  502    0 -0.45749481953E+02  0.32650434386E+01  0.10709189488E+03  0.11657539173E+03  0.41800000000E+01 0. -1.
         -5    1    3    3    0  502  0.50793331430E+02 -0.15023649591E+02  0.77049606194E+01  0.53689024790E+02  0.41800000000E+01 0. -1.
        -11    1    1    2    0    0  0.25420163898E+02  0.25293880013E+02  0.10608002108E+02  0.37396454477E+02  0.00000000000E+00 0. -1.
         11    1    1    2    0    0 -0.30464013375E+02 -0.13535273861E+02  0.10259028704E+03  0.10787041644E+03  0.00000000000E+00 0.  1.
</event>
<event>
 7    1  0.8653652E-006  0.1756039E+03  0.7561462E-02  0.1172127E+00
         -2   -1    0    0    0  501 -0.00000000000E+00  0.00000000000E+00  0.70734394100E+02  0.70734394100E+02  0.00000000000E+00 0.  1.
          2   -1    0    0  501    0  0.00000000000E+00 -0.00000000000E+00 -0.64354184478E+03  0.64354184478E+03  0.00000000000E+00 0. -1.
         23    2    1    2    0    0  0.39389859362E+02  0.16659352669E+03 -0.18758961645E+03  0.28309415504E+03  0.12508985674E+03 0.  0.
          5    1    3    3  502    0 -0.36321372997E+01  0.96224839725E+02 -0.23215621591E+02  0.99140555210E+02  0.41800000000E+01 0.  1.
         -5    1    3    3    0  502  0.43021996662E+02  0.70368686960E+02 -0.16437399486E+03  0.18395359983E+03  0.41800000000E+01 0.  1.
        -11    1    1    2    0    0 -0.20695808691E+02 -0.49328321136E+02 -0.42026893922E+02  0.68028373317E+02  0.00000000000E+00 0.  1.
         11    1    1    2    0    0 -0.18694050671E+02 -0.11726520555E+03 -0.34319094030E+03  0.36315371053E+03  0.00000000000E+00 0. -1.
</event>
<event>
 7    1  0.8653652E-006  0.1348541E+03  0.7561462E-02  0.1220426E+00
         -2   -1    0    0    0  501 -0.00000000000E+00  0.00000000000E+00  0.13359778228E+03  0.13359778228E+03  0.00000000000E+00 0.  1.
          2   -1    0    0  501    0  0.00000000000E+00 -0.00000000000E+00 -0.16645693453E+03  0.16645693453E+03  0.00000000000E+00 0. -1.
         23    2    1    2    0    0 -0.99674353118E+02  0.80811774153E+01  0.40293382876E+00  0.16015424125E+03  0.12509570950E+03 0.  0.
          5    1    3    3  502    0  0.10139838067E+01 -0.45311187478E+02 -0.61091712771E+01  0.45923047019E+02  0.41800000000E+01 0. -1.
         -5    1    3    3    0  502 -0.10068833692E+03  0.53392364893E+02  0.65121051058E+01  0.11423119423E+03  0.41800000000E+01 0. -1.
        -11    1    1    2    0    0  0.83213856526E+02  0.12117519296E+02  0.14653221847E+02  0.85358638124E+02  0.00000000000E+00 0.  1.
         11    1    1    2    0    0  0.16460496592E+02 -0.20198696711E+02 -0.47915307933E+02  0.54541837439E+02  0.00000000000E+00 0. -1.
</event>
<event>
 7    1  0.8653652E-006  0.8397059E+02  0.7561462E-02  0.1318147E+00
         -1   -1    0    0    0  501 -0.00000000000E+00  0.00000000000E+00  0.66921961728E+02  0.66921961728E+02  0.00000000000E+00 0.  1.
          1   -1    0    0  501    0  0.00000000000E+00 -0.00000000000E+00 -0.24675140436E+03  0.24675140436E+03  0.00000000000E+00 0. -1.
         23    2    1    2    0    0 -0.59661697614E+02  0.12307534363E+02 -0.69021140751E+02  0.15531811213E+03  0.12509518185E+03 0.  0.
          5    1    3    3  502    0 -0.12938807050E+02  0.21666821774E+02  0.33521917351E+02  0.42166992263E+02  0.41800000000E+01 0.  1.
         -5    1    3    3    0  502 -0.46722890564E+02 -0.93592874102E+01 -0.10254305810E+03  0.11315111987E+03  0.41800000000E+01 0.  1.
        -11    1    1    2    0    0  0.13176209322E+02  0.29308970522E+02 -0.84935073546E+02  0.90810764579E+02  0.00000000000E+00 0. -1.
         11    1    1    2    0    0  0.46485488291E+02 -0.41616504886E+02 -0.25873228337E+02  0.67544489377E+02  0.00000000000E+00 0.  1.
</event>
<event>
 7    1  0.8653652E-006  0.1204179E+03  0.7561462E-02  0.1242409E+00
          2   -1    0    0  501    0  0.00000000000E+00  0.00000000000E+00  0.87698166351E+03  0.87698166351E+03  0.00000000000E+00 0. -1.
         -2   -1    0    0    0  501 -0.00000000000E+00 -0.00000000000E+00 -0.17734424273E+02  0.17734424273E+02  0.00000000000E+00 0.  1.
         23    2    1    2    0    0  0.91782522008E+01  0.61179854304E+02  0.53699015103E+03  0.55482734631E+03  0.12509095501E+03 0.  0.
          5    1    3    3  502    0  0.45602020389E+01  0.98158759412E+02  0.32537099259E+03  0.33991130124E+03  0.41800000000E+01 0. -1.
         -5    1    3    3    0  502  0.46180501619E+01 -0.36978905108E+02  0.21161915844E+03  0.21491604507E+03  0.41800000000E+01 0. -1.
        -11    1    1    2    0    0 -0.44705603636E+02 -0.15945295541E+02  0.18659108465E+03  0.19253331223E+03  0.00000000000E+00 0.  1.
         11    1    1    2    0    0  0.35527351435E+02 -0.45234558763E+02  0.13566600356E+03  0.14735542924E+03  0.00000000000E+00 0. -1.
</event>
<event>
 7    1  0.8653652E-006  0.7942716E+02  0.7561462E-02  0.1330685E+00
          2   -1    0    0  501    0  0.00000000000E+00  0.00000000000E+00  0.26868962246E+03  0.26868962246E+03  0.00000000000E+00 0. -1.
         -2   -1    0    0    0  501 -0.00000000000E+00 -0.00000000000E+00 -0.50567434985E+02  0.50567434985E+02  0.00000000000E+00 0.  1.
         23    2    1    2    0    0  0.47524239383E+01  0.13640993079E+02  0.68398912249E+02  0.14329903702E+03  0.12509012986E+03 0.  0.
          5    1    3    3  502    0  0.31373865972E+02  0.35491395476E+02  0.90451319311E+02  0.10219037227E+03  0.41800000000E+01 0.  1.
         -5    1    3    3    0  502 -0.26621442034E+02 -0.21850402397E+02 -0.22052407062E+02  0.41108664757E+02  0.41800000000E+01 0.  1.
        -11    1    1    2    0    0 -0.31547301987E+02  0.17053935054E+02  0.22420152883E+02  0.42293406327E+02  0.00000000000E+00 0.  1.
         11    1    1    2    0    0  0.26794878049E+02 -0.30694928133E+02  0.12730312234E+03  0.13366461409E+03  0.00000000000E+00 0. -1.
</event>
<event>
 7    1  0.8653652E-006  0.1099756E+03  0.7561462E-02  0.1260615E+00
         -1   -1    0    0    0  501 -0.00000000000E+00  0.00000000000E+00  0.27734110699E+03  0.27734110699E+03  0.00000000000E+00 0.  1.
          1   -1    0    0  501    0  0.00000000000E+00 -0.00000000000E+00 -0.82980233532E+02  0.82980233532E+02  0.00000000000E+00 0. -1.
         23    2    1    2    0    0 -0.25317110649E+02  0.57580591588E+02  0.20565480405E+03  0.24879238647E+03  0.12508905835E+03 0.  0.
          5    1    3    3  502    0 -0.61808137235E+02  0.58445545426E+02  0.19120076979E+03  0.20931157248E+03  0.41800000000E+01 0. -1.
         -5    1    3    3    0  502  0.36491026586E+02 -0.86495383826E+00  0.14454034260E+02  0.39480813984E+02  0.41800000000E+01 0. -1.
        -11    1    1    2    0    0  0.45728835086E+02 -0.10775766022E+02  0.20627408120E+02  0.51310169142E+02  0.00000000000E+00 0.  1.
         11    1    1    2    0    0 -0.20411724437E+02 -0.46804825566E+02 -0.31921338711E+02  0.60218784909E+02  0.00000000000E+00 0. -1.
</event>
<event>
 7    1  0.8653652E-006  0.1689134E+03  0.7561462E-02  0.1178986E+00
          3   -1    0    0  501    0  0.00000000000E+00  0.00000000000E+00  0.84410328271E+02  0.84410328271E+02  0.00000000000E+00 0. -1.
         -3   -1    0    0    0  501 -0.00000000000E+00 -0.00000000000E+00 -0.43623282729E+03  0.43623282729E+03  0.00000000000E+00 0.  1.
         23    2    1    2    0    0  0.73499971102E+02 -0.11680285635E+03 -0.29687127280E+03  0.35046397431E+03  0.12508913491E+03 0.  0.
          5    1    3    3  502    0 -0.29259700932E+02 -0.59949984780E+02 -0.84404338381E+02  0.10766473662E+03  0.41800000000E+01 0.  1.
         -5    1    3    3    0  502  0.10275967203E+03 -0.56852871570E+02 -0.21246693442E+03  0.24279923769E+03  0.41800000000E+01 0.  1.
        -11    1    1    2    0    0  0.29826686617E+01  0.55164526619E+02 -0.45364121711E+02  0.71483738347E+02  0.00000000000E+00 0.  1.
         11    1    1    2    0    0 -0.76482639764E+02  0.61638329731E+02 -0.95871045106E+01  0.98695442905E+02  0.00000000000E+00 0. -1.
</event>
<event>
 7    1  0.8653652E-006  0.1172814E+03  0.7561462E-02  0.1247650E+00
          2   -1    0    0  501    0  0.00000000000E+00  0.00000000000E+00  0.27720004992E+03  0.27720004992E+03  0.00000000000E+00 0. -1.
         -2   -1    0    0    0  501 -0.00000000000E+00 -0.00000000000E+00 -0.64577444895E+02  0.64577444895E+02  0.00000000000E+00 0.  1.
         23    2    1    2    0    0  0.26467545887E+02  0.71238255043E+02  0.10216963153E+03  0.17849548859E+03  0.12508631370E+03 0.  0.
          5    1    3    3  502    0 -0.26919845402E+02  0.86417959609E+02  0.66342761920E+02  0.11230127461E+03  0.41800000000E+01 0. -1.
         -5    1    3    3    0  502  0.53387391289E+02 -0.15179704566E+02  0.35826869607E+02  0.66194213986E+02  0.41800000000E+01 0. -1.
        -11    1    1    2    0    0  0.47547877495E+01 -0.50694747153E+02  0.47173915778E+01  0.51135302666E+02  0.00000000000E+00 0.  1.
         11    1    1    2    0    0 -0.31222333637E+02 -0.20543507890E+02  0.10573558192E+03  0.11214670355E+03  0.00000000000E+00 0. -1.
</event>
<event>
 7    1  0.8653652E-006  0.1334009E+03  0.7561462E-02  0.1222495E+00
         -4   -1    0    0    0  501 -0.00000000000E+00  0.00000000000E+00  0.38793534142E+03  0.38793534142E+03  0.00000000000E+00 0.  1.
          4   -1    0    0  501    0  0.00000000000E+00 -0.00000000000E+00 -0.79841667072E+02  0.79841667072E+02  0.00000000000E+00 0. -1.
         23    2    1    2    0    0 -0.10032181213E+03 -0.31117869202E+02  0.28216653912E+03  0.32603317627E+03  0.12508752319E+03 0.  0.
          5    1    3    3  502    0 -0.27158706267E+01  0.23311184479E+02  0.15442654291E+03  0.15625561376E+03  0.41800000000E+01 0. -1.
         -5    1    3    3    0  502 -0.97605941502E+02 -0.54429053681E+02  0.12773999621E+03  0.16977756251E+03  0.41800000000E+01 0. -1.
        -11    1    1    2    0    0 -0.40348089859E+01 -0.16092392388E+02  0.21450503894E+02  0.27117685993E+02  0.00000000000E+00 0.  1.
         11    1    1    2    0    0  0.10435662111E+03  0.47210261589E+02  0.44766313276E+01  0.11462614622E+03  0.00000000000E+00 0. -1.
</event>
<event>
 7    1  0.8653652E-006  0.9690055E+02  0.7561462E-02  0.1286952E+00
          2   -1    0    0  501    0  0.00000000000E+00  0.00000000000E+00  0.33764255368E+02  0.33764255368E+02  0.00000000000E+00 0.  1.
         -2   -1    0    0    0  501 -0.00000000000E+00 -0.00000000000E+00 -0.50047886843E+03  0.50047886843E+03  0.00000000000E+00 0. -1.
         23    2    1    2    0    0 -0.38939240804E+02  0.33337684590E+02 -0.36057619450E+03  0.38508555348E+03  0.12509206915E+03 0.  0.
          5    1    3    3  502    0  0.17302600600E+02 -0.10513146764E+02 -0.26477492776E+03  0.26558076175E+03  0.41800000000E+01 0.  1.
         -5    1    3    3    0  502 -0.56241841403E+02  0.43850831354E+02 -0.95801266745E+02  0.11950479172E+03  0.41800000000E+01 0.  1.
        -11    1    1    2    0    0  0.65437466217E+02 -0.96471048734E+01 -0.85350317486E+02  0.10798057840E+03  0.00000000000E+00 0.  1.
         11    1    1    2    0    0 -0.26498225413E+02 -0.23690579717E+02 -0.20788101068E+02  0.41176991918E+02  0.00000000000E+00 0. -1.
</event>
<event>
 7    1  0.8653652E-006  0.8823041E+02  0.7561462E-02  0.1307194E+00
          2   -1    0    0  501    0  0.00000000000E+00  0.00000000000E+00  0.27217951838E+02  0.27217951838E+02  0.00000000000E+00 0. -1.
         -2   -1    0    0    0  501 -0.00000000000E+00 -0.00000000000E+00 -0.53272355416E+03  0.53272355416E+03  0.00000000000E+00 0.  1.
         23    2    1    2    0    0 -0.28615525233E+02 -0.35513007553E+02 -0.35379053324E+03  0.37801463840E+03  0.12508918197E+03 0.  0.
          5    1    3    3  502    0 -0.42429743655E+02  0.31342429389E+01 -0.32477945722E+03  0.32758094398E+03  0.41800000000E+01 0.  1.
         -5    1    3    3    0  502  0.13814218423E+02 -0.38647250492E+02 -0.29011076018E+02  0.50433694421E+02  0.41800000000E+01 0.  1.
        -11    1    1    2    0    0  0.41965750273E+02  0.54785599637E+02 -0.13915935138E+03  0.15533161687E+03  0.00000000000E+00 0.  1.
         11    1    1    2    0    0 -0.13350225041E+02 -0.19272592084E+02 -0.12555717710E+02  0.26595250732E+02  0.00000000000E+00 0. -1.
</event>
<event>
 7    1  0.8653652E-006  0.1412989E+03  0.7561462E-02  0.1211592E+00
          1   -1    0    0  501    0  0.00000000000E+00  0.00000000000E+00  0.14576687057E+03  0.14576687057E+03  0.00000000000E+00 0.  1.
         -1   -1    0    0    0  501 -0.00000000000E+00 -0.00000000000E+00 -0.17860635994E+03  0.17860635994E+03  0.00000000000E+00 0. -1.
         23    2    1    2    0    0  0.11484829010E+03 -0.85783891724E+01 -0.46764295010E+02  0.17634738369E+03  0.12509109459E+03 0.  0.
          5    1    3    3  502    0  0.14012125793E+02 -0.36607741437E+02  0.27399290732E+02  0.48006873830E+02  0.41800000000E+01 0. -1.
         -5    1    3    3    0  502  0.10083616431E+03  0.28029352264E+02 -0.74163585742E+02  0.12834050986E+03  0.41800000000E+01 0. -1.
        -11    1    1    2    0    0 -0.10640578818E+03  0.33954001591E+02  0.31470437874E+02  0.11604074475E+03  0.00000000000E+00 0.  1.
         11    1    1    2    0    0 -0.84425019245E+01 -0.25375612418E+02 -0.17545632237E+02  0.31985102078E+02  0.00000000000E+00 0. -1.
</event>
<event>
 7    1  0.8653652E-006  0.1107172E+03  0.7561462E-02  0.1259248E+00
          1   -1    0    0  501    0  0.00000000000E+00  0.00000000000E+00  0.23623740502E+03  0.23623740502E+03  0.00000000000E+00 0. -1.
         -1   -1    0    0    0  501 -0.00000000000E+00 -0.00000000000E+00 -0.64853031424E+02  0.64853031424E+02  0.00000000000E+00 0.  1.
         23    2    1    2    0    0  0.18477944249E+02 -0.54932059679E+02  0.69740285472E+02  0.15449915133E+03  0.12508922712E+03 0.  0.
          5    1    3    3  502    0  0.66102764690E+02 -0.11171667002E+02  0.57760124908E+02  0.88589424158E+02  0.41800000000E+01 0.  1.
         -5    1    3    3    0  502 -0.47624820440E+02 -0.43760392678E+02  0.11980160564E+02  0.65909727176E+02  0.41800000000E+01 0.  1.
        -11    1    1    2    0    0  0.20727977879E+02  0.44176666768E+02  0.15275517832E+02  0.51132850485E+02  0.00000000000E+00 0.  1.
         11    1    1    2    0    0 -0.39205922128E+02  0.10755392911E+02  0.86368570289E+02  0.95458434621E+02  0.00000000000E+00 0. -1.
</event>
<event>
 7    1  0.8653652E-006  0.1154899E+03  0.7561462E-02  0.1250728E+00
          1   -1    0    0  501    0  0.00000000000E+00  0.00000000000E+00  0.42031867043E+03  0.42031867043E+03  0.00000000000E+00 0. -1.
         -1   -1    0    0    0  501 -0.00000000000E+00 -0.00000000000E+00 -0.44994466493E+02  0.44994466493E+02  0.00000000000E+00 0.  1.
         23    2    1    2    0    0  0.38827085149E+02 -0.36893373405E+02  0.95357039029E+02  0.16615817347E+03  0.12508761000E+03 0.  0.
          5    1    3    3  502    0 -0.85447843019E+01 -0.68187000010E+02  0.83118717838E+02  0.10792902281E+03  0.41800000000E+01 0. -1.
         -5    1    3    3    0  502  0.47371869451E+02  0.31293626605E+02  0.12238321192E+02  0.58229150663E+02  0.41800000000E+01 0. -1.
        -11    1    1    2    0    0 -0.31046485164E+00  0.60189370619E+02  0.15075908411E+03  0.16233039816E+03  0.00000000000E+00 0. -1.
         11    1    1    2    0    0 -0.38516620298E+02 -0.23295997214E+02  0.12920808080E+03  0.13682456530E+03  0.00000000000E+00 0.  1.
</event>
<event>
 7    1  0.8653652E-006  0.8698834E+02  0.7561462E-02  0.1310313E+00
         -2   -1    0    0    0  501 -0.00000000000E+00  0.00000000000E+00  0.31968764128E+02  0.31968764128E+02  0.00000000000E+00 0.  1.
          2   -1    0    0  501    0  0.00000000000E+00 -0.00000000000E+00 -0.38929825808E+03  0.38929825808E+03  0.00000000000E+00 0. -1.
         23    2    1    2    0    0  0.14376890642E+02 -0.18842179138E+02 -0.22256015377E+03  0.25640208783E+03  0.12508911183E+03 0.  0.
          5    1    3    3  502    0  0.40712377590E+02 -0.45313791654E+02 -0.20685427355E+03  0.21567800140E+03  0.41800000000E+01 0.  1.
         -5    1    3    3    0  502 -0.26335486948E+02  0.26471612516E+02 -0.15705880223E+02  0.40724086430E+02  0.41800000000E+01 0.  1.
        -11    1    1    2    0    0  0.30769573064E+01  0.44338413192E+02 -0.25349018060E+02  0.51165762647E+02  0.00000000000E+00 0.  1.
         11    1    1    2    0    0 -0.17453847949E+02 -0.25496234054E+02 -0.10942032211E+03  0.11369917172E+03  0.00000000000E+00 0. -1.
</event>
<event>
 7    1  0.8653652E-006  0.9479456E+02  0.7561462E-02  0.1291639E+00
          2   -1    0    0  501    0  0.00000000000E+00  0.00000000000E+00  0.21383775964E+03  0.21383775964E+03  0.00000000000E+00 0. -1.
         -2   -1    0    0    0  501 -0.00000000000E+00 -0.00000000000E+00 -0.70227021040E+02  0.70227021040E+02  0.00000000000E+00 0.  1.
         23    2    1    2    0    0  0.36794723853E+02  0.52744822445E+02  0.46491463950E+02  0.13658575339E+03  0.11116808810E+03 0.  0.
          5    1    3    3  502    0  0.37541620515E+02 -0.67059776234E+01  0.63865848335E+02  0.74502767668E+02  0.41800000000E+01 0. -1.
         -5    1    3    3    0  502 -0.74689666162E+00  0.59450800068E+02 -0.17374384385E+02  0.62082985721E+02  0.41800000000E+01 0.  1.
        -11    1    1    2    0    0 -0.41271211300E+02 -0.65883187867E+02  0.10566206997E+03  0.13118071640E+03  0.00000000000E+00 0.  1.
         11    1    1    2    0    0  0.44764874464E+01  0.13138365423E+02 -0.85427953207E+01  0.16298310886E+02  0.00000000000E+00 0. -1.
</event>
<event>
 7    1  0.8653652E-006  0.1531574E+03  0.7561462E-02  0.1196646E+00
         -3   -1    0    0    0  501 -0.00000000000E+00  0.00000000000E+00  0.20733169810E+03  0.20733169810E+03  0.00000000000E+00 0.  1.
          3   -1    0    0  501    0  0.00000000000E+00 -0.00000000000E+00 -0.16824321941E+03  0.16824321941E+03  0.00000000000E+00 0. -1.
         23    2    1    2    0    0  0.44899921089E+02 -0.10048599056E+03  0.12535047817E+03  0.20850584142E+03  0.12509398993E+03 0.  0.
          5    1    3    3  502    0 -0.38770200708E+02 -0.59335005778E+02  0.71427923253E+02  0.10071341516E+03  0.41800000000E+01 0. -1.
         -5    1    3    3    0  502  0.83670121797E+02 -0.41150984780E+02  0.53922554919E+02  0.10779242626E+03  0.41800000000E+01 0. -1.
        -11    1    1    2    0    0  0.14162599589E+02  0.77202991481E+02 -0.57898146415E+02  0.97535001303E+02  0.00000000000E+00 0.  1.
         11    1    1    2    0    0 -0.59062520678E+02  0.23282999076E+02 -0.28363853063E+02  0.69534074780E+02  0.00000000000E+00 0. -1.
</event>
<event>
 7    1  0.8653652E-006  0.1070564E+03  0.7561462E-02  0.1266120E+00
          2   -1    0    0  501    0  0.00000000000E+00  0.00000000000E+00  0.61787986002E+03  0.61787986002E+03  0.00000000000E+00 0.  1.
         -2   -1    0    0    0  501 -0.00000000000E+00 -0.00000000000E+00 -0.19559723661E+02  0.19559723661E+02  0.00000000000E+00 0. -1.
         23    2    1    2    0    0  0.48412489932E+01 -0.94664208166E+00  0.28842994938E+03  0.31442436915E+03  0.12508602797E+03 0.  0.
          5    1    3    3  502    0 -0.59160427274E+02  0.97149394433E+01  0.14368191925E+03  0.15574434989E+03  0.41800000000E+01 0.  1.
         -5    1    3    3    0  502  0.64001676268E+02 -0.10661581525E+02  0.14474803012E+03  0.15868001925E+03  0.41800000000E+01 0.  1.
        -11    1    1    2    0    0 -0.89631941360E+01 -0.43472220421E+02  0.18941468775E+03  0.19454587308E+03  0.00000000000E+00 0. -1.
         11    1    1    2    0    0  0.41219451428E+01  0.44418862503E+02  0.12047549923E+03  0.12846934145E+03  0.00000000000E+00 0.  1.
</event>
<event>
 7    1  0.8653652E-006  0.1034336E+03  0.7561462E-02  0.1273237E+00
         -1   -1    0    0    0  501 -0.00000000000E+00  0.00000000000E+00  0.16004287381E+03  0.16004287381E+03  0.00000000000E+00 0.  1.
          1   -1    0    0  501    0  0.00000000000E+00 -0.00000000000E+00 -0.85012920353E+02  0.85012920353E+02  0.00000000000E+00 0. -1.
         23    2    1    2    0    0 -0.18885263135E+02  0.33778742993E+01  0.69071831376E+02  0.14417209868E+03  0.12508642192E+03 0.  0.
          5    1    3    3  502    0  0.35642906493E+02  0.44798221914E+02  0.24831714115E+02  0.62541057681E+02  0.41800000000E+01 0. -1.
         -5    1    3    3    0  502 -0.54528169628E+02 -0.41420347614E+02  0.44240117261E+02  0.81631041000E+02  0.41800000000E+01 0. -1.
        -11    1    1    2    0    0 -0.29381703219E+02 -0.12170010731E+02 -0.27051461412E+02  0.41751349796E+02  0.00000000000E+00 0. -1.
         11    1    1    2    0    0  0.48266966353E+02  0.87921364317E+01  0.33009583492E+02  0.59132345686E+02  0.00000000000E+00 0.  1.
</event>
<event>
 7    1  0.8653652E-006  0.1065446E+03  0.7561462E-02  0.1267106E+00
         -2   -1    0    0    0  501 -0.00000000000E+00  0.00000000000E+00  0.32059725413E+03  0.32059725413E+03  0.00000000000E+00 0. -1.
          2   -1    0    0  501    0  0.00000000000E+00 -0.00000000000E+00 -0.91771792879E+02  0.91771792879E+02  0.00000000000E+00 0.  1.
         23    2    1    2    0    0  0.19606062940E+02  0.86976070306E+02  0.23886202211E+03  0.28399171316E+03  0.12508794118E+03 0.  0.
          5    1    3    3  502    0  0.31559442073E+01  0.45255957686E+02  0.49996268427E+01  0.45831543269E+02  0.41800000000E+01 0. -1.
         -5    1    3    3    0  502  0.16450118733E+02  0.41720112621E+02  0.23386239527E+03  0.23816016990E+03  0.41800000000E+01 0. -1.
        -11    1    1    2    0    0 -0.52856669987E+02 -0.49921338727E+02  0.12425247177E+02  0.73758758055E+02  0.00000000000E+00 0. -1.
         11    1    1    2    0    0  0.33250607047E+02 -0.37054731579E+02 -0.22461808036E+02  0.54618575792E+02  0.00000000000E+00 0.  1.
</event>
<event>
 7    1  0.8653652E-006  0.1014041E+03  0.7561462E-02  0.1277371E+00
          1   -1    0    0  501    0  0.00000000000E+00  0.00000000000E+00  0.18347132804E+03  0.18347132804E+03  0.00000000000E+00 0. -1.
         -1   -1    0    0    0  501 -0.00000000000E+00 -0.00000000000E+00 -0.71105246768E+02  0.71105246768E+02  0.00000000000E+00 0.  1.
         23    2    1    2    0    0  0.31806568943E+02  0.89545280682E+01  0.47361782431E+02  0.13777558892E+03  0.12508850093E+03 0.  0.
          5    1    3    3  502    0  0.32387608006E+02  0.64367922270E+02  0.15880135334E+02  0.73904246617E+02  0.41800000000E+01 0.  1.
         -5    1    3    3    0  502 -0.58103906296E+00 -0.55413394202E+02  0.31481647098E+02  0.63871342301E+02  0.41800000000E+01 0.  1.
        -11    1    1    2    0    0  0.18763129303E+02 -0.15140223007E+02 -0.10023765178E+02  0.26110481464E+02  0.00000000000E+00 0.  1.
         11    1    1    2    0    0 -0.50569698246E+02  0.61856949387E+01  0.75028064015E+02  0.90690504422E+02  0.00000000000E+00 0. -1.
</event>
<event>
 7    1  0.8653652E-006  0.1295707E+03  0.7561462E-02  0.1228094E+00
          2   -1    0    0  501    0  0.00000000000E+00  0.00000000000E+00  0.43475520534E+03  0.43475520534E+03  0.00000000000E+00 0. -1.
         -2   -1    0    0    0  501 -0.00000000000E+00 -0.00000000000E+00 -0.57752149048E+02  0.57752149048E+02  0.00000000000E+00 0.  1.
         23    2    1    2    0    0 -0.11369663697E+03  0.72095852515E+01  0.17375622071E+03  0.24252419630E+03  0.12509139930E+03 0.  0.
          5    1    3    3  502    0 -0.62930730028E+02  0.13968469947E+02  0.35105674897E+01  0.64693055413E+02  0.41800000000E+01 0. -1.
         -5    1    3    3    0  502 -0.50765906944E+02 -0.67588846959E+01  0.17024565322E+03  0.17783114089E+03  0.41800000000E+01 0. -1.
        -11    1    1    2    0    0 -0.16375034273E+00  0.24866721966E+02  0.54725442679E+02  0.60110354781E+02  0.00000000000E+00 0.  1.
         11    1    1    2    0    0  0.11386038732E+03 -0.32076307217E+02  0.14852139290E+03  0.18987280330E+03  0.00000000000E+00 0. -1.
</event>
<event>
 7    1  0.8653652E-006  0.1386010E+03  0.7561462E-02  0.1215224E+00
         -3   -1    0    0    0  501 -0.00000000000E+00  0.00000000000E+00  0.49632421544E+03  0.49632421544E+03  0.00000000000E+00 0.  1.
          3   -1    0    0  501    0  0.00000000000E+00 -0.00000000000E+00 -0.60644348563E+02  0.60644348563E+02  0.00000000000E+00 0. -1.
         23    2    1    2    0    0  0.42874218190E+00  0.12712379568E+03  0.31224796771E+03  0.35959211421E+03  0.12508817694E+03 0.  0.
          5    1    3    3  502    0  0.12862826369E+02  0.57515339948E+02  0.27154096700E+03  0.27789464873E+03  0.41800000000E+01 0. -1.
         -5    1    3    3    0  502 -0.12434084187E+02  0.69608455729E+02  0.40707000712E+02  0.81697465478E+02  0.41800000000E+01 0. -1.
        -11    1    1    2    0    0 -0.35843720604E+02 -0.85017092881E+02  0.47978584103E+02  0.10399337922E+03  0.00000000000E+00 0. -1.
         11    1    1    2    0    0  0.35414978423E+02 -0.42106702797E+02  0.75453315058E+02  0.93383070576E+02  0.00000000000E+00 0.  1.
</event>
<event>
 7    1  0.8653652E-006  0.1204523E+03  0.7561462E-02  0.1242353E+00
         -1   -1    0    0    0  501 -0.00000000000E+00  0.00000000000E+00  0.10275443235E+03  0.10275443235E+03  0.00000000000E+00 0.  1.
          1   -1    0    0  501    0  0.00000000000E+00 -0.00000000000E+00 -0.34373401284E+03  0.34373401284E+03  0.00000000000E+00 0. -1.
         23    2    1    2    0    0  0.30859322042E+02 -0.99162199312E+02  0.68314415297E+01  0.16270871916E+03  0.12506805814E+03 0.  0.
          5    1    3    3  502    0 -0.20961234655E+02 -0.32278732742E+02 -0.48100327750E+02  0.61744666777E+02  0.41800000000E+01 0.  1.
         -5    1    3    3    0  502  0.51820556698E+02 -0.66883466570E+02  0.54931769280E+02  0.10096405238E+03  0.41800000000E+01 0.  1.
        -11    1    1    2    0    0 -0.46778335849E+02  0.78702008879E+02 -0.23974252677E+03  0.25662949567E+03  0.00000000000E+00 0. -1.
         11    1    1    2    0    0  0.15919013807E+02  0.20460190433E+02 -0.80684952552E+01  0.27150230364E+02  0.00000000000E+00 0.  1.
</event>
<event>
 7    1  0.8653652E-006  0.2141507E+03  0.7561462E-02  0.1138321E+00
         -1   -1    0    0    0  501 -0.00000000000E+00  0.00000000000E+00  0.35453944977E+02  0.35453944977E+02  0.00000000000E+00 0.  1.
          1   -1    0    0  501    0  0.00000000000E+00 -0.00000000000E+00 -0.15585087310E+04  0.15585087310E+04  0.00000000000E+00 0. -1.
         23    2    1    2    0    0 -0.20670460451E+03  0.68738373949E+01 -0.71035397051E+03  0.75034926446E+03  0.12508881679E+03 0.  0.
          5    1    3    3  502    0 -0.13423957404E+03  0.68124293034E+01 -0.24600674935E+03  0.28036309593E+03  0.41800000000E+01 0.  1.
         -5    1    3    3    0  502 -0.72465030469E+02  0.61408091526E-01 -0.46434722116E+03  0.46998616853E+03  0.41800000000E+01 0.  1.
        -11    1    1    2    0    0  0.18499053009E+03 -0.32313976629E+02 -0.74207741379E+03  0.76547016752E+03  0.00000000000E+00 0.  1.
         11    1    1    2    0    0  0.21714074419E+02  0.25440139234E+02 -0.70623401767E+02  0.78143244041E+02  0.00000000000E+00 0. -1.
</event>
<event>
 7    1  0.8653652E-006  0.5744071E+02  0.7561462E-02  0.1408897E+00
         -1   -1    0    0    0  501 -0.00000000000E+00  0.00000000000E+00  0.65270054836E+03  0.65270054836E+03  0.00000000000E+00 0.  1.
          1   -1    0    0  501    0  0.00000000000E+00 -0.00000000000E+00 -0.21024421678E+02  0.21024421678E+02  0.00000000000E+00 0. -1.
         23    2    1    2    0    0 -0.29161614976E+02 -0.98487702839E+01  0.46463132633E+03  0.48215794512E+03  0.12508643639E+03 0.  0.
          5    1    3    3  502    0 -0.45909869725E+01 -0.12242688476E+02 -0.28389685317E+01  0.14017586270E+02  0.41800000000E+01 0.  1.
         -5    1    3    3    0  502 -0.24570628004E+02  0.23939181921E+01  0.46747029486E+03  0.46814035885E+03  0.41800000000E+01 0.  1.
        -11    1    1    2    0    0  0.52072275420E+02  0.10820828383E+02  0.15834963123E+03  0.16704256315E+03  0.00000000000E+00 0.  1.
         11    1    1    2    0    0 -0.22910660443E+02 -0.97205809917E+00  0.86951691219E+01  0.24524461767E+02  0.00000000000E+00 0. -1.
</event>
<event>
 7    1  0.8653652E-006  0.1987426E+03  0.7561462E-02  0.1150804E+00
         -2   -1    0    0    0  501 -0.00000000000E+00  0.00000000000E+00  0.70980325449E+02  0.70980325449E+02  0.00000000000E+00 0.  1.
          2   -1    0    0  501    0  0.00000000000E+00 -0.00000000000E+00 -0.59650518863E+03  0.59650518863E+03  0.00000000000E+00 0. -1.
         23    2    1    2    0    0 -0.15454279835E+03  0.80310766103E+02 -0.29801865967E+03  0.36714611681E+03  0.12509138220E+03 0.  0.
          5    1    3    3  502    0  0.39010701333E+01 -0.18023541477E+02 -0.46013504624E+01  0.19460504147E+02  0.41800000000E+01 0. -1.
         -5    1    3    3    0  502 -0.15844386849E+03  0.98334307580E+02 -0.29341730921E+03  0.34768561266E+03  0.41800000000E+01 0. -1.
        -11    1    1    2    0    0  0.13672418891E+03 -0.31802523157E+02 -0.19114131017E+03  0.23714954093E+03  0.00000000000E+00 0. -1.
         11    1    1    2    0    0  0.17818609440E+02 -0.48508242947E+02 -0.36364893341E+02  0.63189856337E+02  0.00000000000E+00 0.  1.
</event>
<event>
 7    1  0.8653652E-006  0.9861476E+02  0.7561462E-02  0.1283236E+00
         -4   -1    0    0    0  501 -0.00000000000E+00  0.00000000000E+00  0.23782593591E+03  0.23782593591E+03  0.00000000000E+00 0.  1.
          4   -1    0    0  501    0  0.00000000000E+00 -0.00000000000E+00 -0.95296004275E+02  0.95296004275E+02  0.00000000000E+00 0. -1.
         23    2    1    2    0    0 -0.91912830954E+02  0.15271292864E+02  0.12943788825E+03  0.20268980194E+03  0.12509119880E+03 0.  0.
          5    1    3    3  502    0 -0.38626006062E+02  0.25285269601E+01 -0.19784368733E+02  0.43672135728E+02  0.41800000000E+01 0. -1.
         -5    1    3    3    0  502 -0.53286824892E+02  0.12742765904E+02  0.14922225698E+03  0.15901766621E+03  0.41800000000E+01 0. -1.
        -11    1    1    2    0    0  0.16418268698E+02 -0.22114900024E+02 -0.32007218390E+02  0.42226654842E+02  0.00000000000E+00 0.  1.
         11    1    1    2    0    0  0.75494562256E+02  0.68436071599E+01  0.45099261778E+02  0.88205483401E+02  0.00000000000E+00 0. -1.
</event>
<event>
 7    1  0.8653652E-006  0.8861704E+02  0.7561462E-02  0.1306236E+00
          2   -1    0    0  501    0  0.00000000000E+00  0.00000000000E+00  0.21950634858E+03  0.21950634858E+03  0.00000000000E+00 0. -1.
         -2   -1    0    0    0  501 -0.00000000000E+00 -0.00000000000E+00 -0.11535641971E+03  0.11535641971E+03  0.00000000000E+00 0.  1.
         23    2    1    2    0    0 -0.59028318531E+02  0.53343971995E+02 -0.29226448554E+02  0.15110120371E+03  0.12508983464E+03 0.  0.
          5    1    3    3  502    0 -0.38951382429E+02  0.32218234436E+02  0.47146597623E+02  0.69249540725E+02  0.41800000000E+01 0.  1.
         -5    1    3    3    0  502 -0.20076936102E+02  0.21125737559E+02 -0.76373046177E+02  0.81851662983E+02  0.41800000000E+01 0.  1.
        -11    1    1    2    0    0  0.89720390142E+01  0.11857787976E+02 -0.10400175501E+02  0.18145750748E+02  0.00000000000E+00 0.  1.
         11    1    1    2    0    0  0.50056279517E+02 -0.65201759971E+02  0.14377655293E+03  0.16561581384E+03  0.00000000000E+00 0. -1.
</event>
<event>
 7    1  0.8653652E-006  0.7700180E+02  0.7561462E-02  0.1337782E+00
          3   -1    0    0  501    0  0.00000000000E+00  0.00000000000E+00  0.75453532277E+02  0.75453532277E+02  0.00000000000E+00 0. -1.
         -3   -1    0    0    0  501 -0.00000000000E+00 -0.00000000000E+00 -0.18260436971E+03  0.18260436971E+03  0.00000000000E+00 0.  1.
         23    2    1    2    0    0  0.24990029590E+02  0.35357501673E+02 -0.98535315763E+02  0.15653339119E+03  0.11366107338E+03 0.  0.
          5    1    3    3  502    0 -0.13118254014E+02 -0.90851699974E+01  0.18998056265E+02  0.25160036648E+02  0.41800000000E+01 0. -1.
         -5    1    3    3    0  502  0.38108283605E+02  0.44442671671E+02 -0.11753337203E+03  0.13137335455E+03  0.41800000000E+01 0.  1.
        -11    1    1    2    0    0 -0.13586535725E+02  0.18953345637E+02  0.26928387146E+02  0.35622483042E+02  0.00000000000E+00 0.  1.
         11    1    1    2    0    0 -0.11403493865E+02 -0.54310847310E+02 -0.35543908816E+02  0.65902027751E+02  0.00000000000E+00 0. -1.
</event>
<event>
 7    1  0.8963764E-006  0.2643387E+03  0.7561462E-02  0.1104564E+00
          1   -1    0    0  501    0  0.00000000000E+00  0.00000000000E+00  0.21486333815E+04  0.21486333815E+04  0.00000000000E+00 0.  1.
         -1   -1    0    0    0  501 -0.00000000000E+00 -0.00000000000E+00 -0.39124979645E+02  0.39124979645E+02  0.00000000000E+00 0. -1.
         23    2    1    2    0    0  0.19037410668E+03  0.16645734004E+03  0.73828771300E+03  0.79035812625E+03  0.12508746543E+03 0.  0.
          5    1    3    3  502    0  0.17716820884E+03  0.16970710339E+03  0.73615572424E+03  0.77597151874E+03  0.41800000000E+01 0. -1.
         -5    1    3    3    0  502  0.13205897835E+02 -0.32497633474E+01  0.21319887621E+01  0.14386607506E+02  0.41800000000E+01 0. -1.
        -11    1    1    2    0    0 -0.15904489965E+03 -0.81876610087E+02  0.93291630255E+03  0.94991151532E+03  0.00000000000E+00 0. -1.
         11    1    1    2    0    0 -0.31329207030E+02 -0.84580729953E+02  0.43830438629E+03  0.44748871956E+03  0.00000000000E+00 0.  1.
</event>
<event>
 6    1  0.8653652E-006  0.3132915E+03  0.7561462E-02  0.1078779E+00
          2   -1    0    0  501    0  0.00000000000E+00  0.00000000000E+00  0.26447211460E+04  0.26447211460E+04  0.00000000000E+00 0. -1.
         -2   -1    0    0    0  501 -0.00000000000E+00 -0.00000000000E+00 -0.40732510713E+02  0.40732510713E+02  0.00000000000E+00 0.  1.
          5    1    1    2  502    0 -0.41022501590E+02 -0.28726233448E+02  0.13291471726E+03  0.14209798236E+03  0.41800000000E+01 0. -1.
         -5    1    1    2    0  502 -0.18977757895E+03  0.20115827582E+03  0.82994262695E+03  0.87481564791E+03  0.41800000000E+01 0.  1.
        -11    1    1    2    0    0  0.61174993643E+02 -0.49563970796E+01  0.27470903505E+03  0.28148179276E+03  0.00000000000E+00 0.  1.
         11    1    1    2    0    0  0.16962508689E+03 -0.16747564529E+03  0.13664222561E+04  0.13870582337E+04  0.00000000000E+00 0. -1.
</event>
<event>
 7    1  0.8653652E-006  0.1550202E+03  0.7561462E-02  0.1194436E+00
          2   -1    0    0  501    0  0.00000000000E+00  0.00000000000E+00  0.10112212135E+04  0.10112212135E+04  0.00000000000E+00 0. -1.
         -2   -1    0    0    0  501 -0.00000000000E+00 -0.00000000000E+00 -0.31427668570E+02  0.31427668570E+02  0.00000000000E+00 0.  1.
         23    2    1    2    0    0 -0.10983345757E+03  0.76596959904E+02  0.38769474042E+03  0.42881926522E+03  0.12509303659E+03 0.  0.
          5    1    3    3  502    0 -0.57601763184E+02  0.80452427874E+02  0.11798909187E+03  0.15404367716E+03  0.41800000000E+01 0.  1.
         -5    1    3    3    0  502 -0.52231694385E+02 -0.38554679699E+01  0.26970564855E+03  0.27477558805E+03  0.41800000000E+01 0.  1.
        -11    1    1    2    0    0  0.48877527938E+02 -0.83873137296E+02  0.42112469158E+03  0.43216862653E+03  0.00000000000E+00 0.  1.
         11    1    1    2    0    0  0.60955929631E+02  0.72761773920E+01  0.17097411297E+03  0.18166099036E+03  0.00000000000E+00 0. -1.
</event>
<event>
 7    1  0.8653652E-006  0.1270646E+03  0.7561462E-02  0.1231877E+00
         -1   -1    0    0    0  501 -0.00000000000E+00  0.00000000000E+00  0.14331729111E+03  0.14331729111E+03  0.00000000000E+00 0.  1.
          1   -1    0    0  501    0  0.00000000000E+00 -0.00000000000E+00 -0.15767521561E+03  0.15767521561E+03  0.00000000000E+00 0. -1.
         23    2    1    2    0    0 -0.34680218023E+02  0.98884562492E+02 -0.13927020878E+02  0.16386224728E+03  0.12520383361E+03 0.  0.
          5    1    3    3  502    0  0.14250761510E+02  0.22100093211E+01 -0.47926991779E+02  0.50223871673E+02  0.41800000000E+01 0.  1.
         -5    1    3    3    0  502 -0.48930979533E+02  0.96674553171E+02  0.33999970901E+02  0.11363837560E+03  0.41800000000E+01 0.  1.
        -11    1    1    2    0    0  0.52936200512E+02 -0.33150344850E+02  0.20552444529E+02  0.65754008733E+02  0.00000000000E+00 0.  1.
         11    1    1    2    0    0 -0.18255982489E+02 -0.65734217642E+02 -0.20983348156E+02  0.71376250710E+02  0.00000000000E+00 0. -1.
</event>
<event>
 6    1  0.8653652E-006  0.1353696E+03  0.7561462E-02  0.1219699E+00
         -2   -1    0    0    0  501 -0.00000000000E+00  0.00000000000E+00  0.10289647792E+03  0.10289647792E+03  0.00000000000E+00 0.  1.
          2   -1    0    0  501    0  0.00000000000E+00 -0.00000000000E+00 -0.30894487114E+03  0.30894487114E+03  0.00000000000E+00 0. -1.
          5    1    1    2  502    0  0.50111902748E+02  0.30401855511E+02  0.48278099229E+01  0.58959780904E+02  0.41800000000E+01 0. -1.
         -5    1    1    2    0  502 -0.91450959382E+02  0.30606835960E+02  0.16353596423E+02  0.97902854378E+02  0.41800000000E+01 0.  1.
        -11    1    1    2    0    0  0.23405374408E+02  0.21035303681E+02 -0.55054655458E+02  0.63413804804E+02  0.00000000000E+00 0. -1.
         11    1    1    2    0    0  0.17933682226E+02 -0.82043995152E+02 -0.17217514412E+03  0.19156490897E+03  0.00000000000E+00 0.  1.
</event>
<event>
 7    1  0.8653652E-006  0.7034645E+02  0.7561462E-02  0.1358919E+00
          1   -1    0    0  501    0  0.00000000000E+00  0.00000000000E+00  0.26837286918E+03  0.26837286918E+03  0.00000000000E+00 0. -1.
         -1   -1    0    0    0  501 -0.00000000000E+00 -0.00000000000E+00 -0.40273399948E+02  0.40273399948E+02  0.00000000000E+00 0.  1.
         23    2    1    2    0    0 -0.10137542415E+02  0.10447758672E+02  0.11000241604E+03  0.16721242203E+03  0.12509011599E+03 0.  0.
          5    1    3    3  502    0  0.25619647912E+02 -0.29078711669E+02  0.10675637512E+03  0.11365004998E+03  0.41800000000E+01 0. -1.
         -5    1    3    3    0  502 -0.35757190328E+02  0.39526470340E+02  0.32460409153E+01  0.53562372047E+02  0.41800000000E+01 0. -1.
        -11    1    1    2    0    0 -0.17936208587E+02 -0.91752630856E+01  0.11050125127E+03  0.11232283634E+03  0.00000000000E+00 0. -1.
         11    1    1    2    0    0  0.28073751002E+02 -0.12724955860E+01  0.75958019180E+01  0.29111010754E+02  0.00000000000E+00 0.  1.
</event>
<event>
 7    1  0.8653652E-006  0.1542062E+03  0.7561462E-02  0.1195398E+00
         -2   -1    0    0    0  501 -0.00000000000E+00  0.00000000000E+00  0.10503084072E+03  0.10503084072E+03  0.00000000000E+00 0.  1.
          2   -1    0    0  501    0  0.00000000000E+00 -0.00000000000E+00 -0.35116017970E+03  0.35116017970E+03  0.00000000000E+00 0. -1.
         23    2    1    2    0    0  0.14918353218E+03  0.32617931699E+02 -0.18299684335E+03  0.26917513283E+03  0.12509097376E+03 0.  0.
          5    1    3    3  502    0  0.21613329689E+02  0.12824293315E+02  0.17333832875E+02  0.30814488174E+02  0.41800000000E+01 0.  1.
         -5    1    3    3    0  502  0.12757020249E+03  0.19793638384E+02 -0.20033067622E+03  0.23836064465E+03  0.41800000000E+01 0.  1.
        -11    1    1    2    0    0 -0.83859234420E+02 -0.27472579334E+02  0.10014304433E+02  0.88811035947E+02  0.00000000000E+00 0.  1.
         11    1    1    2    0    0 -0.65324297758E+02 -0.51453523653E+01 -0.73146800059E+02  0.98204851649E+02  0.00000000000E+00 0. -1.
</event>
<event>
 7    1  0.8653652E-006  0.1325758E+03  0.7561462E-02  0.1223683E+00
          2   -1    0    0  501    0  0.00000000000E+00  0.00000000000E+00  0.28249447204E+03  0.28249447204E+03  0.00000000000E+00 0. -1.
         -2   -1    0    0    0  501 -0.00000000000E+00 -0.00000000000E+00 -0.76580202639E+02  0.76580202639E+02  0.00000000000E+00 0.  1.
         23    2    1    2    0    0 -0.61930686339E+02  0.57803178698E+02  0.47183132486E+02  0.15827457181E+03  0.12509186509E+03 0.  0.
          5    1    3    3  502    0 -0.60440734821E+02 -0.26665926794E+02  0.25661821526E+02  0.70994053001E+02  0.41800000000E+01 0. -1.
         -5    1    3    3    0  502 -0.14899515182E+01  0.84469105492E+02  0.21521310959E+02  0.87280518809E+02  0.41800000000E+01 0. -1.
        -11    1    1    2    0    0 -0.19648673318E+01  0.16361558391E+02  0.28414699571E+01  0.16722297932E+02  0.00000000000E+00 0.  1.
         11    1    1    2    0    0  0.63895553671E+02 -0.74164737089E+02  0.15588966696E+03  0.18407780494E+03  0.00000000000E+00 0. -1.
</event>
<event>
 7    1  0.8653652E-006  0.1070520E+03  0.7561462E-02  0.1266129E+00
          2   -1    0    0  501    0  0.00000000000E+00  0.00000000000E+00  0.83485062771E+02  0.83485062771E+02  0.00000000000E+00 0. -1.
         -2   -1    0    0    0  501 -0.00000000000E+00 -0.00000000000E+00 -0.16295505551E+03  0.16295505551E+03  0.00000000000E+00 0.  1.
         23    2    1    2    0    0 -0.30947147345E+02  0.24453434419E+00 -0.75429644521E+02  0.14931538959E+03  0.12509064141E+03 0.  0.
          5    1    3    3  502    0  0.42298045299E+02  0.15234139530E+02 -0.31818751952E+01  0.45263676089E+02  0.41800000000E+01 0. -1.
         -5    1    3    3    0  502 -0.73245192644E+02 -0.14989605186E+02 -0.72247769325E+02  0.10405171350E+03  0.41800000000E+01 0. -1.
        -11    1    1    2    0    0  0.50277045344E+02  0.29727069004E+02 -0.14066676395E+02  0.60077877001E+02  0.00000000000E+00 0.  1.
         11    1    1    2    0    0 -0.19329897999E+02 -0.29971603348E+02  0.10026328175E+02  0.37046851696E+02  0.00000000000E+00 0. -1.
</event>
<event>
 7    1  0.8653652E-006  0.1150494E+03  0.7561462E-02  0.1251495E+00
          1   -1    0    0  501    0  0.00000000000E+00  0.00000000000E+00  0.83926501831E+02  0.83926501831E+02  0.00000000000E+00 0. -1.
         -1   -1    0    0    0  501 -0.00000000000E+00 -0.00000000000E+00 -0.35024489643E+03  0.35024489643E+03  0.00000000000E+00 0.  1.
         23    2    1    2    0    0 -0.36615048930E+01  0.94282519933E+02 -0.25895594569E+03  0.30266933718E+03  0.12509174904E+03 0.  0.
          5    1    3    3  502    0  0.22982959648E+02  0.85316759567E+02 -0.73385647042E+02  0.11493516211E+03  0.41800000000E+01 0.  1.
         -5    1    3    3    0  502 -0.26644464541E+02  0.89657603664E+01 -0.18557029865E+03  0.18773417508E+03  0.41800000000E+01 0.  1.
        -11    1    1    2    0    0  0.16192284254E+02 -0.98634821553E+02 -0.30781267972E+02  0.10458730587E+03  0.00000000000E+00 0.  1.
         11    1    1    2    0    0 -0.12530779361E+02  0.43523016196E+01  0.23418819070E+02  0.26914755199E+02  0.00000000000E+00 0. -1.
</event>
<event>
 7    1  0.8653652E-006  0.6943650E+02  0.7561462E-02  0.1362020E+00
         -2   -1    0    0    0  501 -0.00000000000E+00  0.00000000000E+00  0.54535232631E+03  0.54535232631E+03  0.00000000000E+00 0.  1.
          2   -1    0    0  501    0  0.00000000000E+00 -0.00000000000E+00 -0.31167644405E+02  0.31167644405E+02  0.00000000000E+00 0. -1.
         23    2    1    2    0    0  0.52925851668E+02 -0.51162251503E+01  0.38769759035E+03  0.41083407969E+03  0.12509155819E+03 0.  0.
          5    1    3    3  502    0  0.51140980880E+02  0.38955586903E+01  0.46104074070E+02  0.69091485356E+02  0.41800000000E+01 0.  1.
         -5    1    3    3    0  502  0.17848707883E+01 -0.90117838406E+01  0.34159351628E+03  0.34174259433E+03  0.41800000000E+01 0.  1.
        -11    1    1    2    0    0 -0.23952943631E+02  0.30513628309E+02  0.12063080278E+03  0.12671470160E+03  0.00000000000E+00 0.  1.
         11    1    1    2    0    0 -0.28972908037E+02 -0.25397403158E+02  0.58562887635E+01  0.38971189427E+02  0.00000000000E+00 0. -1.
</event>
<event>
 7    1  0.8653652E-006  0.1233012E+03  0.7561462E-02  0.1237748E+00
         -1   -1    0    0    0  501 -0.00000000000E+00  0.00000000000E+00  0.37542191937E+02  0.37542191937E+02  0.00000000000E+00 0.  1.
          1   -1    0    0  501    0  0.00000000000E+00 -0.00000000000E+00 -0.70288516751E+03  0.70288516751E+03  0.00000000000E+00 0. -1.
         23    2    1    2    0    0 -0.74955359705E+02 -0.82108397563E+02 -0.24961925445E+03  0.30037134263E+03  0.12471197368E+03 0.  0.
          5    1    3    3  502    0 -0.31997475149E+02 -0.15231586957E+02 -0.20706058694E+03  0.21011282379E+03  0.41800000000E+01 0.  1.
         -5    1    3    3    0  502 -0.42957884555E+02 -0.66876810606E+02 -0.42558667517E+02  0.90258518839E+02  0.41800000000E+01 0.  1.
        -11    1    1    2    0    0  0.65826240126E+00 -0.11665765869E+02 -0.58282655075E+01  0.13057261640E+02  0.00000000000E+00 0.  1.
         11    1    1    2    0    0  0.74297097303E+02  0.93774163432E+02 -0.40989545561E+03  0.42699875518E+03  0.00000000000E+00 0. -1.
</event>
<event>
 7    1  0.8653652E-006  0.1914821E+03  0.7561462E-02  0.1157131E+00
          1   -1    0    0  501    0  0.00000000000E+00  0.00000000000E+00  0.48528071968E+03  0.48528071968E+03  0.00000000000E+00 0. -1.
         -1   -1    0    0    0  501 -0.00000000000E+00 -0.00000000000E+00 -0.13376197973E+03  0.13376197973E+03  0.00000000000E+00 0.  1.
         23    2    1    2    0    0  0.13249746208E+03  0.12650368577E+03  0.11766099499E+02  0.22213711057E+03  0.12509074635E+03 0.  0.
          5    1    3    3  502    0  0.18716501402E+02  0.16512491762E+02 -0.46912714672E+02  0.53303330166E+02  0.41800000000E+01 0. -1.
         -5    1    3    3    0  502  0.11378096068E+03  0.10999119401E+03  0.58678814170E+02  0.16883378040E+03  0.41800000000E+01 0. -1.
        -11    1    1    2    0    0 -0.45623759661E+02 -0.97694210605E+02  0.13612425576E+03  0.17365338821E+03  0.00000000000E+00 0.  1.
         11    1    1    2    0    0 -0.86873702421E+02 -0.28809475165E+02  0.20362838469E+03  0.22325220062E+03  0.00000000000E+00 0. -1.
</event>
<event>
 7    1  0.8653652E-006  0.8626752E+02  0.7561462E-02  0.1312151E+00
         -3   -1    0    0    0  501 -0.00000000000E+00  0.00000000000E+00  0.44859629836E+02  0.44859629836E+02  0.00000000000E+00 0.  1.
          3   -1    0    0  501    0  0.00000000000E+00 -0.00000000000E+00 -0.33020441130E+03  0.33020441130E+03  0.00000000000E+00 0. -1.
         23    2    1    2    0    0 -0.21056178337E+02  0.52692372271E+02 -0.16065247229E+03  0.21136909841E+03  0.12509128734E+03 0.  0.
          5    1    3    3  502    0  0.12388957850E+02  0.40476197360E+02 -0.16924050663E+03  0.17450395501E+03  0.41800000000E+01 0.  1.
         -5    1    3    3    0  502 -0.33445136187E+02  0.12216174910E+02  0.85880343410E+01  0.36865143399E+02  0.41800000000E+01 0.  1.
        -11    1    1    2    0    0  0.14015626696E+02  0.18164278000E+02 -0.36070637600E+01  0.23224764712E+02  0.00000000000E+00 0.  1.
         11    1    1    2    0    0  0.70405516406E+01 -0.70856650271E+02 -0.12108524541E+03  0.14047017802E+03  0.00000000000E+00 0. -1.
</event>
<event>
 7    1  0.8653652E-006  0.1176416E+03  0.7561462E-02  0.1247039E+00
         -2   -1    0    0    0  501 -0.00000000000E+00  0.00000000000E+00  0.45423979714E+02  0.45423979714E+02  0.00000000000E+00 0.  1.
          2   -1    0    0  501    0  0.00000000000E+00 -0.00000000000E+00 -0.38400148710E+03  0.38400148710E+03  0.00000000000E+00 0. -1.
         23    2    1    2    0    0  0.38340122397E+02  0.36887716832E+02 -0.10163414304E+03  0.16973111670E+03  0.12509390196E+03 0.  0.
          5    1    3    3  502    0  0.15084193463E+02 -0.45277936475E+02 -0.21350038617E+02  0.52449222805E+02  0.41800000000E+01 0. -1.
         -5    1    3    3    0  502  0.23255928934E+02  0.82165653306E+02 -0.80284104423E+02  0.11728189390E+03  0.41800000000E+01 0. -1.
        -11    1    1    2    0    0  0.18865199158E+02 -0.40379002251E+02 -0.68086874650E+02  0.81376790682E+02  0.00000000000E+00 0.  1.
         11    1    1    2    0    0 -0.57205321555E+02  0.34912854188E+01 -0.16885648970E+03  0.17831755943E+03  0.00000000000E+00 0. -1.
</event>
<event>
 7    1  0.8653652E-006  0.3008250E+03  0.7561462E-02  0.1084829E+00
          2   -1    0    0  501    0  0.00000000000E+00  0.00000000000E+00  0.13645426887E+04  0.13645426887E+04  0.00000000000E+00 0. -1.
         -2   -1    0    0    0  501 -0.00000000000E+00 -0.00000000000E+00 -0.11399711523E+03  0.11399711523E+03  0.00000000000E+00 0.  1.
         23    2    1    2    0    0 -0.12184311045E+03  0.27026070185E+03  0.19047081571E+03  0.37391508477E+03  0.12508704350E+03 0.  0.
          5    1    3    3  502    0 -0.58344541691E+02  0.84849830834E+02  0.13566530045E+03  0.17037055346E+03  0.41800000000E+01 0. -1.
         -5    1    3    3    0  502 -0.63498568764E+02  0.18541087101E+03  0.54805515256E+02  0.20354453131E+03  0.41800000000E+01 0. -1.
        -11    1    1    2    0    0  0.66219079906E+02 -0.21162049673E+03  0.65351628724E+03  0.69010994694E+03  0.00000000000E+00 0.  1.
         11    1    1    2    0    0  0.55624030549E+02 -0.58640205118E+02  0.40655847050E+03  0.41451477219E+03  0.00000000000E+00 0. -1.
</event>
<event>
 7    1  0.8653652E-006  0.8977775E+02  0.7561462E-02  0.1303391E+00
          2   -1    0    0  501    0  0.00000000000E+00  0.00000000000E+00  0.30026957308E+03  0.30026957308E+03  0.00000000000E+00 0. -1.
         -2   -1    0    0    0  501 -0.00000000000E+00 -0.00000000000E+00 -0.41314590082E+02  0.41314590082E+02  0.00000000000E+00 0.  1.
         23    2    1    2    0    0  0.66623972166E+01  0.26087180509E+02  0.16675526447E+03  0.21018879157E+03  0.12508829421E+03 0.  0.
          5    1    3    3  502    0 -0.20261540463E+01  0.70943897253E+02  0.14015027527E+03  0.15715188168E+03  0.41800000000E+01 0. -1.
         -5    1    3    3    0  502  0.86885512629E+01 -0.44856716744E+02  0.26604989204E+02  0.53036909890E+02  0.41800000000E+01 0. -1.
        -11    1    1    2    0    0  0.25024939184E+02 -0.91241696783E+01 -0.55838975726E+01  0.27215399420E+02  0.00000000000E+00 0.  1.
         11    1    1    2    0    0 -0.31687336401E+02 -0.16963010830E+02  0.97783616095E+02  0.10417997217E+03  0.00000000000E+00 0. -1.
</event>
<event>
 7    1  0.8653652E-006  0.1001297E+03  0.7561462E-02  0.1280023E+00
          2   -1    0    0  501    0  0.00000000000E+00  0.00000000000E+00  0.20164700438E+03  0.20164700438E+03  0.00000000000E+00 0.  1.
         -2   -1    0    0    0  501 -0.00000000000E+00 -0.00000000000E+00 -0.76670684577E+02  0.76670684577E+02  0.00000000000E+00 0. -1.
         23    2    1    2    0    0  0.94070332698E+01  0.43521252845E+02  0.24888511074E+02  0.13508845086E+03  0.12508740884E+03 0.  0.
          5    1    3    3  502    0 -0.55550272153E+02  0.36718467768E+02  0.60972181407E+01  0.66997963256E+02  0.41800000000E+01 0.  1.
         -5    1    3    3    0  502  0.64957305422E+02  0.68027850775E+01  0.18791292934E+02  0.68090487608E+02  0.41800000000E+01 0.  1.
        -11    1    1    2    0    0 -0.23712981649E+02 -0.15643899343E+01  0.95788596458E+02  0.98692492247E+02  0.00000000000E+00 0.  1.
         11    1    1    2    0    0  0.14305948379E+02 -0.41956862911E+02  0.42992122705E+01  0.44536745846E+02  0.00000000000E+00 0. -1.
</event>
<event>
 7    1  0.8653652E-006  0.1217503E+03  0.7561462E-02  0.1240237E+00
          1   -1    0    0  501    0  0.00000000000E+00  0.00000000000E+00  0.21414347490E+03  0.21414347490E+03  0.00000000000E+00 0. -1.
         -1   -1    0    0    0  501 -0.00000000000E+00 -0.00000000000E+00 -0.10600160248E+03  0.10600160248E+03  0.00000000000E+00 0.  1.
         23    2    1    2    0    0 -0.18084641739E+01 -0.89700486880E+02  0.26749941835E+01  0.15396177337E+03  0.12509046397E+03 0.  0.
          5    1    3    3  502    0  0.22648085532E+02 -0.11489567716E+03  0.10805153739E+02  0.11767827394E+03  0.41800000000E+01 0. -1.
         -5    1    3    3    0  502 -0.24456549706E+02  0.25195190284E+02 -0.81301595558E+01  0.36283499436E+02  0.41800000000E+01 0. -1.
        -11    1    1    2    0    0  0.83822389960E+01  0.44519112693E+02 -0.60295272523E+01  0.45700859122E+02  0.00000000000E+00 0.  1.
         11    1    1    2    0    0 -0.65737748221E+01  0.45181374186E+02  0.11149640549E+03  0.12048244489E+03  0.00000000000E+00 0. -1.
</event>
<event>
 7    1  0.8653652E-006  0.1760552E+03  0.7561462E-02  0.1171676E+00
         -1   -1    0    0    0  501 -0.00000000000E+00  0.00000000000E+00  0.12063380940E+03  0.12063380940E+03  0.00000000000E+00 0.  1.
          1   -1    0    0  501    0  0.00000000000E+00 -0.00000000000E+00 -0.37030543507E+03  0.37030543507E+03  0.00000000000E+00 0. -1.
         23    2    1    2    0    0  0.16435478325E+03 -0.31349431264E+02 -0.49498796599E+02  0.21465465746E+03  0.12502483548E+03 0.  0.
          5    1    3    3  502    0  0.13752874250E+03 -0.37647618514E+02 -0.87636065984E+02  0.16741878824E+03  0.41800000000E+01 0. -1.
         -5    1    3    3    0  502  0.26826040749E+02  0.62981872497E+01  0.38137269385E+02  0.47235869220E+02  0.41800000000E+01 0. -1.
        -11    1    1    2    0    0 -0.84792929543E+02  0.51901606522E+02 -0.15016072145E+03  0.18008847805E+03  0.00000000000E+00 0. -1.
         11    1    1    2    0    0 -0.79561853705E+02 -0.20552175258E+02 -0.50012107616E+02  0.96196108970E+02  0.00000000000E+00 0.  1.
</event>
<event>
 7    1  0.8653652E-006  0.1093283E+03  0.7561462E-02  0.1261819E+00
         -2   -1    0    0    0  501 -0.00000000000E+00  0.00000000000E+00  0.24967612679E+03  0.24967612679E+03  0.00000000000E+00 0.  1.
          2   -1    0    0  501    0  0.00000000000E+00 -0.00000000000E+00 -0.49183807314E+02  0.49183807314E+02  0.00000000000E+00 0. -1.
         23    2    1    2    0    0  0.16392550033E+01 -0.16467185189E+02  0.10062130579E+03  0.16138846928E+03  0.12509090891E+03 0.  0.
          5    1    3    3  502    0  0.60291378408E+02  0.98758879757E+01  0.41789977191E+02  0.74138101319E+02  0.41800000000E+01 0.  1.
         -5    1    3    3    0  502 -0.58652123404E+02 -0.26343073165E+02  0.58831328602E+02  0.87250367957E+02  0.41800000000E+01 0.  1.
        -11    1    1    2    0    0  0.25049698234E+02 -0.30193921072E+02  0.30399437435E+02  0.49631502573E+02  0.00000000000E+00 0.  1.
         11    1    1    2    0    0 -0.26688953238E+02  0.46661106261E+02  0.69471576244E+02  0.87839962250E+02  0.00000000000E+00 0. -1.
</event>
<event>
 7    1  0.8653652E-006  0.1100601E+03  0.7561462E-02  0.1260459E+00
          2   -1    0    0  501    0  0.00000000000E+00  0.00000000000E+00  0.37313044359E+03  0.37313044359E+03  0.00000000000E+00 0. -1.
         -2   -1    0    0    0  501 -0.00000000000E+00 -0.00000000000E+00 -0.33936794907E+02  0.33936794907E+02  0.00000000000E+00 0.  1.
         23    2    1    2    0    0  0.25331300151E+02 -0.10428283263E+02  0.18191389779E+03  0.22246484825E+03  0.12509004212E+03 0.  0.
          5    1    3    3  502    0  0.25381365836E+02  0.55751366512E+02  0.79342815006E+02  0.10032538708E+03  0.41800000000E+01 0.  1.
         -5    1    3    3    0  502 -0.50065684843E-01 -0.66179649774E+02  0.10257108279E+03  0.12213946117E+03  0.41800000000E+01 0.  1.
        -11    1    1    2    0    0 -0.58561676402E+02  0.55792356807E+01  0.72177906501E+02  0.93114166487E+02  0.00000000000E+00 0.  1.
         11    1    1    2    0    0  0.33230376250E+02  0.48490475820E+01  0.85101844396E+02  0.91488223765E+02  0.00000000000E+00 0. -1.
</event>
<event>
 7    1  0.8653652E-006  0.9291214E+02  0.7561462E-02  0.1295949E+00
          2   -1    0    0  501    0  0.00000000000E+00  0.00000000000E+00  0.15870319233E+03  0.15870319233E+03  0.00000000000E+00 0. -1.
         -2   -1    0    0    0  501 -0.00000000000E+00 -0.00000000000E+00 -0.90561615101E+02  0.90561615101E+02  0.00000000000E+00 0.  1.
         23    2    1    2    0    0 -0.66577633323E+01  0.33296638788E+02 -0.43127497447E+01  0.12968920154E+03  0.12509075593E+03 0.  0.
          5    1    3    3  502    0 -0.38487853750E+02  0.60006116500E+02  0.28186156272E+02  0.76772265234E+02  0.41800000000E+01 0. -1.
         -5    1    3    3    0  502  0.31830090418E+02 -0.26709477712E+02 -0.32498906017E+02  0.52916936306E+02  0.41800000000E+01 0. -1.
        -11    1    1    2    0    0  0.33984488997E+02 -0.29616109682E+02  0.33843962989E+01  0.45205238451E+02  0.00000000000E+00 0.  1.
         11    1    1    2    0    0 -0.27326725665E+02 -0.36805291058E+01  0.69069930679E+02  0.74370367446E+02  0.00000000000E+00 0. -1.
</event>
<event>
 7    1  0.8653652E-006  0.1379391E+03  0.7561462E-02  0.1216129E+00
         -3   -1    0    0    0  501 -0.00000000000E+00  0.00000000000E+00  0.23476001311E+03  0.23476001311E+03  0.00000000000E+00 0.  1.
          3   -1    0    0  501    0  0.00000000000E+00 -0.00000000000E+00 -0.28081569980E+03  0.28081569980E+03  0.00000000000E+00 0. -1.
         23    2    1    2    0    0  0.12175361850E+03  0.47317151535E+02  0.16878014073E+03  0.24794719051E+03  0.12620703993E+03 0.  0.
          5    1    3    3  502    0  0.75095641582E+02  0.19092119968E+02  0.78683826673E+01  0.77995181103E+02  0.41800000000E+01 0.  1.
         -5    1    3    3    0  502  0.46657976917E+02  0.28225031567E+02  0.16091175806E+03  0.16995200940E+03  0.41800000000E+01 0.  1.
        -11    1    1    2    0    0 -0.10163681190E+03 -0.61665058689E+02 -0.11728958649E+03  0.16700140148E+03  0.00000000000E+00 0.  1.
         11    1    1    2    0    0 -0.20116806597E+02  0.14347907153E+02 -0.97546240930E+02  0.10062712093E+03  0.00000000000E+00 0. -1.
</event>
<event>
 7    1  0.8653652E-006  0.1174304E+03  0.7561462E-02  0.1247397E+00
         -1   -1    0    0    0  501 -0.00000000000E+00  0.00000000000E+00  0.52428824869E+02  0.52428824869E+02  0.00000000000E+00 0.  1.
          1   -1    0    0  501    0  0.00000000000E+00 -0.00000000000E+00 -0.38445729345E+03  0.38445729345E+03  0.00000000000E+00 0. -1.
         23    2    1    2    0    0  0.49853551608E+02  0.77123130505E+02 -0.18642286108E+03  0.24255851478E+03  0.12509115113E+03 0.  0.
          5    1    3    3  502    0  0.23737179826E+02 -0.11970577355E+02 -0.13230315652E+03  0.13501239222E+03  0.41800000000E+01 0.  1.
         -5    1    3    3    0  502  0.26116371782E+02  0.89093707860E+02 -0.54119704560E+02  0.10754612256E+03  0.41800000000E+01 0.  1.
        -11    1    1    2    0    0  0.16865405459E+02 -0.25861460028E+02 -0.61879593402E+01  0.31488852898E+02  0.00000000000E+00 0.  1.
         11    1    1    2    0    0 -0.66718957066E+02 -0.51261670477E+02 -0.13941764816E+03  0.16283875065E+03  0.00000000000E+00 0. -1.
</event>
<event>
 7    1  0.8653652E-006  0.1413852E+03  0.7561462E-02  0.1211477E+00
          1   -1    0    0  501    0  0.00000000000E+00  0.00000000000E+00  0.23822593112E+03  0.23822593112E+03  0.00000000000E+00 0. -1.
         -1   -1    0    0    0  501 -0.00000000000E+00 -0.00000000000E+00 -0.11111582910E+03  0.11111582910E+03  0.00000000000E+00 0.  1.
         23    2    1    2    0    0  0.21493404945E+02 -0.11474605064E+03  0.31650788972E+02  0.17400472163E+03  0.12508896079E+03 0.  0.
          5    1    3    3  502    0  0.87461399042E+01  0.21399245727E+02  0.28805403815E+02  0.37170504030E+02  0.41800000000E+01 0.  1.
         -5    1    3    3    0  502  0.12747265040E+02 -0.13614529637E+03  0.28453851573E+01  0.13683421760E+03  0.41800000000E+01 0.  1.
        -11    1    1    2    0    0 -0.31841083367E+02  0.94773993106E+02  0.27413730502E+02  0.10367003897E+03  0.00000000000E+00 0.  1.
         11    1    1    2    0    0  0.10347678422E+02  0.19972057534E+02  0.68045582550E+02  0.71666999626E+02  0.00000000000E+00 0. -1.
</event>
<event>
 6    1  0.8653652E-006  0.2285120E+03  0.7561462E-02  0.1127691E+00
         -2   -1    0    0    0  501 -0.00000000000E+00  0.00000000000E+00  0.11543009234E+03  0.11543009234E+03  0.00000000000E+00 0.  1.
          2   -1    0    0  501    0  0.00000000000E+00 -0.00000000000E+00 -0.50604998259E+03  0.50604998259E+03  0.00000000000E+00 0. -1.
          5    1    1    2  502    0 -0.11624387652E+03  0.17764963972E+03 -0.22237902150E+03  0.30747672257E+03  0.41800000000E+01 0. -1.
         -5    1    1    2    0  502  0.67295894612E+02 -0.90634557399E+01  0.14017629593E+01  0.68046462076E+02  0.41800000000E+01 0.  1.
        -11    1    1    2    0    0  0.14885968175E+02 -0.25161381314E+02 -0.17309378445E+02  0.33975016414E+02  0.00000000000E+00 0. -1.
         11    1    1    2    0    0  0.34062013728E+02 -0.14342480266E+03 -0.15233325326E+03  0.21198187387E+03  0.00000000000E+00 0.  1.
</event>
<event>
 7    1  0.8653652E-006  0.9416476E+02  0.7561462E-02  0.1293068E+00
          4   -1    0    0  501    0  0.00000000000E+00  0.00000000000E+00  0.68663841048E+02  0.68663841048E+02  0.00000000000E+00 0.  1.
         -4   -1    0    0    0  501 -0.00000000000E+00 -0.00000000000E+00 -0.20690122970E+03  0.20690122970E+03  0.00000000000E+00 0. -1.
         23    2    1    2    0    0 -0.14954285473E+02  0.43302319982E+02 -0.86292282210E+02  0.15872123757E+03  0.12508937492E+03 0.  0.
          5    1    3    3  502    0 -0.40214621761E+01 -0.35311806540E+02 -0.68484157281E+02  0.77269968537E+02  0.41800000000E+01 0.  1.
         -5    1    3    3    0  502 -0.10932823297E+02  0.78614126522E+02 -0.17808124929E+02  0.81451269036E+02  0.41800000000E+01 0.  1.
        -11    1    1    2    0    0  0.88440149025E+01  0.13387850563E+02  0.19617420635E+02  0.25343526484E+02  0.00000000000E+00 0.  1.
         11    1    1    2    0    0  0.61102705708E+01 -0.56690170545E+02 -0.71562527072E+02  0.91500306687E+02  0.00000000000E+00 0. -1.
</event>
<event>
 7    1  0.8653652E-006  0.1580179E+03  0.7561462E-02  0.1190953E+00
          2   -1    0    0  501    0  0.00000000000E+00  0.00000000000E+00  0.26598412189E+03  0.26598412189E+03  0.00000000000E+00 0. -1.
         -2   -1    0    0    0  501 -0.00000000000E+00 -0.00000000000E+00 -0.12574383532E+03  0.12574383532E+03  0.00000000000E+00 0.  1.
         23    2    1    2    0    0 -0.12720120194E+03 -0.33704526356E+02  0.33853232840E+01  0.18158989661E+03  0.12508912529E+03 0.  0.
          5    1    3    3  502    0 -0.12769176079E+02  0.42094931442E+02 -0.96263505236E+00  0.44197671625E+02  0.41800000000E+01 0.  1.
         -5    1    3    3    0  502 -0.11443202586E+03 -0.75799457797E+02  0.43479583364E+01  0.13739222499E+03  0.41800000000E+01 0.  1.
        -11    1    1    2    0    0  0.84718768428E+02  0.85377475789E+01  0.26396637998E+02  0.89145641258E+02  0.00000000000E+00 0.  1.
         11    1    1    2    0    0  0.42482433511E+02  0.25166778777E+02  0.11045832529E+03  0.12099241933E+03  0.00000000000E+00 0. -1.
</event>
<event>
 7    1  0.8653652E-006  0.1020994E+03  0.7561462E-02  0.1275942E+00
          2   -1    0    0  501    0  0.00000000000E+00  0.00000000000E+00  0.10545460615E+03  0.10545460615E+03  0.00000000000E+00 0. -1.
         -2   -1    0    0    0  501 -0.00000000000E+00 -0.00000000000E+00 -0.16496351473E+03  0.16496351473E+03  0.00000000000E+00 0.  1.
         23    2    1    2    0    0 -0.31209249869E+01 -0.67033842950E+02 -0.66671991285E+02  0.15682448559E+03  0.12508192749E+03 0.  0.
          5    1    3    3  502    0  0.42771366487E+02  0.58916920449E+01  0.63035320722E+01  0.43832735974E+02  0.41800000000E+01 0. -1.
         -5    1    3    3    0  502 -0.45892291474E+02 -0.72925534995E+02 -0.72975523358E+02  0.11299174961E+03  0.41800000000E+01 0. -1.
        -11    1    1    2    0    0  0.13569559093E+02  0.10752392650E+02 -0.37292580891E+02  0.41115489432E+02  0.00000000000E+00 0.  1.
         11    1    1    2    0    0 -0.10448634106E+02  0.56281450300E+02  0.44455663596E+02  0.72478145867E+02  0.00000000000E+00 0. -1.
</event>
<event>
 7    1  0.8653652E-006  0.9244513E+02  0.7561462E-02  0.1297036E+00
         -3   -1    0    0    0  501 -0.00000000000E+00  0.00000000000E+00  0.35767631016E+03  0.35767631016E+03  0.00000000000E+00 0.  1.
          3   -1    0    0  501    0  0.00000000000E+00 -0.00000000000E+00 -0.34303244832E+02  0.34303244832E+02  0.00000000000E+00 0. -1.
         23    2    1    2    0    0 -0.10803117544E+02 -0.14391023867E+02  0.20707367510E+03  0.24259748077E+03  0.12510084667E+03 0.  0.
          5    1    3    3  502    0 -0.22282496391E+02 -0.56616629794E+02  0.18209998911E+03  0.19204122174E+03  0.41800000000E+01 0.  1.
         -5    1    3    3    0  502  0.11479378847E+02  0.42225605927E+02  0.24973685994E+02  0.50556259026E+02  0.41800000000E+01 0.  1.
        -11    1    1    2    0    0  0.40496411428E+02 -0.97773557603E+01  0.98923327523E+02  0.10733769493E+03  0.00000000000E+00 0.  1.
         11    1    1    2    0    0 -0.29693293885E+02  0.24168379628E+02  0.17376062708E+02  0.42044379301E+02  0.00000000000E+00 0. -1.
</event>
<event>
 7    1  0.8653652E-006  0.7475931E+02  0.7561462E-02  0.1344618E+00
          2   -1    0    0  501    0  0.00000000000E+00  0.00000000000E+00  0.78547432256E+02  0.78547432256E+02  0.00000000000E+00 0. -1.
         -2   -1    0    0    0  501 -0.00000000000E+00 -0.00000000000E+00 -0.19432898209E+03  0.19432898209E+03  0.00000000000E+00 0.  1.
         23    2    1    2    0    0 -0.38823836794E+01 -0.59585313443E+01 -0.12981167175E+03  0.18041081939E+03  0.12508563718E+03 0.  0.
          5    1    3    3  502    0 -0.28487347599E+02 -0.21783661251E+02  0.10037242871E+02  0.37473664289E+02  0.41800000000E+01 0. -1.
         -5    1    3    3    0  502  0.24604963920E+02  0.15825129907E+02 -0.13984891462E+03  0.14293715510E+03  0.41800000000E+01 0. -1.
        -11    1    1    2    0    0  0.42496098399E+02 -0.71312548297E+01 -0.11195477280E+02  0.44520915153E+02  0.00000000000E+00 0. -1.
         11    1    1    2    0    0 -0.38613714719E+02  0.13089786174E+02  0.25225599200E+02  0.47944679804E+02  0.00000000000E+00 0.  1.
</event>
<event>
 7    1  0.8653652E-006  0.1102078E+03  0.7561462E-02  0.1260186E+00
          4   -1    0    0  501    0  0.00000000000E+00  0.00000000000E+00  0.12567654905E+03  0.12567654905E+03  0.00000000000E+00 0.  1.
         -4   -1    0    0    0  501 -0.00000000000E+00 -0.00000000000E+00 -0.12124094831E+03  0.12124094831E+03  0.00000000000E+00 0. -1.
         23    2    1    2    0    0  0.38655241656E+02  0.47264374312E+02 -0.60310321408E+01  0.13933014439E+03  0.12509343308E+03 0.  0.
          5    1    3    3  502    0 -0.57983959515E+01 -0.39764360827E+02  0.57511189932E+01  0.40808988683E+02  0.41800000000E+01 0.  1.
         -5    1    3    3    0  502  0.44453637608E+02  0.87028735139E+02 -0.11782151134E+02  0.98521155707E+02  0.41800000000E+01 0.  1.
        -11    1    1    2    0    0 -0.51865481867E+02 -0.28288376060E+02  0.39054002053E+02  0.70820021927E+02  0.00000000000E+00 0.  1.
         11    1    1    2    0    0  0.13210240211E+02 -0.18975998251E+02 -0.28587369173E+02  0.36767331046E+02  0.00000000000E+00 0. -1.
</event>
<event>
 7    1  0.8653652E-006  0.8654797E+02  0.7561462E-02  0.1311433E+00
          2   -1    0    0  501    0  0.00000000000E+00  0.00000000000E+00  0.51809002390E+03  0.51809002390E+03  0.00000000000E+00 0.  1.
         -2   -1    0    0    0  501 -0.00000000000E+00 -0.00000000000E+00 -0.35435488020E+02  0.35435488020E+02  0.00000000000E+00 0. -1.
         23    2    1    2    0    0  0.38684816411E+02 -0.41068722969E+02  0.14728376577E+03  0.20130598803E+03  0.12509371739E+03 0.  0.
          5    1    3    3  502    0  0.42403316210E+01 -0.57941468991E+02  0.10500599160E+02  0.59185549113E+02  0.41800000000E+01 0. -1.
         -5    1    3    3    0  502  0.34444484790E+02  0.16872746022E+02  0.13678316661E+03  0.14212043892E+03  0.41800000000E+01 0. -1.
        -11    1    1    2    0    0 -0.49120800706E+02  0.20548366134E+02  0.32031854414E+03  0.32471380958E+03  0.00000000000E+00 0.  1.
         11    1    1    2    0    0  0.10435984294E+02  0.20520356835E+02  0.15052225969E+02  0.27505714306E+02  0.00000000000E+00 0. -1.
</event>
<event>
 6    1  0.8653652E-006  0.4087676E+03  0.7561462E-02  0.1040785E+00
         -2   -1    0    0    0  501 -0.00000000000E+00  0.00000000000E+00  0.14467074017E+04  0.14467074017E+04  0.00000000000E+00 0.  1.
          2   -1    0    0  501    0  0.00000000000E+00 -0.00000000000E+00 -0.12511777725E+03  0.12511777725E+03  0.00000000000E+00 0. -1.
          5    1    1    2  502    0 -0.13682668550E+03 -0.36886369223E+03  0.53591449739E+03  0.66483365305E+03  0.41800000000E+01 0. -1.
         -5    1    1    2    0  502  0.97622461352E+02  0.10809204771E+03  0.43681623746E+03  0.46047794024E+03  0.41800000000E+01 0.  1.
        -11    1    1    2    0    0 -0.20147962664E+02  0.16124548899E+03  0.21407771500E+03  0.26876628542E+03  0.00000000000E+00 0. -1.
         11    1    1    2    0    0  0.59352186815E+02  0.99526155529E+02  0.13478117457E+03  0.17774730021E+03  0.00000000000E+00 0.  1.
</event>
<event>
 7    1  0.8653652E-006  0.1719274E+03  0.7561462E-02  0.1175853E+00
         -2   -1    0    0    0  501 -0.00000000000E+00  0.00000000000E+00  0.30235910137E+02  0.30235910137E+02  0.00000000000E+00 0.  1.
          2   -1    0    0  501    0  0.00000000000E+00 -0.00000000000E+00 -0.10519506946E+04  0.10519506946E+04  0.00000000000E+00 0. -1.
         23    2    1    2    0    0 -0.54807037178E+02 -0.13288504266E+03 -0.57353582108E+03  0.60436713810E+03  0.12511616067E+03 0.  0.
          5    1    3    3  502    0 -0.15415332311E+02 -0.14647861400E+03 -0.41454965269E+03  0.43995738859E+03  0.41800000000E+01 0.  1.
         -5    1    3    3    0  502 -0.39391704867E+02  0.13593571334E+02 -0.15898616839E+03  0.16440974950E+03  0.41800000000E+01 0.  1.
        -11    1    1    2    0    0  0.39624874441E+02  0.27686306172E+02 -0.23128113949E+03  0.23627870769E+03  0.00000000000E+00 0. -1.
         11    1    1    2    0    0  0.15182162738E+02  0.10519873649E+03 -0.21689782389E+03  0.24154075894E+03  0.00000000000E+00 0.  1.
</event>
<event>
 7    1  0.8653652E-006  0.1746920E+03  0.7561462E-02  0.1173041E+00
          2   -1    0    0  501    0  0.00000000000E+00  0.00000000000E+00  0.11478591096E+04  0.11478591096E+04  0.00000000000E+00 0.  1.
         -2   -1    0    0    0  501 -0.00000000000E+00 -0.00000000000E+00 -0.38855207499E+02  0.38855207499E+02  0.00000000000E+00 0. -1.
         23    2    1    2    0    0 -0.12153749539E+03  0.10183282736E+03  0.33490972814E+03  0.39109901464E+03  0.12511045414E+03 0.  0.
          5    1    3    3  502    0 -0.10416612626E+03  0.60279289214E+02  0.32241926582E+03  0.34417412736E+03  0.41800000000E+01 0. -1.
         -5    1    3    3    0  502 -0.17371369131E+02  0.41553538141E+02  0.12490462321E+02  0.46924887283E+02  0.41800000000E+01 0. -1.
        -11    1    1    2    0    0  0.75813713499E+02 -0.11354522609E+03  0.56554274942E+03  0.58178934241E+03  0.00000000000E+00 0. -1.
         11    1    1    2    0    0  0.45723781890E+02  0.11712398735E+02  0.20855142458E+03  0.21382596009E+03  0.00000000000E+00 0.  1.
</event>
<event>
 7    1  0.8653652E-006  0.1245693E+03  0.7561462E-02  0.1235744E+00
         -1   -1    0    0    0  501 -0.00000000000E+00  0.00000000000E+00  0.77754120739E+03  0.77754120739E+03  0.00000000000E+00 0.  1.
          1   -1    0    0  501    0  0.00000000000E+00 -0.00000000000E+00 -0.30314853920E+02  0.30314853920E+02  0.00000000000E+00 0. -1.
         23    2    1    2    0    0 -0.73859013043E+02 -0.19394906468E+02  0.60097949700E+03  0.61859087484E+03  0.12508796268E+03 0.  0.
          5    1    3    3  502    0 -0.10352030847E+03 -0.38019698213E+02  0.42373243923E+03  0.43786824979E+03  0.41800000000E+01 0.  1.
         -5    1    3    3    0  502  0.29661295428E+02  0.18624791745E+02  0.17724705777E+03  0.18072262504E+03  0.41800000000E+01 0.  1.
        -11    1    1    2    0    0  0.22721881487E+02  0.41877405586E+02  0.11674363699E+03  0.12609154521E+03  0.00000000000E+00 0.  1.
         11    1    1    2    0    0  0.51137131557E+02 -0.22482499118E+02  0.29503219473E+02  0.63173641257E+02  0.00000000000E+00 0. -1.
</event>
<event>
 7    1  0.8653652E-006  0.9309544E+02  0.7561462E-02  0.1295524E+00
         -3   -1    0    0    0  501 -0.00000000000E+00  0.00000000000E+00  0.86570737733E+02  0.86570737733E+02  0.00000000000E+00 0.  1.
          3   -1    0    0  501    0  0.00000000000E+00 -0.00000000000E+00 -0.17579164715E+03  0.17579164715E+03  0.00000000000E+00 0. -1.
         23    2    1    2    0    0  0.26112197134E+01  0.51794664479E+02 -0.22990411345E+02  0.13735340991E+03  0.12509154433E+03 0.  0.
          5    1    3    3  502    0 -0.21457384188E+02 -0.16094465134E+01 -0.62727007426E+02  0.66446666695E+02  0.41800000000E+01 0.  1.
         -5    1    3    3    0  502  0.24068603901E+02  0.53404110992E+02  0.39736596081E+02  0.70906743210E+02  0.41800000000E+01 0.  1.
        -11    1    1    2    0    0 -0.21707315940E+02  0.21050671006E+02 -0.24466515395E+02  0.38896641124E+02  0.00000000000E+00 0. -1.
         11    1    1    2    0    0  0.19096096227E+02 -0.72845335485E+02 -0.41763982680E+02  0.86112333857E+02  0.00000000000E+00 0.  1.
</event>
<event>
 7    1  0.8653652E-006  0.8775346E+02  0.7561462E-02  0.1308385E+00
          2   -1    0    0  501    0  0.00000000000E+00  0.00000000000E+00  0.63218295548E+02  0.63218295548E+02  0.00000000000E+00 0. -1.
         -2   -1    0    0    0  501 -0.00000000000E+00 -0.00000000000E+00 -0.26587469934E+03  0.26587469934E+03  0.00000000000E+00 0.  1.
         23    2    1    2    0    0  0.35787402845E+02 -0.35593757728E+02 -0.17729497829E+03  0.22277450942E+03  0.12508924386E+03 0.  0.
          5    1    3    3  502    0  0.45404622253E+02  0.12943542036E+02 -0.10235013953E+02  0.48490647686E+02  0.41800000000E+01 0.  1.
         -5    1    3    3    0  502 -0.96172194086E+01 -0.48537299764E+02 -0.16705996434E+03  0.17428386173E+03  0.41800000000E+01 0.  1.
        -11    1    1    2    0    0  0.96649310824E+01  0.31344859846E+02  0.22809893882E+02  0.39952501681E+02  0.00000000000E+00 0. -1.
         11    1    1    2    0    0 -0.45452333927E+02  0.42488978817E+01 -0.48171319384E+02  0.66365983785E+02  0.00000000000E+00 0.  1.
</event>
<event>
 7    1  0.8653652E-006  0.9142981E+02  0.7561462E-02  0.1299426E+00
          2   -1    0    0  501    0  0.00000000000E+00  0.00000000000E+00  0.68232162453E+02  0.68232162453E+02  0.00000000000E+00 0. -1.
         -2   -1    0    0    0  501 -0.00000000000E+00 -0.00000000000E+00 -0.27425489481E+03  0.27425489481E+03  0.00000000000E+00 0.  1.
         23    2    1    2    0    0  0.51198089957E+02 -0.60896953618E+02 -0.14152449265E+03  0.20495507063E+03  0.12509082932E+03 0.  0.
          5    1    3    3  502    0  0.11957340226E+02 -0.61846703660E+02 -0.55584263954E+01  0.63374768188E+02  0.41800000000E+01 0.  1.
         -5    1    3    3    0  502  0.39240749731E+02  0.94975004239E+00 -0.13596606626E+03  0.14158030244E+03  0.41800000000E+01 0.  1.
        -11    1    1    2    0    0 -0.26470734809E+02  0.23353758180E+02  0.20900525564E+02  0.41023527290E+02  0.00000000000E+00 0. -1.
         11    1    1    2    0    0 -0.24727355148E+02  0.37543195437E+02 -0.85398765266E+02  0.96508459345E+02  0.00000000000E+00 0.  1.
</event>
<event>
 7    1  0.8653652E-006  0.1585953E+03  0.7561462E-02  0.1190292E+00
         -2   -1    0    0    0  501 -0.00000000000E+00  0.00000000000E+00  0.60556145184E+02  0.60556145184E+02  0.00000000000E+00 0. -1.
          2   -1    0    0  501    0  0.00000000000E+00 -0.00000000000E+00 -0.45229705274E+03  0.45229705274E+03  0.00000000000E+00 0.  1.
         23    2    1    2    0    0  0.13207020247E+02  0.12359495713E+03 -0.23574058246E+03  0.29439545591E+03  0.12507966833E+03 0.  0.
          5    1    3    3  502    0  0.46992002563E+02  0.12158621841E+03 -0.22231554518E+03  0.25774625282E+03  0.41800000000E+01 0. -1.
         -5    1    3    3    0  502 -0.33784982316E+02  0.20087387260E+01 -0.13425037274E+02  0.36649203090E+02  0.41800000000E+01 0. -1.
        -11    1    1    2    0    0 -0.41008738397E+02 -0.20412401201E+02 -0.52748091758E+02  0.69862321260E+02  0.00000000000E+00 0.  1.
         11    1    1    2    0    0  0.27801718149E+02 -0.10318255593E+03 -0.10325223335E+03  0.14859542076E+03  0.00000000000E+00 0. -1.
</event>
<event>
 7    1  0.8653652E-006  0.1363697E+03  0.7561462E-02  0.1218299E+00
         -1   -1    0    0    0  501 -0.00000000000E+00  0.00000000000E+00  0.16962804800E+03  0.16962804800E+03  0.00000000000E+00 0.  1.
          1   -1    0    0  501    0  0.00000000000E+00 -0.00000000000E+00 -0.19090282744E+03  0.19090282744E+03  0.00000000000E+00 0. -1.
         23    2    1    2    0    0  0.19535039806E+02 -0.10504192444E+03  0.83806813718E+02  0.18462677816E+03  0.12509213212E+03 0.  0.
          5    1    3    3  502    0  0.40154185267E+02 -0.10913016715E+03  0.10334469446E+03  0.15562567349E+03  0.41800000000E+01 0.  1.
         -5    1    3    3    0  502 -0.20619145461E+02  0.40882427158E+01 -0.19537880742E+02  0.29001104667E+02  0.41800000000E+01 0.  1.
        -11    1    1    2    0    0 -0.16135709228E+02  0.11925174839E+03 -0.73248899883E+02  0.14087846514E+03  0.00000000000E+00 0.  1.
         11    1    1    2    0    0 -0.33993305778E+01 -0.14209823955E+02 -0.31832693275E+02  0.35025632133E+02  0.00000000000E+00 0. -1.
</event>
<event>
 7    1  0.8653652E-006  0.1671388E+03  0.7561462E-02  0.1180865E+00
         -2   -1    0    0    0  501 -0.00000000000E+00  0.00000000000E+00  0.70821192002E+02  0.70821192002E+02  0.00000000000E+00 0.  1.
          2   -1    0    0  501    0  0.00000000000E+00 -0.00000000000E+00 -0.47360430568E+03  0.47360430568E+03  0.00000000000E+00 0. -1.
         23    2    1    2    0    0  0.14071521412E+03 -0.28877121966E+02 -0.16115571294E+03  0.24950674392E+03  0.12509113393E+03 0.  0.
          5    1    3    3  502    0  0.15599004649E+03 -0.18877589015E+02 -0.16752877818E+03  0.22972292417E+03  0.41800000000E+01 0. -1.
         -5    1    3    3    0  502 -0.15274832368E+02 -0.99995329509E+01  0.63730652404E+01  0.19783819744E+02  0.41800000000E+01 0. -1.
        -11    1    1    2    0    0 -0.45164047742E+02 -0.21862415732E+02 -0.33441097149E+02  0.60299779507E+02  0.00000000000E+00 0. -1.
         11    1    1    2    0    0 -0.95551166379E+02  0.50739537698E+02 -0.20818630359E+03  0.23461897426E+03  0.00000000000E+00 0.  1.
</event>
<event>
 7    1  0.8653652E-006  0.1077578E+03  0.7561462E-02  0.1264779E+00
         -1   -1    0    0    0  501 -0.00000000000E+00  0.00000000000E+00  0.13550590809E+03  0.13550590809E+03  0.00000000000E+00 0.  1.
          1   -1    0    0  501    0  0.00000000000E+00 -0.00000000000E+00 -0.10524504743E+03  0.10524504743E+03  0.00000000000E+00 0. -1.
         23    2    1    2    0    0  0.16978716197E+02 -0.43068544766E+02  0.32637118736E+02  0.13704255345E+03  0.12478903631E+03 0.  0.
          5    1    3    3  502    0  0.38405113362E+02  0.32395058818E+02  0.29519101389E+02  0.58422960512E+02  0.41800000000E+01 0.  1.
         -5    1    3    3    0  502 -0.21426397164E+02 -0.75463603584E+02  0.31180173465E+01  0.78619592936E+02  0.41800000000E+01 0.  1.
        -11    1    1    2    0    0  0.20833490547E+01  0.60604192076E+02 -0.28427374741E+02  0.66972562106E+02  0.00000000000E+00 0.  1.
         11    1    1    2    0    0 -0.19062065252E+02 -0.17535647310E+02  0.26051116673E+02  0.36735839968E+02  0.00000000000E+00 0. -1.
</event>
<event>
 7    1  0.8653652E-006  0.1022179E+03  0.7561462E-02  0.1275700E+00
          1   -1    0    0  501    0  0.00000000000E+00  0.00000000000E+00  0.72187758197E+02  0.72187758197E+02  0.00000000000E+00 0. -1.
         -1   -1    0    0    0  501 -0.00000000000E+00 -0.00000000000E+00 -0.19088055721E+03  0.19088055721E+03  0.00000000000E+00 0.  1.
         23    2    1    2    0    0  0.56538562134E+01 -0.44801369943E+02 -0.80836663289E+02  0.15563045134E+03  0.12508853830E+03 0.  0.
          5    1    3    3  502    0 -0.29582939728E+02  0.32537480790E+02 -0.45733570168E+02  0.63583565640E+02  0.41800000000E+01 0.  1.
         -5    1    3    3    0  502  0.35236795942E+02 -0.77338850733E+02 -0.35103093121E+02  0.92046885703E+02  0.41800000000E+01 0.  1.
        -11    1    1    2    0    0  0.18313637439E+02  0.47637962487E+02 -0.57089597741E+02  0.76576673709E+02  0.00000000000E+00 0.  1.
         11    1    1    2    0    0 -0.23967493652E+02 -0.28365925436E+01  0.19233462014E+02  0.30861190358E+02  0.00000000000E+00 0. -1.
</event>
<event>
 7    1  0.8653652E-006  0.1755453E+03  0.7561462E-02  0.1172185E+00
          3   -1    0    0  501    0  0.00000000000E+00  0.00000000000E+00  0.16362218172E+03  0.16362218172E+03  0.00000000000E+00 0. -1.
         -3   -1    0    0    0  501 -0.00000000000E+00 -0.00000000000E+00 -0.25117701649E+03  0.25117701649E+03  0.00000000000E+00 0.  1.
         23    2    1    2    0    0 -0.26945467149E+02 -0.16863117663E+03 -0.47482272032E+02  0.21694404129E+03  0.12509044312E+03 0.  0.
          5    1    3    3  502    0 -0.30471858640E+02 -0.11909811565E+03  0.28324092874E+02  0.12622449032E+03  0.41800000000E+01 0.  1.
         -5    1    3    3    0  502  0.35263914904E+01 -0.49533060984E+02 -0.75806364906E+02  0.90719550967E+02  0.41800000000E+01 0.  1.
        -11    1    1    2    0    0  0.43150125213E+01  0.14661349358E+03 -0.62178358110E+02  0.15931190806E+03  0.00000000000E+00 0.  1.
         11    1    1    2    0    0  0.22630454628E+02  0.22017683055E+02  0.22105795377E+02  0.38543248864E+02  0.00000000000E+00 0. -1.
</event>
<event>
 7    1  0.8653652E-006  0.1294817E+03  0.7561462E-02  0.1228227E+00
          4   -1    0    0  501    0  0.00000000000E+00  0.00000000000E+00  0.16454200929E+03  0.16454200929E+03  0.00000000000E+00 0. -1.
         -4   -1    0    0    0  501 -0.00000000000E+00 -0.00000000000E+00 -0.15546358363E+03  0.15546358363E+03  0.00000000000E+00 0.  1.
         23    2    1    2    0    0 -0.81981209094E+02  0.24451445019E+02 -0.78041269829E+02  0.17046035872E+03  0.12508997677E+03 0.  0.
          5    1    3    3  502    0 -0.59743696356E+02  0.70971829009E+02 -0.24567750394E+02  0.96059130365E+02  0.41800000000E+01 0.  1.
         -5    1    3    3    0  502 -0.22237512738E+02 -0.46520383990E+02 -0.53473519435E+02  0.74401228351E+02  0.41800000000E+01 0.  1.
        -11    1    1    2    0    0  0.29896491999E+02  0.27631674718E+02  0.56820534025E+02  0.69899089897E+02  0.00000000000E+00 0.  1.
         11    1    1    2    0    0  0.52084717095E+02 -0.52083119737E+02  0.30299161468E+02  0.79646144301E+02  0.00000000000E+00 0. -1.
</event>
<event>
 7    1  0.8653652E-006  0.1283728E+03  0.7561462E-02  0.1229890E+00
         -2   -1    0    0    0  501 -0.00000000000E+00  0.00000000000E+00  0.66773365418E+02  0.66773365418E+02  0.00000000000E+00 0.  1.
          2   -1    0    0  501    0  0.00000000000E+00 -0.00000000000E+00 -0.27647690071E+03  0.27647690071E+03  0.00000000000E+00 0. -1.
         23    2    1    2    0    0  0.55107535144E+02  0.59912773132E+02 -0.12627961263E+03  0.19548516557E+03  0.12506609683E+03 0.  0.
          5    1    3    3  502    0  0.48457422168E+01  0.82318984834E+02 -0.36894682177E+02  0.90435537565E+02  0.41800000000E+01 0. -1.
         -5    1    3    3    0  502  0.50261792928E+02 -0.22406211703E+02 -0.89384930452E+02  0.10504962800E+03  0.41800000000E+01 0. -1.
        -11    1    1    2    0    0 -0.63880161431E+02 -0.76839445329E+02 -0.80830708396E+02  0.12852462333E+03  0.00000000000E+00 0.  1.
         11    1    1    2    0    0  0.87726262868E+01  0.16926672198E+02 -0.25932142630E+01  0.19240477226E+02  0.00000000000E+00 0. -1.
</event>
<event>
 7    1  0.8653652E-006  0.9686686E+02  0.7561462E-02  0.1287026E+00
          2   -1    0    0  501    0  0.00000000000E+00  0.00000000000E+00  0.35379561202E+03  0.35379561202E+03  0.00000000000E+00 0. -1.
         -2   -1    0    0    0  501 -0.00000000000E+00 -0.00000000000E+00 -0.60656843209E+02  0.60656843209E+02  0.00000000000E+00 0.  1.
         23    2    1    2    0    0  0.49888037483E+02  0.23470817483E+02  0.43521140334E+02  0.14346273649E+03  0.12509105303E+03 0.  0.
          5    1    3    3  502    0  0.40111013046E+02  0.56686659567E+02  0.70744412860E+02  0.99219529788E+02  0.41800000000E+01 0.  1.
         -5    1    3    3    0  502  0.97770244367E+01 -0.33215842084E+02 -0.27223272526E+02  0.44243206701E+02  0.41800000000E+01 0.  1.
        -11    1    1    2    0    0 -0.38238783336E+02 -0.48453039799E+02  0.90771205477E+02  0.10976936440E+03  0.00000000000E+00 0.  1.
         11    1    1    2    0    0 -0.11649254147E+02  0.24982222316E+02  0.15884642300E+03  0.16122035434E+03  0.00000000000E+00 0. -1.
</event>
<event>
 7    1  0.8653652E-006  0.1045579E+03  0.7561462E-02  0.1270993E+00
          1   -1    0    0  501    0  0.00000000000E+00  0.00000000000E+00  0.42722426262E+02  0.42722426262E+02  0.00000000000E+00 0. -1.
         -1   -1    0    0    0  501 -0.00000000000E+00 -0.00000000000E+00 -0.31590079193E+03  0.31590079193E+03  0.00000000000E+00 0.  1.
         23    2    1    2    0    0  0.11350237835E+02 -0.19489070268E+02 -0.20374834538E+03  0.24161833153E+03  0.12789596603E+03 0.  0.
          5    1    3    3  502    0 -0.24235382948E+02  0.47684703224E+02 -0.79976364970E+02  0.96306157965E+02  0.41800000000E+01 0. -1.
         -5    1    3    3    0  502  0.35585620783E+02 -0.67173773492E+02 -0.12377198041E+03  0.14531217357E+03  0.41800000000E+01 0.  1.
        -11    1    1    2    0    0  0.28811882653E+02 -0.88913460288E+01 -0.59687646106E+02  0.66871486553E+02  0.00000000000E+00 0.  1.
         11    1    1    2    0    0 -0.40162120488E+02  0.28380416297E+02 -0.97423741755E+01  0.50133400102E+02  0.00000000000E+00 0. -1.
</event>
<event>
 7    1  0.8653652E-006  0.1011523E+03  0.7561462E-02  0.1277891E+00
         -4   -1    0    0    0  501 -0.00000000000E+00  0.00000000000E+00  0.10290725722E+04  0.10290725722E+04  0.00000000000E+00 0.  1.
          4   -1    0    0  501    0  0.00000000000E+00 -0.00000000000E+00 -0.14078442290E+02  0.14078442290E+02  0.00000000000E+00 0. -1.
         23    2    1    2    0    0  0.48063063698E+02 -0.16442144115E+02  0.62807340662E+03  0.64242091986E+03  0.12509209401E+03 0.  0.
          5    1    3    3  502    0 -0.97312991950E+01 -0.48600899756E+02  0.44406981614E+03  0.44684697565E+03  0.41800000000E+01 0. -1.
         -5    1    3    3    0  502  0.57794362893E+02  0.32158755641E+02  0.18400359047E+03  0.19557394421E+03  0.41800000000E+01 0. -1.
        -11    1    1    2    0    0 -0.66111049899E+02  0.16905067792E+02  0.36912669860E+03  0.37538110215E+03  0.00000000000E+00 0.  1.
         11    1    1    2    0    0  0.18047986201E+02 -0.46292367695E+00  0.17794024674E+02  0.25348992452E+02  0.00000000000E+00 0. -1.
</event>
<event>
 7    1  0.8653652E-006  0.1170376E+03  0.7561462E-02  0.1248066E+00
          3   -1    0    0  501    0  0.00000000000E+00  0.00000000000E+00  0.79303261241E+02  0.79303261241E+02  0.00000000000E+00 0. -1.
         -3   -1    0    0    0  501 -0.00000000000E+00 -0.00000000000E+00 -0.18858891730E+03  0.18858891730E+03  0.00000000000E+00 0.  1.
         23    2    1    2    0    0 -0.61233017039E+01 -0.46191257151E+02 -0.97614042536E+02  0.16537303824E+03  0.12509441800E+03 0.  0.
          5    1    3    3  502    0  0.57232953684E+02 -0.68166233908E+01 -0.32695074515E+02  0.66396668888E+02  0.41800000000E+01 0.  1.
         -5    1    3    3    0  502 -0.63356255388E+02 -0.39374633761E+02 -0.64918968021E+02  0.98976369349E+02  0.41800000000E+01 0.  1.
        -11    1    1    2    0    0 -0.38361952496E+02  0.13129877808E+01 -0.74768930463E+00  0.38391696700E+02  0.00000000000E+00 0. -1.
         11    1    1    2    0    0  0.44485254199E+02  0.44878269371E+02 -0.10923924217E+02  0.64127443604E+02  0.00000000000E+00 0.  1.
</event>
<event>
 7    1  0.8653652E-006  0.1418102E+03  0.7561462E-02  0.1210914E+00
          1   -1    0    0  501    0  0.00000000000E+00  0.00000000000E+00  0.94675757086E+03  0.94675757086E+03  0.00000000000E+00 0. -1.
         -1   -1    0    0    0  501 -0.00000000000E+00 -0.00000000000E+00 -0.25006233447E+02  0.25006233447E+02  0.00000000000E+00 0.  1.
         23    2    1    2    0    0  0.10678505985E+03  0.16004749982E+02  0.53359414475E+03  0.55859565033E+03  0.12508872144E+03 0.  0.
          5    1    3    3  502    0  0.38741577181E+01  0.48519998073E+02  0.94113883854E+02  0.10603817636E+03  0.41800000000E+01 0. -1.
         -5    1    3    3    0  502  0.10291090214E+03 -0.32515248091E+02  0.43948026089E+03  0.45255747397E+03  0.41800000000E+01 0. -1.
        -11    1    1    2    0    0 -0.23619347294E+02 -0.34261933527E+02  0.53113338889E+02  0.67474294539E+02  0.00000000000E+00 0.  1.
         11    1    1    2    0    0 -0.83165712560E+02  0.18257183545E+02  0.33504385378E+03  0.34569385944E+03  0.00000000000E+00 0. -1.
</event>
<event>
 7    1  0.8653652E-006  0.1297341E+03  0.7561462E-02  0.1227851E+00
         -1   -1    0    0    0  501 -0.00000000000E+00  0.00000000000E+00  0.39311008676E+03  0.39311008676E+03  0.00000000000E+00 0.  1.
          1   -1    0    0  501    0  0.00000000000E+00 -0.00000000000E+00 -0.76291688468E+02  0.76291688468E+02  0.00000000000E+00 0. -1.
         23    2    1    2    0    0  0.61964721694E+02 -0.82804982625E+02  0.28128407760E+03  0.32475192815E+03  0.12508713220E+03 0.  0.
          5    1    3    3  502    0  0.36261867827E+02  0.25304498985E+02  0.43107462975E+02  0.61894801812E+02  0.41800000000E+01 0.  1.
         -5    1    3    3    0  502  0.25702853868E+02 -0.10810948161E+03  0.23817661462E+03  0.26285712633E+03  0.41800000000E+01 0.  1.
        -11    1    1    2    0    0 -0.25346952925E+02  0.41724269619E+02  0.65731156589E+02  0.81877760377E+02  0.00000000000E+00 0.  1.
         11    1    1    2    0    0 -0.36617768769E+02  0.41080713006E+02 -0.30196835899E+02  0.62772086703E+02  0.00000000000E+00 0. -1.
</event>
<event>
 7    1  0.8653652E-006  0.1403885E+03  0.7561462E-02  0.1212807E+00
         -1   -1    0    0    0  501 -0.00000000000E+00  0.00000000000E+00  0.68532536476E+02  0.68532536476E+02  0.00000000000E+00 0.  1.
          1   -1    0    0  501    0  0.00000000000E+00 -0.00000000000E+00 -0.31280925436E+03  0.31280925436E+03  0.00000000000E+00 0. -1.
         23    2    1    2    0    0  0.50604665297E+02  0.84191240031E+02 -0.12644248018E+03  0.20318598957E+03  0.12509136068E+03 0.  0.
          5    1    3    3  502    0  0.83812882689E+02  0.42353287471E+02 -0.41489376073E+02  0.10274843547E+03  0.41800000000E+01 0. -1.
         -5    1    3    3    0  502 -0.33208217392E+02  0.41837952560E+02 -0.84953104110E+02  0.10043755411E+03  0.41800000000E+01 0. -1.
        -11    1    1    2    0    0 -0.23673963249E+02  0.16572664209E+02 -0.19934378859E+02  0.35106825482E+02  0.00000000000E+00 0. -1.
         11    1    1    2    0    0 -0.26930702048E+02 -0.10076390424E+03 -0.97899858842E+02  0.14304897578E+03  0.00000000000E+00 0.  1.
</event>
<event>
 7    1  0.8653652E-006  0.1046339E+03  0.7561462E-02  0.1270843E+00
          1   -1    0    0  501    0  0.00000000000E+00  0.00000000000E+00  0.94381476202E+02  0.94381476202E+02  0.00000000000E+00 0. -1.
         -1   -1    0    0    0  501 -0.00000000000E+00 -0.00000000000E+00 -0.17800549695E+03  0.17800549695E+03  0.00000000000E+00 0.  1.
         23    2    1    2    0    0  0.17406858898E+02  0.67012541669E+02 -0.58599187978E+02  0.15451382711E+03  0.12508788294E+03 0.  0.
          5    1    3    3  502    0  0.41340874813E+02  0.55051750521E+02 -0.89779707688E+02  0.11321497904E+03  0.41800000000E+01 0. -1.
         -5    1    3    3    0  502 -0.23934015915E+02  0.11960791148E+02  0.31180519711E+02  0.41298848072E+02  0.41800000000E+01 0. -1.
        -11    1    1    2    0    0  0.14472641481E+02  0.17605292142E+02  0.34981156948E+01  0.23057330206E+02  0.00000000000E+00 0. -1.
         11    1    1    2    0    0 -0.31879500379E+02 -0.84617833811E+02 -0.28522948462E+02  0.94815815834E+02  0.00000000000E+00 0.  1.
</event>
<event>
 7    1  0.8653652E-006  0.7553107E+02  0.7561462E-02  0.1342234E+00
         -1   -1    0    0    0  501 -0.00000000000E+00  0.00000000000E+00  0.75575082130E+02  0.75575082130E+02  0.00000000000E+00 0.  1.
          1   -1    0    0  501    0  0.00000000000E+00 -0.00000000000E+00 -0.33308336734E+03  0.33308336734E+03  0.00000000000E+00 0. -1.
         23    2    1    2    0    0  0.24557020224E+02 -0.21841612798E+02  0.28063911911E+01  0.12936633203E+03  0.12509064209E+03 0.  0.
          5    1    3    3  502    0  0.28989641537E+02 -0.20941380351E+01 -0.58073070499E+02  0.65074869556E+02  0.41800000000E+01 0. -1.
         -5    1    3    3    0  502 -0.44326213136E+01 -0.19747474763E+02  0.60879461690E+02  0.64291462473E+02  0.41800000000E+01 0. -1.
        -11    1    1    2    0    0 -0.43761195276E+02  0.50317800583E+02 -0.17918562384E+03  0.19119207896E+03  0.00000000000E+00 0. -1.
         11    1    1    2    0    0  0.19204175053E+02 -0.28476187785E+02 -0.81129052565E+02  0.88100038481E+02  0.00000000000E+00 0.  1.
</event>
<event>
 7    1  0.8653652E-006  0.1290195E+03  0.7561462E-02  0.1228918E+00
          1   -1    0    0  501    0  0.00000000000E+00  0.00000000000E+00  0.19972697996E+03  0.19972697996E+03  0.00000000000E+00 0. -1.
         -1   -1    0    0    0  501 -0.00000000000E+00 -0.00000000000E+00 -0.17553588437E+03  0.17553588437E+03  0.00000000000E+00 0.  1.
         23    2    1    2    0    0 -0.45888141003E+02  0.83987261696E+02 -0.10752914397E+03  0.19071300217E+03  0.12509736522E+03 0.  0.
          5    1    3    3  502    0 -0.15854725783E+02 -0.17320786486E+02  0.15528397226E+02  0.28460244106E+02  0.41800000000E+01 0. -1.
         -5    1    3    3    0  502 -0.30033415220E+02  0.10130804818E+03 -0.12305754119E+03  0.16225275807E+03  0.41800000000E+01 0. -1.
        -11    1    1    2    0    0  0.66735683669E+02 -0.35344378488E+02  0.87526833011E+02  0.11560200285E+03  0.00000000000E+00 0.  1.
         11    1    1    2    0    0 -0.20847542666E+02 -0.48642883208E+02  0.44193406540E+02  0.68947859311E+02  0.00000000000E+00 0. -1.
</event>
<event>
 7    1  0.8653652E-006  0.9850575E+02  0.7561462E-02  0.1283470E+00
         -2   -1    0    0    0  501 -0.00000000000E+00  0.00000000000E+00  0.43337006266E+02  0.43337006266E+02  0.00000000000E+00 0.  1.
          2   -1    0    0  501    0  0.00000000000E+00 -0.00000000000E+00 -0.29987401500E+03  0.29987401500E+03  0.00000000000E+00 0. -1.
         23    2    1    2    0    0  0.16712567542E+02 -0.21670417592E+01 -0.95383101303E+02  0.15822028766E+03  0.12510682407E+03 0.  0.
          5    1    3    3  502    0  0.33960875277E+02  0.46783708323E+02 -0.10895500162E+02  0.58976611787E+02  0.41800000000E+01 0.  1.
         -5    1    3    3    0  502 -0.17248307735E+02 -0.48950750083E+02 -0.84487601141E+02  0.99243675869E+02  0.41800000000E+01 0.  1.
        -11    1    1    2    0    0  0.34990512356E+02 -0.24268097417E+01 -0.40085176275E+02  0.53263934491E+02  0.00000000000E+00 0.  1.
         11    1    1    2    0    0 -0.51703079899E+02  0.45938515009E+01 -0.12106873116E+03  0.13172679912E+03  0.00000000000E+00 0. -1.
</event>
<event>
 7    1  0.8653652E-006  0.1221437E+03  0.7561462E-02  0.1239602E+00
         -3   -1    0    0    0  501 -0.00000000000E+00  0.00000000000E+00  0.89627198670E+02  0.89627198670E+02  0.00000000000E+00 0.  1.
          3   -1    0    0  501    0  0.00000000000E+00 -0.00000000000E+00 -0.21587515541E+03  0.21587515541E+03  0.00000000000E+00 0. -1.
         23    2    1    2    0    0  0.79827323273E+02  0.20994571633E+02 -0.39224446683E+02  0.15492143907E+03  0.12509564935E+03 0.  0.
          5    1    3    3  502    0  0.72668367400E+02 -0.32599168105E+02 -0.56799607817E+02  0.97913559990E+02  0.41800000000E+01 0. -1.
         -5    1    3    3    0  502  0.71589558732E+01  0.53593739738E+02  0.17575161134E+02  0.57007879080E+02  0.41800000000E+01 0. -1.
        -11    1    1    2    0    0  0.12402031587E+02 -0.12617589903E+02  0.66089762597E+01  0.18886305346E+02  0.00000000000E+00 0.  1.
         11    1    1    2    0    0 -0.92229354860E+02 -0.83769817304E+01 -0.93632486315E+02  0.13169460966E+03  0.00000000000E+00 0. -1.
</event>
<event>
 7    1  0.8653652E-006  0.1234232E+03  0.7561462E-02  0.1237554E+00
         -1   -1    0    0    0  501 -0.00000000000E+00  0.00000000000E+00  0.88559989323E+02  0.88559989323E+02  0.00000000000E+00 0.  1.
          1   -1    0    0  501    0  0.00000000000E+00 -0.00000000000E+00 -0.22171451607E+03  0.22171451607E+03  0.00000000000E+00 0. -1.
         23    2    1    2    0    0  0.17611194253E+02  0.85339327279E+02 -0.57116767245E+02  0.16279491170E+03  0.12508758224E+03 0.  0.
          5    1    3    3  502    0 -0.22885529407E+02  0.76333287552E+02 -0.81851832594E+02  0.11431409862E+03  0.41800000000E+01 0.  1.
         -5    1    3    3    0  502  0.40496723660E+02  0.90060397263E+01  0.24735065349E+02  0.48480813077E+02  0.41800000000E+01 0.  1.
        -11    1    1    2    0    0 -0.54691258965E+02 -0.48955886918E+02 -0.53617348592E+02  0.90899024973E+02  0.00000000000E+00 0. -1.
         11    1    1    2    0    0  0.37080064712E+02 -0.36383440361E+02 -0.22420410914E+02  0.56580568724E+02  0.00000000000E+00 0.  1.
</event>
<event>
 7    1  0.8653652E-006  0.1043172E+03  0.7561462E-02  0.1271471E+00
         -1   -1    0    0    0  501 -0.00000000000E+00  0.00000000000E+00  0.10071038103E+03  0.10071038103E+03  0.00000000000E+00 0.  1.
          1   -1    0    0  501    0  0.00000000000E+00 -0.00000000000E+00 -0.18451339843E+03  0.18451339843E+03  0.00000000000E+00 0. -1.
         23    2    1    2    0    0  0.27698999783E+02  0.58096930000E+02  0.21946857662E+02  0.13305541841E+03  0.11436604367E+03 0.  0.
          5    1    3    3  502    0 -0.27347446159E+02  0.41855420159E+02 -0.27473835953E+02  0.57201775061E+02  0.41800000000E+01 0. -1.
         -5    1    3    3    0  502  0.55046445941E+02  0.16241509841E+02  0.49420693615E+02  0.75853643354E+02  0.41800000000E+01 0.  1.
        -11    1    1    2    0    0  0.48319188642E+01 -0.67013215979E+02 -0.39793759665E+02  0.78087526942E+02  0.00000000000E+00 0.  1.
         11    1    1    2    0    0 -0.32530918647E+02  0.89162859782E+01 -0.65956115396E+02  0.74080834105E+02  0.00000000000E+00 0. -1.
</event>
<event>
 6    1  0.8653652E-006  0.1113626E+03  0.7561462E-02  0.1258067E+00
          1   -1    0    0  501    0  0.00000000000E+00  0.00000000000E+00  0.86149991756E+02  0.86149991756E+02  0.00000000000E+00 0. -1.
         -1   -1    0    0    0  501 -0.00000000000E+00 -0.00000000000E+00 -0.53640807520E+03  0.53640807520E+03  0.00000000000E+00 0.  1.
          5    1    1    2  502    0  0.94142487524E+02  0.12972617998E+02 -0.15156911679E+03  0.17894626662E+03  0.41800000000E+01 0. -1.
         -5    1    1    2    0  502 -0.65194354540E+00 -0.16601000752E+02 -0.31227647525E+03  0.31274604339E+03  0.41800000000E+01 0.  1.
        -11    1    1    2    0    0  0.41218470733E+01  0.11816142370E+02 -0.23094757182E+02  0.26267444739E+02  0.00000000000E+00 0.  1.
         11    1    1    2    0    0 -0.97612391052E+02 -0.81877596164E+01  0.36682265777E+02  0.10459831221E+03  0.00000000000E+00 0. -1.
</event>
<event>
 7    1  0.8653652E-006  0.1886208E+03  0.7561462E-02  0.1159711E+00
          2   -1    0    0  501    0  0.00000000000E+00  0.00000000000E+00  0.32356255623E+03  0.32356255623E+03  0.00000000000E+00 0. -1.
         -2   -1    0    0    0  501 -0.00000000000E+00 -0.00000000000E+00 -0.12348056685E+03  0.12348056685E+03  0.00000000000E+00 0.  1.
         23    2    1    2    0    0 -0.16486594991E+03 -0.11887527088E+02  0.11133580955E+03  0.23530107502E+03  0.12509531836E+03 0.  0.
          5    1    3    3  502    0 -0.14216371984E+03 -0.47009751215E+02  0.44347649893E+02  0.15621980156E+03  0.41800000000E+01 0.  1.
         -5    1    3    3    0  502 -0.22702230071E+02  0.35122224127E+02  0.66988159656E+02  0.79081273459E+02  0.41800000000E+01 0.  1.
        -11    1    1    2    0    0  0.10632998231E+03 -0.33353748994E+02  0.80138911048E+02  0.13726173091E+03  0.00000000000E+00 0. -1.
         11    1    1    2    0    0  0.58535967605E+02  0.45241276082E+02  0.86072687822E+01  0.74480317138E+02  0.00000000000E+00 0.  1.
</event>
<event>
 7    1  0.8653652E-006  0.1123492E+03  0.7561462E-02  0.1256280E+00
          1   -1    0    0  501    0  0.00000000000E+00  0.00000000000E+00  0.40585125860E+02  0.40585125860E+02  0.00000000000E+00 0. -1.
         -1   -1    0    0    0  501 -0.00000000000E+00 -0.00000000000E+00 -0.43024243319E+03  0.43024243319E+03  0.00000000000E+00 0.  1.
         23    2    1    2    0    0  0.18879699592E+02 -0.41871591800E+02 -0.32012669253E+03  0.34675386937E+03  0.12508986127E+03 0.  0.
          5    1    3    3  502    0  0.62987696922E+02 -0.17564206616E+01 -0.96879030865E+02  0.11564408328E+03  0.41800000000E+01 0.  1.
         -5    1    3    3    0  502 -0.44107997330E+02 -0.40115171138E+02 -0.22324766166E+03  0.23110978608E+03  0.41800000000E+01 0.  1.
        -11    1    1    2    0    0  0.36909219804E+02  0.14745647921E+02 -0.35644828311E+02  0.53387998881E+02  0.00000000000E+00 0.  1.
         11    1    1    2    0    0 -0.55788919397E+02  0.27125943879E+02 -0.33885786492E+02  0.70685690808E+02  0.00000000000E+00 0. -1.
</event>
<event>
 6    1  0.8653652E-006  0.1167149E+03  0.7561462E-02  0.1248617E+00
          1   -1    0    0  501    0  0.00000000000E+00  0.00000000000E+00  0.13912507808E+03  0.13912507808E+03  0.00000000000E+00 0. -1.
         -1   -1    0    0    0  501 -0.00000000000E+00 -0.00000000000E+00 -0.18768790071E+03  0.18768790071E+03  0.00000000000E+00 0.  1.
          5    1    1    2  502    0 -0.47321561366E+02 -0.41655879827E+02 -0.93262866924E+02  0.11264979912E+03  0.41800000000E+01 0. -1.
         -5    1    1    2    0  502  0.19079253204E+02  0.96091621629E+02 -0.20848734753E+02  0.10024849022E+03  0.41800000000E+01 0.  1.
        -11    1    1    2    0    0  0.80496168660E+01 -0.51093067529E+02  0.73763290215E+01  0.52246608608E+02  0.00000000000E+00 0.  1.
         11    1    1    2    0    0  0.20192691296E+02 -0.33426742728E+01  0.58172450026E+02  0.61668080845E+02  0.00000000000E+00 0. -1.
</event>
<event>
 7    1  0.1262304E-005  0.2822565E+03  0.7561462E-02  0.1094463E+00
          2   -1    0    0  501    0  0.00000000000E+00  0.00000000000E+00  0.15514729284E+04  0.15514729284E+04  0.00000000000E+00 0. -1.
         -2   -1    0    0    0  501 -0.00000000000E+00 -0.00000000000E+00 -0.58381417039E+02  0.58381417039E+02  0.00000000000E+00 0.  1.
         23    2    1    2    0    0 -0.26235944123E+03 -0.57456533335E+02  0.54490676906E+03  0.62024509204E+03  0.12508739987E+03 0.  0.
          5    1    3    3  502    0 -0.23447785727E+03 -0.83692221399E+02  0.40759867363E+03  0.47763836175E+03  0.41800000000E+01 0. -1.
         -5    1    3    3    0  502 -0.27881583956E+02  0.26235688064E+02  0.13730809543E+03  0.14260673029E+03  0.41800000000E+01 0. -1.
        -11    1    1    2    0    0  0.11126342231E+03 -0.96311294985E+01  0.48841540669E+03  0.50102087511E+03  0.00000000000E+00 0. -1.
         11    1    1    2    0    0  0.15109601892E+03  0.67087662833E+02  0.45976933563E+03  0.48858837832E+03  0.00000000000E+00 0.  1.
</event>
<event>
 7    1  0.8653652E-006  0.3376763E+03  0.7561462E-02  0.1067790E+00
          2   -1    0    0  501    0  0.00000000000E+00  0.00000000000E+00  0.65678825173E+03  0.65678825173E+03  0.00000000000E+00 0. -1.
         -2   -1    0    0    0  501 -0.00000000000E+00 -0.00000000000E+00 -0.17791684056E+03  0.17791684056E+03  0.00000000000E+00 0.  1.
         23    2    1    2    0    0 -0.25143371669E+03 -0.19802269010E+03  0.18314353388E+03  0.38938300178E+03  0.12508264626E+03 0.  0.
          5    1    3    3  502    0 -0.16157392004E+03 -0.19546084922E+03  0.13517198284E+03  0.28740217911E+03  0.41800000000E+01 0. -1.
         -5    1    3    3    0  502 -0.89859796654E+02 -0.25618408747E+01  0.47971551039E+02  0.10198082267E+03  0.41800000000E+01 0. -1.
        -11    1    1    2    0    0  0.16077172998E+03  0.17610564899E+03  0.22926228406E+03  0.33078987841E+03  0.00000000000E+00 0.  1.
         11    1    1    2    0    0  0.90661986713E+02  0.21917041105E+02  0.66465593229E+02  0.11453221210E+03  0.00000000000E+00 0. -1.
</event>
<event>
 7    1  0.8653652E-006  0.8741376E+02  0.7561462E-02  0.1309238E+00
         -2   -1    0    0    0  501 -0.00000000000E+00  0.00000000000E+00  0.55266657867E+02  0.55266657867E+02  0.00000000000E+00 0.  1.
          2   -1    0    0  501    0  0.00000000000E+00 -0.00000000000E+00 -0.26649439630E+03  0.26649439630E+03  0.00000000000E+00 0. -1.
         23    2    1    2    0    0  0.22230230296E+02  0.46419116758E+02 -0.90786724466E+02  0.16292632658E+03  0.12511531086E+03 0.  0.
          5    1    3    3  502    0 -0.12109991009E+02  0.70427380173E+02 -0.96797982995E+02  0.12039098667E+03  0.41800000000E+01 0.  1.
         -5    1    3    3    0  502  0.34340221305E+02 -0.24008263415E+02  0.60112585296E+01  0.42535339902E+02  0.41800000000E+01 0.  1.
        -11    1    1    2    0    0 -0.30694396355E+02 -0.40455971158E+02 -0.13311301304E+03  0.14247071913E+03  0.00000000000E+00 0. -1.
         11    1    1    2    0    0  0.84641660589E+01 -0.59631456001E+01  0.12671999069E+02  0.16364008461E+02  0.00000000000E+00 0.  1.
</event>
<event>
 7    1  0.8653652E-006  0.8973909E+02  0.7561462E-02  0.1303485E+00
          3   -1    0    0  501    0  0.00000000000E+00  0.00000000000E+00  0.10183446599E+03  0.10183446599E+03  0.00000000000E+00 0. -1.
         -3   -1    0    0    0  501 -0.00000000000E+00 -0.00000000000E+00 -0.13898048219E+03  0.13898048219E+03  0.00000000000E+00 0.  1.
         23    2    1    2    0    0 -0.24138582611E+02  0.19238670203E+02 -0.45335046595E+02  0.13658847948E+03  0.12509335984E+03 0.  0.
          5    1    3    3  502    0 -0.39528748089E+02 -0.22932989049E+02 -0.71127035382E+02  0.84646154516E+02  0.41800000000E+01 0. -1.
         -5    1    3    3    0  502  0.15390165477E+02  0.42171659252E+02  0.25791988787E+02  0.51942324968E+02  0.41800000000E+01 0. -1.
        -11    1    1    2    0    0  0.54549307161E+02 -0.45769936316E+01 -0.21942612277E+02  0.58975028750E+02  0.00000000000E+00 0.  1.
         11    1    1    2    0    0 -0.30410724550E+02 -0.14661676571E+02  0.30131642669E+02  0.45251439949E+02  0.00000000000E+00 0. -1.
</event>
<event>
 7    1  0.8653652E-006  0.7419867E+02  0.7561462E-02  0.1346371E+00
          1   -1    0    0  501    0  0.00000000000E+00  0.00000000000E+00  0.24979707366E+02  0.24979707366E+02  0.00000000000E+00 0. -1.
         -1   -1    0    0    0  501 -0.00000000000E+00 -0.00000000000E+00 -0.55509579374E+03  0.55509579374E+03  0.00000000000E+00 0.  1.
         23    2    1    2    0    0 -0.13373176863E+02 -0.43782525116E+02 -0.31019603263E+03  0.33758556252E+03  0.12508669791E+03 0.  0.
          5    1    3    3  502    0 -0.32223726172E+02 -0.32668445960E+02 -0.31185939100E+03  0.31524490170E+03  0.41800000000E+01 0.  1.
         -5    1    3    3    0  502  0.18850549310E+02 -0.11114079156E+02  0.16633583715E+01  0.22340660819E+02  0.41800000000E+01 0.  1.
        -11    1    1    2    0    0  0.45964808939E+01  0.60758095814E+02 -0.21396738462E+03  0.22247407832E+03  0.00000000000E+00 0.  1.
         11    1    1    2    0    0  0.87766959688E+01 -0.16975570698E+02 -0.59526691241E+01  0.20015860270E+02  0.00000000000E+00 0. -1.
</event>
<event>
 7    1  0.8653652E-006  0.1946167E+03  0.7561462E-02  0.1154362E+00
         -2   -1    0    0    0  501 -0.00000000000E+00  0.00000000000E+00  0.25204856677E+02  0.25204856677E+02  0.00000000000E+00 0.  1.
          2   -1    0    0  501    0  0.00000000000E+00 -0.00000000000E+00 -0.15880601818E+04  0.15880601818E+04  0.00000000000E+00 0. -1.
         23    2    1    2    0    0  0.14619709045E+03 -0.79989190203E+02 -0.88878086601E+03  0.91287879776E+03  0.12507762312E+03 0.  0.
          5    1    3    3  502    0 -0.16623991656E+02  0.82663128951E+01 -0.15108282397E+03  0.15227665982E+03  0.41800000000E+01 0.  1.
         -5    1    3    3    0  502  0.16282108210E+03 -0.88255503098E+02 -0.73769804204E+03  0.76060213794E+03  0.41800000000E+01 0.  1.
        -11    1    1    2    0    0 -0.13687210394E+03  0.38151764706E+02 -0.43858448061E+03  0.46102698036E+03  0.00000000000E+00 0.  1.
         11    1    1    2    0    0 -0.93249865071E+01  0.41837425497E+02 -0.23548997855E+03  0.23935926041E+03  0.00000000000E+00 0. -1.
</event>
<event>
 7    1  0.8653652E-006  0.1016918E+03  0.7561462E-02  0.1276778E+00
         -2   -1    0    0    0  501 -0.00000000000E+00  0.00000000000E+00  0.22330160531E+03  0.22330160531E+03  0.00000000000E+00 0.  1.
          2   -1    0    0  501    0  0.00000000000E+00 -0.00000000000E+00 -0.11275605560E+03  0.11275605560E+03  0.00000000000E+00 0. -1.
         23    2    1    2    0    0  0.41170389603E+02 -0.48020321824E+02  0.16302033474E+03  0.21500255400E+03  0.12509802715E+03 0.  0.
          5    1    3    3  502    0  0.28037577304E+02  0.38146775374E+02  0.87609711467E+02  0.99670538053E+02  0.41800000000E+01 0. -1.
         -5    1    3    3    0  502  0.13132812299E+02 -0.86167097198E+02  0.75410623278E+02  0.11533201594E+03  0.41800000000E+01 0. -1.
        -11    1    1    2    0    0 -0.28324167740E+02  0.48017264339E+02  0.10546805003E+02  0.56737564704E+02  0.00000000000E+00 0.  1.
         11    1    1    2    0    0 -0.12846221863E+02  0.30574851230E-02 -0.63021590041E+02  0.64317542216E+02  0.00000000000E+00 0. -1.
</event>
<event>
 7    1  0.8653652E-006  0.9269757E+02  0.7561462E-02  0.1296448E+00
         -1   -1    0    0    0  501 -0.00000000000E+00  0.00000000000E+00  0.46827395222E+02  0.46827395222E+02  0.00000000000E+00 0.  1.
          1   -1    0    0  501    0  0.00000000000E+00 -0.00000000000E+00 -0.39750033318E+03  0.39750033318E+03  0.00000000000E+00 0. -1.
         23    2    1    2    0    0 -0.44935354652E+00 -0.33863449114E+02 -0.51059924968E+02  0.12842907682E+03  0.11287150540E+03 0.  0.
          5    1    3    3  502    0 -0.43179478588E+02  0.24377954852E+01 -0.57243941841E+02  0.71866205518E+02  0.41800000000E+01 0. -1.
         -5    1    3    3    0  502  0.42730125042E+02 -0.36301244599E+02  0.61840168734E+01  0.56562871304E+02  0.41800000000E+01 0.  1.
        -11    1    1    2    0    0 -0.16263744783E+02 -0.22029903821E+02 -0.32541528131E+02  0.42529720313E+02  0.00000000000E+00 0.  1.
         11    1    1    2    0    0  0.16713098330E+02  0.55893352935E+02 -0.26707148486E+03  0.27336893127E+03  0.00000000000E+00 0. -1.
</event>
<event>
 7    1  0.8653652E-006  0.2247344E+03  0.7561462E-02  0.1130402E+00
          2   -1    0    0  501    0  0.00000000000E+00  0.00000000000E+00  0.34724472500E+04  0.34724472500E+04  0.00000000000E+00 0. -1.
         -2   -1    0    0    0  501 -0.00000000000E+00 -0.00000000000E+00 -0.16654920256E+02  0.16654920256E+02  0.00000000000E+00 0.  1.
         23    2    1    2    0    0 -0.20333241497E+03 -0.15386484545E+02  0.22636220350E+04  0.22762295403E+04  0.12512149266E+03 0.  0.
          5    1    3    3  502    0 -0.84116975535E+02 -0.63537866307E+02  0.79200498442E+03  0.79900068446E+03  0.41800000000E+01 0.  1.
         -5    1    3    3    0  502 -0.11921543944E+03  0.48151381762E+02  0.14716170506E+04  0.14772288559E+04  0.41800000000E+01 0.  1.
        -11    1    1    2    0    0  0.20013494794E+03  0.53372124981E+00  0.11618227067E+04  0.11789343850E+04  0.00000000000E+00 0.  1.
         11    1    1    2    0    0  0.31974670329E+01  0.14852763295E+02  0.30347588041E+02  0.33938244987E+02  0.00000000000E+00 0. -1.
</event>
<event>
 7    1  0.8653652E-006  0.1301639E+03  0.7561462E-02  0.1227213E+00
          1   -1    0    0  501    0  0.00000000000E+00  0.00000000000E+00  0.20699161928E+03  0.20699161928E+03  0.00000000000E+00 0. -1.
         -1   -1    0    0    0  501 -0.00000000000E+00 -0.00000000000E+00 -0.86246878863E+02  0.86246878863E+02  0.00000000000E+00 0.  1.
         23    2    1    2    0    0 -0.42842883568E+02  0.57783687377E+02  0.33998013385E+02  0.14823926613E+03  0.12507816720E+03 0.  0.
          5    1    3    3  502    0 -0.86646399868E+02  0.28476348719E+02  0.18642807026E+02  0.93185447900E+02  0.41800000000E+01 0. -1.
         -5    1    3    3    0  502  0.43803516300E+02  0.29307338658E+02  0.15355206359E+02  0.55053818231E+02  0.41800000000E+01 0. -1.
        -11    1    1    2    0    0  0.27654203846E+02  0.21752161091E+02  0.27835616717E+02  0.44863493628E+02  0.00000000000E+00 0. -1.
         11    1    1    2    0    0  0.15188679723E+02 -0.79535848469E+02  0.58911110314E+02  0.10013573838E+03  0.00000000000E+00 0.  1.
</event>
<event>
 7    1  0.8653652E-006  0.1435259E+03  0.7561462E-02  0.1208662E+00
         -1   -1    0    0    0  501 -0.00000000000E+00  0.00000000000E+00  0.72122297455E+02  0.72122297455E+02  0.00000000000E+00 0.  1.
          1   -1    0    0  501    0  0.00000000000E+00 -0.00000000000E+00 -0.37933954570E+03  0.37933954570E+03  0.00000000000E+00 0. -1.
         23    2    1    2    0    0 -0.42063568037E+02 -0.98344357605E+02 -0.78412299143E+02  0.18230839615E+03  0.12508759420E+03 0.  0.
          5    1    3    3  502    0 -0.71394472135E+02 -0.11048840443E+03 -0.55007958172E+02  0.14264713817E+03  0.41800000000E+01 0.  1.
         -5    1    3    3    0  502  0.29330904099E+02  0.12144046826E+02 -0.23404340971E+02  0.39661257984E+02  0.41800000000E+01 0.  1.
        -11    1    1    2    0    0  0.50187449486E+02  0.39104098605E+02 -0.18325584893E+03  0.19398612523E+03  0.00000000000E+00 0. -1.
         11    1    1    2    0    0 -0.81238814493E+01  0.59240259000E+02 -0.45549100164E+02  0.75167321769E+02  0.00000000000E+00 0.  1.
</event>
<event>
 7    1  0.8653652E-006  0.1393672E+03  0.7561462E-02  0.1214183E+00
         -3   -1    0    0    0  501 -0.00000000000E+00  0.00000000000E+00  0.40365092074E+02  0.40365092074E+02  0.00000000000E+00 0.  1.
          3   -1    0    0  501    0  0.00000000000E+00 -0.00000000000E+00 -0.61152391746E+03  0.61152391746E+03  0.00000000000E+00 0. -1.
         23    2    1    2    0    0 -0.10692331610E+03 -0.25493026347E+02 -0.24859778952E+03  0.29921794453E+03  0.12509207592E+03 0.  0.
          5    1    3    3  502    0 -0.71285792029E+01 -0.58236300792E+02 -0.11554457493E+03  0.12965455861E+03  0.41800000000E+01 0. -1.
         -5    1    3    3    0  502 -0.99794736900E+02  0.32743274445E+02 -0.13305321458E+03  0.16956338592E+03  0.41800000000E+01 0. -1.
        -11    1    1    2    0    0  0.68022928989E+02 -0.48611844977E+00 -0.77214325511E+02  0.10290484558E+03  0.00000000000E+00 0.  1.
         11    1    1    2    0    0  0.38900387114E+02  0.25979144797E+02 -0.24534671036E+03  0.24976621942E+03  0.00000000000E+00 0. -1.
</event>
<event>
 7    1  0.8653652E-006  0.1080207E+03  0.7561462E-02  0.1264280E+00
         -1   -1    0    0    0  501 -0.00000000000E+00  0.00000000000E+00  0.38446913250E+02  0.38446913250E+02  0.00000000000E+00 0.  1.
          1   -1    0    0  501    0  0.00000000000E+00 -0.00000000000E+00 -0.32460982181E+03  0.32460982181E+03  0.00000000000E+00 0. -1.
         23    2    1    2    0    0 -0.82457183584E+01  0.18834260092E+02 -0.13410644344E+03  0.18454190920E+03  0.12509379222E+03 0.  0.
          5    1    3    3  502    0  0.12221262048E+02  0.68438764771E+02 -0.54447057383E+02  0.88403496690E+02  0.41800000000E+01 0.  1.
         -5    1    3    3    0  502 -0.20466980407E+02 -0.49604504679E+02 -0.79659386062E+02  0.96138412506E+02  0.41800000000E+01 0.  1.
        -11    1    1    2    0    0 -0.81127292627E+01 -0.53567410382E+02 -0.76214840869E+02  0.93509281891E+02  0.00000000000E+00 0.  1.
         11    1    1    2    0    0  0.16358447621E+02  0.34733150290E+02 -0.75841624244E+02  0.85005543970E+02  0.00000000000E+00 0. -1.
</event>
<event>
 7    1  0.8653652E-006  0.2225705E+03  0.7561462E-02  0.1131981E+00
          2   -1    0    0  501    0  0.00000000000E+00  0.00000000000E+00  0.11079480717E+03  0.11079480717E+03  0.00000000000E+00 0. -1.
         -2   -1    0    0    0  501 -0.00000000000E+00 -0.00000000000E+00 -0.52338164405E+03  0.52338164405E+03  0.00000000000E+00 0.  1.
         23    2    1    2    0    0  0.15709549290E+03  0.14015750026E+03 -0.26860343029E+03  0.36348228584E+03  0.12509376718E+03 0.  0.
          5    1    3    3  502    0  0.65964766319E+02  0.28622059702E+01 -0.13847862586E+03  0.15347099022E+03  0.41800000000E+01 0. -1.
         -5    1    3    3    0  502  0.91130726579E+02  0.13729529429E+03 -0.13012480443E+03  0.21001129562E+03  0.41800000000E+01 0. -1.
        -11    1    1    2    0    0 -0.41491967300E+02 -0.15927068415E+02 -0.75681693608E+02  0.87766585931E+02  0.00000000000E+00 0.  1.
         11    1    1    2    0    0 -0.11560352560E+03 -0.12423043184E+03 -0.68301712984E+02  0.18292757945E+03  0.00000000000E+00 0. -1.
</event>
<event>
 7    1  0.8653652E-006  0.1664449E+03  0.7561462E-02  0.1181607E+00
          1   -1    0    0  501    0  0.00000000000E+00  0.00000000000E+00  0.56157894675E+02  0.56157894675E+02  0.00000000000E+00 0. -1.
         -1   -1    0    0    0  501 -0.00000000000E+00 -0.00000000000E+00 -0.58666470471E+03  0.58666470471E+03  0.00000000000E+00 0.  1.
         23    2    1    2    0    0  0.11677935402E+03 -0.67389284578E+02 -0.37301336969E+03  0.41589041601E+03  0.12508849251E+03 0.  0.
          5    1    3    3  502    0  0.13212673632E+03 -0.35688410869E+02 -0.22251402184E+03  0.26126825187E+03  0.41800000000E+01 0.  1.
         -5    1    3    3    0  502 -0.15347382308E+02 -0.31700873709E+02 -0.15049934785E+03  0.15462216413E+03  0.41800000000E+01 0.  1.
        -11    1    1    2    0    0 -0.52237331894E+02  0.79207099608E+02 -0.71712388489E+02  0.11893346936E+03  0.00000000000E+00 0. -1.
         11    1    1    2    0    0 -0.64542022122E+02 -0.11817815030E+02 -0.85781051860E+02  0.10799871402E+03  0.00000000000E+00 0.  1.
</event>
<event>
 7    1  0.8653652E-006  0.9342561E+02  0.7561462E-02  0.1294762E+00
         -1   -1    0    0    0  501 -0.00000000000E+00  0.00000000000E+00  0.45474544355E+02  0.45474544355E+02  0.00000000000E+00 0.  1.
          1   -1    0    0  501    0  0.00000000000E+00 -0.00000000000E+00 -0.35522148740E+03  0.35522148740E+03  0.00000000000E+00 0. -1.
         23    2    1    2    0    0  0.30825832116E+02  0.14701489758E+02 -0.10029747712E+03  0.16393130575E+03  0.12509006101E+03 0.  0.
          5    1    3    3  502    0  0.50757068447E+02  0.51647061913E+02 -0.97677197081E+02  0.12166349589E+03  0.41800000000E+01 0. -1.
         -5    1    3    3    0  502 -0.19931236331E+02 -0.36945572155E+02 -0.26202800346E+01  0.42267809868E+02  0.41800000000E+01 0. -1.
        -11    1    1    2    0    0 -0.87452267800E+01  0.25119158733E+02 -0.46956732017E+01  0.27009266442E+02  0.00000000000E+00 0.  1.
         11    1    1    2    0    0 -0.22080605336E+02 -0.39820648492E+02 -0.20475379272E+03  0.20975545955E+03  0.00000000000E+00 0. -1.
</event>
<event>
 7    1  0.8653652E-006  0.1538559E+03  0.7561462E-02  0.1195813E+00
          2   -1    0    0  501    0  0.00000000000E+00  0.00000000000E+00  0.13302455338E+04  0.13302455338E+04  0.00000000000E+00 0. -1.
         -2   -1    0    0    0  501 -0.00000000000E+00 -0.00000000000E+00 -0.20025242802E+02  0.20025242802E+02  0.00000000000E+00 0.  1.
         23    2    1    2    0    0  0.50158804897E+02  0.11146954279E+03  0.70395444279E+03  0.72535530631E+03  0.12508836155E+03 0.  0.
          5    1    3    3  502    0  0.76786822222E+02  0.10383367100E+03  0.40548459555E+03  0.42557358579E+03  0.41800000000E+01 0.  1.
         -5    1    3    3    0  502 -0.26628017325E+02  0.76358717940E+01  0.29846984724E+03  0.29978172052E+03  0.41800000000E+01 0.  1.
        -11    1    1    2    0    0 -0.60026195066E+02 -0.27648894662E+02  0.23044432387E+03  0.23973358520E+03  0.00000000000E+00 0.  1.
         11    1    1    2    0    0  0.98673901684E+01 -0.83820648130E+02  0.37582152437E+03  0.38518188512E+03  0.00000000000E+00 0. -1.
</event>
<event>
 7    1  0.8653652E-006  0.1258502E+03  0.7561462E-02  0.1233747E+00
          2   -1    0    0  501    0  0.00000000000E+00  0.00000000000E+00  0.19932991307E+02  0.19932991307E+02  0.00000000000E+00 0. -1.
         -2   -1    0    0    0  501 -0.00000000000E+00 -0.00000000000E+00 -0.11253731826E+04  0.11253731826E+04  0.00000000000E+00 0.  1.
         23    2    1    2    0    0 -0.12213138815E+02  0.10207591104E+03 -0.68783706192E+03  0.70663687773E+03  0.12508877184E+03 0.  0.
          5    1    3    3  502    0  0.33896092986E+02  0.21038928169E+02 -0.43974057760E+03  0.44156633658E+03  0.41800000000E+01 0.  1.
         -5    1    3    3    0  502 -0.46109231801E+02  0.81036982868E+02 -0.24809648433E+03  0.26507054115E+03  0.41800000000E+01 0.  1.
        -11    1    1    2    0    0 -0.16463145809E+02 -0.81032764041E+02 -0.37066866210E+03  0.37977967439E+03  0.00000000000E+00 0.  1.
         11    1    1    2    0    0  0.28676284624E+02 -0.21043146996E+02 -0.46934467241E+02  0.58889621756E+02  0.00000000000E+00 0. -1.
</event>
<event>
 7    1  0.1022548E-005  0.1653466E+03  0.7561462E-02  0.1182789E+00
          2   -1    0    0  501    0  0.00000000000E+00  0.00000000000E+00  0.12107882363E+03  0.12107882363E+03  0.00000000000E+00 0. -1.
         -2   -1    0    0    0  501 -0.00000000000E+00 -0.00000000000E+00 -0.26659817520E+03  0.26659817520E+03  0.00000000000E+00 0.  1.
         23    2    1    2    0    0  0.11801351386E+03  0.74487401801E+02 -0.11092141756E+03  0.21777657720E+03  0.12509002447E+03 0.  0.
          5    1    3    3  502    0  0.13925507177E+03  0.68832804452E+02 -0.11708614762E+03  0.19456764465E+03  0.41800000000E+01 0.  1.
         -5    1    3    3    0  502 -0.21241557907E+02  0.56545973497E+01  0.61647300518E+01  0.23208932550E+02  0.41800000000E+01 0.  1.
        -11    1    1    2    0    0 -0.20634863389E+02 -0.47632155984E+02  0.19330856740E+02  0.55392254811E+02  0.00000000000E+00 0. -1.
         11    1    1    2    0    0 -0.97378650473E+02 -0.26855245818E+02 -0.53928790743E+02  0.11450816681E+03  0.00000000000E+00 0.  1.
</event>
<event>
 7    1  0.8653652E-006  0.1420829E+03  0.7561462E-02  0.1210553E+00
          1   -1    0    0  501    0  0.00000000000E+00  0.00000000000E+00  0.37653599096E+03  0.37653599096E+03  0.00000000000E+00 0. -1.
         -1   -1    0    0    0  501 -0.00000000000E+00 -0.00000000000E+00 -0.58611275950E+02  0.58611275950E+02  0.00000000000E+00 0.  1.
         23    2    1    2    0    0 -0.30271672393E+02  0.61561517515E+02  0.13773242719E+03  0.19830354763E+03  0.12509149018E+03 0.  0.
          5    1    3    3  502    0  0.97438065961E+01  0.90238355071E+02  0.71204379698E+02  0.11543586350E+03  0.41800000000E+01 0.  1.
         -5    1    3    3    0  502 -0.40015478989E+02 -0.28676837556E+02  0.66528047494E+02  0.82867684137E+02  0.41800000000E+01 0.  1.
        -11    1    1    2    0    0 -0.49656037804E+02 -0.29665583297E+02  0.11552859495E+03  0.12919994262E+03  0.00000000000E+00 0. -1.
         11    1    1    2    0    0  0.79927710196E+02 -0.31895934218E+02  0.64663692869E+02  0.10764377665E+03  0.00000000000E+00 0.  1.
</event>
<event>
 7    1  0.8653652E-006  0.1261557E+03  0.7561462E-02  0.1233274E+00
          2   -1    0    0  501    0  0.00000000000E+00  0.00000000000E+00  0.25951673967E+03  0.25951673967E+03  0.00000000000E+00 0. -1.
         -2   -1    0    0    0  501 -0.00000000000E+00 -0.00000000000E+00 -0.78924140397E+02  0.78924140397E+02  0.00000000000E+00 0.  1.
         23    2    1    2    0    0 -0.21131577337E+02 -0.90912586341E+02  0.87682494115E+02  0.17901576839E+03  0.12508710422E+03 0.  0.
          5    1    3    3  502    0  0.29253061763E+02 -0.53944288086E+02  0.97838107092E+02  0.11556597873E+03  0.41800000000E+01 0.  1.
         -5    1    3    3    0  502 -0.50384639100E+02 -0.36968298255E+02 -0.10155612977E+02  0.63449789661E+02  0.41800000000E+01 0.  1.
        -11    1    1    2    0    0  0.55601988309E+02  0.51182690651E+02  0.43179502673E+02  0.87038602799E+02  0.00000000000E+00 0. -1.
         11    1    1    2    0    0 -0.34470410971E+02  0.39729895690E+02  0.49730602482E+02  0.72386508876E+02  0.00000000000E+00 0.  1.
</event>
<event>
 7    1  0.8653652E-006  0.1333968E+03  0.7561462E-02  0.1222501E+00
         -2   -1    0    0    0  501 -0.00000000000E+00  0.00000000000E+00  0.55365006603E+03  0.55365006603E+03  0.00000000000E+00 0.  1.
          2   -1    0    0  501    0  0.00000000000E+00 -0.00000000000E+00 -0.40650369104E+02  0.40650369104E+02  0.00000000000E+00 0. -1.
         23    2    1    2    0    0 -0.78861374258E+02  0.65005232265E+02  0.30457203704E+03  0.34475767760E+03  0.12509569915E+03 0.  0.
          5    1    3    3  502    0  0.27636586190E+02  0.33325889603E+02  0.13627528379E+03  0.14304831766E+03  0.41800000000E+01 0. -1.
         -5    1    3    3    0  502 -0.10649796045E+03  0.31679342662E+02  0.16829675325E+03  0.20170935993E+03  0.41800000000E+01 0. -1.
        -11    1    1    2    0    0  0.21929934601E+02 -0.47871894602E+02  0.17185505939E+03  0.17974092957E+03  0.00000000000E+00 0.  1.
         11    1    1    2    0    0  0.56931439657E+02 -0.17133337663E+02  0.36572600502E+02  0.69801827973E+02  0.00000000000E+00 0. -1.
</event>
<event>
 7    1  0.8653652E-006  0.1041149E+03  0.7561462E-02  0.1271873E+00
         -2   -1    0    0    0  501 -0.00000000000E+00  0.00000000000E+00  0.12548020536E+02  0.12548020536E+02  0.00000000000E+00 0.  1.
          2   -1    0    0  501    0  0.00000000000E+00 -0.00000000000E+00 -0.11871459901E+04  0.11871459901E+04  0.00000000000E+00 0. -1.
         23    2    1    2    0    0  0.54181002439E+02  0.71831586546E+01 -0.59275577734E+03  0.60827089325E+03  0.12508752620E+03 0.  0.
          5    1    3    3  502    0 -0.20035974895E+02 -0.14295208975E+02 -0.39690826257E+03  0.39769263834E+03  0.41800000000E+01 0. -1.
         -5    1    3    3    0  502  0.74216977333E+02  0.21478367630E+02 -0.19584751476E+03  0.21057825491E+03  0.41800000000E+01 0. -1.
        -11    1    1    2    0    0  0.90877980087E+01 -0.35447517046E+02 -0.21546316731E+03  0.21854860101E+03  0.00000000000E+00 0. -1.
         11    1    1    2    0    0 -0.63268800447E+02  0.28264358391E+02 -0.36637902495E+03  0.37287451641E+03  0.00000000000E+00 0.  1.
</event>
<event>
 7    1  0.8653652E-006  0.2042393E+03  0.7561462E-02  0.1146211E+00
          2   -1    0    0  501    0  0.00000000000E+00  0.00000000000E+00  0.26353374196E+03  0.26353374196E+03  0.00000000000E+00 0. -1.
         -2   -1    0    0    0  501 -0.00000000000E+00 -0.00000000000E+00 -0.19543541061E+03  0.19543541061E+03  0.00000000000E+00 0.  1.
         23    2    1    2    0    0 -0.18835039986E+03  0.38960558940E+02 -0.13459936077E+02  0.22982820298E+03  0.12508411060E+03 0.  0.
          5    1    3    3  502    0 -0.15267530910E+03  0.95376020806E+01  0.40837417896E+02  0.15838523594E+03  0.41800000000E+01 0.  1.
         -5    1    3    3    0  502 -0.35675090760E+02  0.29422956859E+02 -0.54297353974E+02  0.71442967041E+02  0.41800000000E+01 0.  1.
        -11    1    1    2    0    0  0.43674007280E+02  0.25562179048E+02 -0.77403153318E+00  0.50610700790E+02  0.00000000000E+00 0.  1.
         11    1    1    2    0    0  0.14467639258E+03 -0.64522737987E+02  0.82332298954E+02  0.17853024881E+03  0.00000000000E+00 0. -1.
</event>
<event>
 7    1  0.8653652E-006  0.6149101E+02  0.7561462E-02  0.1391679E+00
          2   -1    0    0  501    0  0.00000000000E+00  0.00000000000E+00  0.20064478725E+03  0.20064478725E+03  0.00000000000E+00 0. -1.
         -2   -1    0    0    0  501 -0.00000000000E+00 -0.00000000000E+00 -0.68982260225E+02  0.68982260225E+02  0.00000000000E+00 0.  1.
         23    2    1    2    0    0  0.69343638691E+01  0.42989269303E+02  0.60701356697E+02  0.14570134190E+03  0.12509222057E+03 0.  0.
          5    1    3    3  502    0 -0.24919356532E+02  0.10848121612E+02  0.88334251214E+02  0.92515233394E+02  0.41800000000E+01 0.  1.
         -5    1    3    3    0  502  0.31853720401E+02  0.32141147691E+02 -0.27632894517E+02  0.53186108503E+02  0.41800000000E+01 0.  1.
        -11    1    1    2    0    0  0.70884812365E+01 -0.30332915733E+02 -0.15942465980E+02  0.34992778750E+02  0.00000000000E+00 0.  1.
         11    1    1    2    0    0 -0.14022845106E+02 -0.12656353570E+02  0.86903636305E+02  0.88932926825E+02  0.00000000000E+00 0. -1.
</event>
<event>
 7    1  0.8653652E-006  0.2042186E+03  0.7561462E-02  0.1146228E+00
          1   -1    0    0  501    0  0.00000000000E+00  0.00000000000E+00  0.71284971215E+03  0.71284971215E+03  0.00000000000E+00 0. -1.
         -1   -1    0    0    0  501 -0.00000000000E+00 -0.00000000000E+00 -0.71001389302E+02  0.71001389302E+02  0.00000000000E+00 0.  1.
         23    2    1    2    0    0  0.27982532993E+02  0.19347578937E+03  0.37660915956E+03  0.44237714294E+03  0.12508866576E+03 0.  0.
          5    1    3    3  502    0  0.20632404721E+02  0.20048021257E+03  0.27928285786E+03  0.34443344618E+03  0.41800000000E+01 0. -1.
         -5    1    3    3    0  502  0.73501282718E+01 -0.70044231998E+01  0.97326301708E+02  0.97943696755E+02  0.41800000000E+01 0. -1.
        -11    1    1    2    0    0 -0.12181269924E+02 -0.12534895287E+03  0.96006808813E+02  0.15836050853E+03  0.00000000000E+00 0.  1.
         11    1    1    2    0    0 -0.15801263069E+02 -0.68126836504E+02  0.16923235447E+03  0.18311344999E+03  0.00000000000E+00 0. -1.
</event>
<event>
 7    1  0.8653652E-006  0.2014942E+03  0.7561462E-02  0.1148484E+00
         -1   -1    0    0    0  501 -0.00000000000E+00  0.00000000000E+00  0.23575232590E+02  0.23575232590E+02  0.00000000000E+00 0.  1.
          1   -1    0    0  501    0  0.00000000000E+00 -0.00000000000E+00 -0.18632687005E+04  0.18632687005E+04  0.00000000000E+00 0. -1.
         23    2    1    2    0    0 -0.10172224073E+03  0.15038108658E+03 -0.82119603952E+03  0.85027790761E+03  0.12509076457E+03 0.  0.
          5    1    3    3  502    0 -0.37151250856E+02  0.14231941295E+03 -0.66371589065E+03  0.67983180761E+03  0.41800000000E+01 0.  1.
         -5    1    3    3    0  502 -0.64570989870E+02  0.80616736263E+01 -0.15748014888E+03  0.17044610000E+03  0.41800000000E+01 0.  1.
        -11    1    1    2    0    0 -0.25324721418E+01 -0.35146586405E+02 -0.13597129667E+03  0.14046312494E+03  0.00000000000E+00 0.  1.
         11    1    1    2    0    0  0.10425471287E+03 -0.11523450017E+03 -0.88252613176E+03  0.89610290057E+03  0.00000000000E+00 0. -1.
</event>
<event>
 7    1  0.8653652E-006  0.1150671E+03  0.7561462E-02  0.1251464E+00
          2   -1    0    0  501    0  0.00000000000E+00  0.00000000000E+00  0.46388864265E+03  0.46388864265E+03  0.00000000000E+00 0. -1.
         -2   -1    0    0    0  501 -0.00000000000E+00 -0.00000000000E+00 -0.35771291021E+02  0.35771291021E+02  0.00000000000E+00 0.  1.
         23    2    1    2    0    0  0.59368150536E+02 -0.31426763981E+02  0.20793916345E+03  0.25179071860E+03  0.12509057313E+03 0.  0.
          5    1    3    3  502    0  0.63260635231E+01 -0.62089751122E+02  0.43311264168E+02  0.76082154793E+02  0.41800000000E+01 0. -1.
         -5    1    3    3    0  502  0.53042087013E+02  0.30662987140E+02  0.16462789928E+03  0.17570856381E+03  0.41800000000E+01 0. -1.
        -11    1    1    2    0    0 -0.77763395065E+02  0.10757446399E+02  0.11591499514E+03  0.13999697984E+03  0.00000000000E+00 0.  1.
         11    1    1    2    0    0  0.18395244529E+02  0.20669317583E+02  0.10426319304E+03  0.10787223523E+03  0.00000000000E+00 0. -1.
</event>
<event>
 7    1  0.8653652E-006  0.7762853E+02  0.7561462E-02  0.1335919E+00
         -2   -1    0    0    0  501 -0.00000000000E+00  0.00000000000E+00  0.12799886408E+03  0.12799886408E+03  0.00000000000E+00 0.  1.
          2   -1    0    0  501    0  0.00000000000E+00 -0.00000000000E+00 -0.12296026887E+03  0.12296026887E+03  0.00000000000E+00 0. -1.
         23    2    1    2    0    0 -0.30970250349E+02  0.10332059948E+02  0.56108476808E+02  0.14093090252E+03  0.12508976875E+03 0.  0.
          5    1    3    3  502    0 -0.10329118946E+02  0.63529769444E+02  0.53257107808E+02  0.83645168635E+02  0.41800000000E+01 0.  1.
         -5    1    3    3    0  502 -0.20641131403E+02 -0.53197709497E+02  0.28513689995E+01  0.57285733882E+02  0.41800000000E+01 0.  1.
        -11    1    1    2    0    0  0.22224644291E+02 -0.36181674005E+01 -0.77863922713E+02  0.81054404010E+02  0.00000000000E+00 0. -1.
         11    1    1    2    0    0  0.87456060577E+01 -0.67138925473E+01  0.26794041115E+02  0.28973826425E+02  0.00000000000E+00 0.  1.
</event>
<event>
 7    1  0.8653652E-006  0.1436295E+03  0.7561462E-02  0.1208527E+00
          2   -1    0    0  501    0  0.00000000000E+00  0.00000000000E+00  0.10767700338E+04  0.10767700338E+04  0.00000000000E+00 0. -1.
         -2   -1    0    0    0  501 -0.00000000000E+00 -0.00000000000E+00 -0.22139739798E+02  0.22139739798E+02  0.00000000000E+00 0.  1.
         23    2    1    2    0    0 -0.80409812342E+02  0.68836602776E+02  0.48581012348E+03  0.51270023878E+03  0.12508334404E+03 0.  0.
          5    1    3    3  502    0 -0.90647482476E+02  0.89818972849E+02  0.30949533547E+03  0.33479732532E+03  0.41800000000E+01 0.  1.
         -5    1    3    3    0  502  0.10237670134E+02 -0.20982370073E+02  0.17631478801E+03  0.17790291345E+03  0.41800000000E+01 0.  1.
        -11    1    1    2    0    0  0.98504950962E+02 -0.62643091207E+02  0.53267195587E+03  0.54531348306E+03  0.00000000000E+00 0. -1.
         11    1    1    2    0    0 -0.18095138619E+02 -0.61935115684E+01  0.36148214629E+02  0.40896051742E+02  0.00000000000E+00 0.  1.
</event>
<event>
 7    1  0.8653652E-006  0.1133236E+03  0.7561462E-02  0.1254536E+00
         -1   -1    0    0    0  501 -0.00000000000E+00  0.00000000000E+00  0.92647983964E+02  0.92647983964E+02  0.00000000000E+00 0.  1.
          1   -1    0    0  501    0  0.00000000000E+00 -0.00000000000E+00 -0.19331315941E+03  0.19331315941E+03  0.00000000000E+00 0. -1.
         23    2    1    2    0    0 -0.76660632870E+02  0.24247915549E+01 -0.56314054906E+02  0.15716826877E+03  0.12509140530E+03 0.  0.
          5    1    3    3  502    0 -0.34257162203E+02 -0.56711587846E+02 -0.51683810692E+02  0.84133501329E+02  0.41800000000E+01 0. -1.
         -5    1    3    3    0  502 -0.42403470666E+02  0.59136379401E+02 -0.46302442144E+01  0.73034767438E+02  0.41800000000E+01 0. -1.
        -11    1    1    2    0    0  0.51373866570E+02  0.18445875499E+02 -0.68850725580E+02  0.87863228385E+02  0.00000000000E+00 0. -1.
         11    1    1    2    0    0  0.25286766299E+02 -0.20870667054E+02  0.24499605038E+02  0.40929646226E+02  0.00000000000E+00 0.  1.
</event>
<event>
 7    1  0.8653652E-006  0.8411368E+02  0.7561462E-02  0.1317767E+00
          2   -1    0    0  501    0  0.00000000000E+00  0.00000000000E+00  0.71779817133E+03  0.71779817133E+03  0.00000000000E+00 0. -1.
         -2   -1    0    0    0  501 -0.00000000000E+00 -0.00000000000E+00 -0.23130611816E+02  0.23130611816E+02  0.00000000000E+00 0.  1.
         23    2    1    2    0    0  0.29715486886E+02 -0.61054707057E+02  0.35926309510E+03  0.38642978673E+03  0.12508925278E+03 0.  0.
          5    1    3    3  502    0 -0.28125776294E+01 -0.25285922689E+02  0.19720830832E+01  0.25858267359E+02  0.41800000000E+01 0. -1.
         -5    1    3    3    0  502  0.32528064516E+02 -0.35768784369E+02  0.35729101202E+03  0.36057151937E+03  0.41800000000E+01 0. -1.
        -11    1    1    2    0    0  0.11232983698E+02  0.50355782532E+02  0.28034348054E+03  0.28505148980E+03  0.00000000000E+00 0. -1.
         11    1    1    2    0    0 -0.40948470584E+02  0.10698924526E+02  0.55060983875E+02  0.69447506611E+02  0.00000000000E+00 0.  1.
</event>
<event>
 7    1  0.8653652E-006  0.1149068E+03  0.7561462E-02  0.1251744E+00
          2   -1    0    0  501    0  0.00000000000E+00  0.00000000000E+00  0.79811928013E+02  0.79811928013E+02  0.00000000000E+00 0. -1.
         -2   -1    0    0    0  501 -0.00000000000E+00 -0.00000000000E+00 -0.16829436706E+03  0.16829436706E+03  0.00000000000E+00 0.  1.
         23    2    1    2    0    0 -0.21562898971E+02  0.31365780322E+02 -0.65522602591E+02  0.14622511780E+03  0.12505919733E+03 0.  0.
          5    1    3    3  502    0 -0.58194566331E+02 -0.24788508675E+02 -0.28256958322E+02  0.69404652628E+02  0.41800000000E+01 0. -1.
         -5    1    3    3    0  502  0.36631667360E+02  0.56154288997E+02 -0.37265644269E+02  0.76820465171E+02  0.41800000000E+01 0. -1.
        -11    1    1    2    0    0  0.31415676139E+02  0.26160204065E+02 -0.85818804972E+01  0.41772594567E+02  0.00000000000E+00 0. -1.
         11    1    1    2    0    0 -0.98527771681E+01 -0.57525984387E+02 -0.14377955962E+02  0.60108582709E+02  0.00000000000E+00 0.  1.
</event>
<event>
 7    1  0.1905435E-005  0.1882978E+03  0.7561462E-02  0.1160006E+00
         -3   -1    0    0    0  501 -0.00000000000E+00  0.00000000000E+00  0.39019443812E+02  0.39019443812E+02  0.00000000000E+00 0.  1.
          3   -1    0    0  501    0  0.00000000000E+00 -0.00000000000E+00 -0.11428608630E+04  0.11428608630E+04  0.00000000000E+00 0. -1.
         23    2    1    2    0    0  0.12095931485E+03  0.11020275415E+03 -0.36523681048E+03  0.41931072005E+03  0.12509096431E+03 0.  0.
          5    1    3    3  502    0  0.13345888075E+03  0.77968668764E+02 -0.21338350439E+03  0.26351542366E+03  0.41800000000E+01 0.  1.
         -5    1    3    3    0  502 -0.12499565904E+02  0.32234085389E+02 -0.15185330608E+03  0.15579529639E+03  0.41800000000E+01 0.  1.
        -11    1    1    2    0    0 -0.11137377971E+02 -0.68936458534E+02 -0.21806092273E+03  0.22896908640E+03  0.00000000000E+00 0. -1.
         11    1    1    2    0    0 -0.10982193688E+03 -0.41266295619E+02 -0.52054368594E+03  0.53360050032E+03  0.00000000000E+00 0.  1.
</event>
<event>
 7    1  0.8653652E-006  0.1863925E+03  0.7561462E-02  0.1161756E+00
         -2   -1    0    0    0  501 -0.00000000000E+00  0.00000000000E+00  0.15976938558E+02  0.15976938558E+02  0.00000000000E+00 0.  1.
          2   -1    0    0  501    0  0.00000000000E+00 -0.00000000000E+00 -0.23708592929E+04  0.23708592929E+04  0.00000000000E+00 0. -1.
         23    2    1    2    0    0 -0.13286178225E+03  0.90051950653E+02 -0.13785594100E+04  0.13934966557E+04  0.12508107657E+03 0.  0.
          5    1    3    3  502    0 -0.51954391429E+02  0.95256322828E+02 -0.52661842102E+03  0.53769643814E+03  0.41800000000E+01 0. -1.
         -5    1    3    3    0  502 -0.80907390825E+02 -0.52043721744E+01 -0.85194098897E+03  0.85580021761E+03  0.41800000000E+01 0. -1.
        -11    1    1    2    0    0  0.24404418943E+02 -0.68128634624E+02 -0.39832634048E+03  0.40484683529E+03  0.00000000000E+00 0. -1.
         11    1    1    2    0    0  0.10845736331E+03 -0.21923316029E+02 -0.57799660384E+03  0.58849274039E+03  0.00000000000E+00 0.  1.
</event>
<event>
 7    1  0.8653652E-006  0.1277147E+03  0.7561462E-02  0.1230887E+00
          1   -1    0    0  501    0  0.00000000000E+00  0.00000000000E+00  0.88646472609E+02  0.88646472609E+02  0.00000000000E+00 0. -1.
         -1   -1    0    0    0  501 -0.00000000000E+00 -0.00000000000E+00 -0.33926026413E+03  0.33926026413E+03  0.00000000000E+00 0.  1.
         23    2    1    2    0    0  0.99828050268E+02 -0.65327150035E+02 -0.21696201982E+03  0.27740333528E+03  0.12508723446E+03 0.  0.
          5    1    3    3  502    0  0.32813180474E+02 -0.32959333586E+01  0.83317811812E+01  0.34270380318E+02  0.41800000000E+01 0.  1.
         -5    1    3    3    0  502  0.67014869794E+02 -0.62031216676E+02 -0.22529380101E+03  0.24313295496E+03  0.41800000000E+01 0.  1.
        -11    1    1    2    0    0  0.25365757615E+01  0.17684744521E+02  0.18862246239E+02  0.25980160480E+02  0.00000000000E+00 0. -1.
         11    1    1    2    0    0 -0.10236462603E+03  0.47642405514E+02 -0.52514017939E+02  0.12452324098E+03  0.00000000000E+00 0.  1.
</event>
<event>
 7    1  0.8653652E-006  0.1083406E+03  0.7561462E-02  0.1263674E+00
          2   -1    0    0  501    0  0.00000000000E+00  0.00000000000E+00  0.19731066965E+03  0.19731066965E+03  0.00000000000E+00 0. -1.
         -2   -1    0    0    0  501 -0.00000000000E+00 -0.00000000000E+00 -0.62960785207E+02  0.62960785207E+02  0.00000000000E+00 0.  1.
         23    2    1    2    0    0  0.88876546468E+01 -0.38462779879E+02  0.67494336415E+02  0.14751614686E+03  0.12508857780E+03 0.  0.
          5    1    3    3  502    0  0.63371664637E+02 -0.31408908408E+02  0.17186395713E+02  0.72906323483E+02  0.41800000000E+01 0. -1.
         -5    1    3    3    0  502 -0.54484009990E+02 -0.70538714709E+01  0.50307940702E+02  0.74609823381E+02  0.41800000000E+01 0. -1.
        -11    1    1    2    0    0  0.27154697778E+02  0.46459408246E+02  0.37546446068E+02  0.65616993518E+02  0.00000000000E+00 0.  1.
         11    1    1    2    0    0 -0.36042352425E+02 -0.79966283677E+01  0.29309101956E+02  0.47138314470E+02  0.00000000000E+00 0. -1.
</event>
<event>
 7    1  0.8653652E-006  0.8860803E+02  0.7561462E-02  0.1306258E+00
          2   -1    0    0  501    0  0.00000000000E+00  0.00000000000E+00  0.41473779457E+02  0.41473779457E+02  0.00000000000E+00 0.  1.
         -2   -1    0    0    0  501 -0.00000000000E+00 -0.00000000000E+00 -0.29948683573E+03  0.29948683573E+03  0.00000000000E+00 0. -1.
         23    2    1    2    0    0 -0.37311314629E+01  0.16091240428E+02 -0.17388241994E+03  0.21483674934E+03  0.12508750354E+03 0.  0.
          5    1    3    3  502    0 -0.46953764927E+02 -0.28081497146E+02 -0.12296843902E+03  0.13465487707E+03  0.41800000000E+01 0.  1.
         -5    1    3    3    0  502  0.43222633464E+02  0.44172737574E+02 -0.50913980918E+02  0.80181872273E+02  0.41800000000E+01 0.  1.
        -11    1    1    2    0    0 -0.16501178833E+01  0.21935716374E+02 -0.84906892116E+02  0.87710198214E+02  0.00000000000E+00 0. -1.
         11    1    1    2    0    0  0.53812493462E+01 -0.38026956801E+02  0.77625578077E+00  0.38413667635E+02  0.00000000000E+00 0.  1.
</event>
<event>
 7    1  0.8653652E-006  0.1019852E+03  0.7561462E-02  0.1276176E+00
          2   -1    0    0  501    0  0.00000000000E+00  0.00000000000E+00  0.32169892022E+02  0.32169892022E+02  0.00000000000E+00 0. -1.
         -2   -1    0    0    0  501 -0.00000000000E+00 -0.00000000000E+00 -0.41734808205E+03  0.41734808205E+03  0.00000000000E+00 0.  1.
         23    2    1    2    0    0 -0.30566398309E+02  0.24930283845E+02 -0.24808739415E+03  0.28062462177E+03  0.12508796684E+03 0.  0.
          5    1    3    3  502    0 -0.77609230409E+01  0.68947980334E+02 -0.19876663972E+03  0.21056995366E+03  0.41800000000E+01 0. -1.
         -5    1    3    3    0  502 -0.22805475269E+02 -0.44017696489E+02 -0.49320754431E+02  0.70054668111E+02  0.41800000000E+01 0. -1.
        -11    1    1    2    0    0  0.46688509726E+02  0.86293073750E+01 -0.31621760287E+02  0.57045750147E+02  0.00000000000E+00 0. -1.
         11    1    1    2    0    0 -0.16122111417E+02 -0.33559591220E+02 -0.10546903559E+03  0.11184760215E+03  0.00000000000E+00 0.  1.
</event>
<event>
 7    1  0.8653652E-006  0.1967196E+03  0.7561462E-02  0.1152537E+00
         -2   -1    0    0    0  501 -0.00000000000E+00  0.00000000000E+00  0.10634750584E+03  0.10634750584E+03  0.00000000000E+00 0.  1.
          2   -1    0    0  501    0  0.00000000000E+00 -0.00000000000E+00 -0.41320132620E+03  0.41320132620E+03  0.00000000000E+00 0. -1.
         23    2    1    2    0    0 -0.16243694718E+03 -0.40008269626E+02 -0.80989090860E+02  0.22404010324E+03  0.12509321155E+03 0.  0.
          5    1    3    3  502    0 -0.10081245878E+03 -0.83870532048E+02 -0.36505139266E+02  0.13618926384E+03  0.41800000000E+01 0. -1.
         -5    1    3    3    0  502 -0.61624488391E+02  0.43862262421E+02 -0.44483951593E+02  0.87850839402E+02  0.41800000000E+01 0. -1.
        -11    1    1    2    0    0  0.86717418338E+02 -0.21017025670E+02 -0.77911958685E+02  0.11845631818E+03  0.00000000000E+00 0. -1.
         11    1    1    2    0    0  0.75719528837E+02  0.61025295296E+02 -0.14795277082E+03  0.17705241062E+03  0.00000000000E+00 0.  1.
</event>
<event>
 7    1  0.8653652E-006  0.1141311E+03  0.7561462E-02  0.1253106E+00
         -4   -1    0    0    0  501 -0.00000000000E+00  0.00000000000E+00  0.16148144587E+03  0.16148144587E+03  0.00000000000E+00 0.  1.
          4   -1    0    0  501    0  0.00000000000E+00 -0.00000000000E+00 -0.84825522062E+02  0.84825522062E+02  0.00000000000E+00 0. -1.
         23    2    1    2    0    0  0.43137586446E+02  0.50654981499E+01  0.65081619270E+02  0.14755006796E+03  0.12509554249E+03 0.  0.
          5    1    3    3  502    0  0.33035873214E+02  0.63075720532E+02  0.48433781071E+02  0.86216117916E+02  0.41800000000E+01 0.  1.
         -5    1    3    3    0  502  0.10101713233E+02 -0.58010222383E+02  0.16647838199E+02  0.61333950043E+02  0.41800000000E+01 0.  1.
        -11    1    1    2    0    0 -0.63981569254E+02 -0.25349419539E+02  0.10796135855E+02  0.69661975457E+02  0.00000000000E+00 0.  1.
         11    1    1    2    0    0  0.20843982807E+02  0.20283921390E+02  0.77816868423E+00  0.29094924518E+02  0.00000000000E+00 0. -1.
</event>
<event>
 7    1  0.8653652E-006  0.1490664E+03  0.7561462E-02  0.1201625E+00
         -3   -1    0    0    0  501 -0.00000000000E+00  0.00000000000E+00  0.74374394474E+03  0.74374394474E+03  0.00000000000E+00 0.  1.
          3   -1    0    0  501    0  0.00000000000E+00 -0.00000000000E+00 -0.37678045807E+02  0.37678045807E+02  0.00000000000E+00 0. -1.
         23    2    1    2    0    0 -0.77782033556E+02 -0.10726594010E+03  0.39451269717E+03  0.43456088126E+03  0.12508742799E+03 0.  0.
          5    1    3    3  502    0 -0.16512579388E+02 -0.78917859445E+02  0.33460148295E+03  0.34420389105E+03  0.41800000000E+01 0.  1.
         -5    1    3    3    0  502 -0.61269454167E+02 -0.28348080653E+02  0.59911214218E+02  0.90356990210E+02  0.41800000000E+01 0.  1.
        -11    1    1    2    0    0  0.85754108257E+02  0.67311101225E+02  0.19517389165E+03  0.22355625559E+03  0.00000000000E+00 0. -1.
         11    1    1    2    0    0 -0.79720747014E+01  0.39954838873E+02  0.11637931011E+03  0.12330485371E+03  0.00000000000E+00 0.  1.
</event>
<event>
 7    1  0.8653652E-006  0.1147836E+03  0.7561462E-02  0.1251959E+00
         -1   -1    0    0    0  501 -0.00000000000E+00  0.00000000000E+00  0.58379617437E+02  0.58379617437E+02  0.00000000000E+00 0.  1.
          1   -1    0    0  501    0  0.00000000000E+00 -0.00000000000E+00 -0.63171961082E+03  0.63171961082E+03  0.00000000000E+00 0. -1.
         23    2    1    2    0    0  0.41559817927E+02 -0.68554282753E+02 -0.45413596908E+02  0.14852518307E+03  0.11649217601E+03 0.  0.
          5    1    3    3  502    0 -0.23613557347E+02  0.47762483530E+01 -0.43978517616E+02  0.50318933322E+02  0.41800000000E+01 0. -1.
         -5    1    3    3    0  502  0.65173375274E+02 -0.73330531106E+02 -0.14350792924E+01  0.98206249748E+02  0.41800000000E+01 0.  1.
        -11    1    1    2    0    0 -0.25124361469E+02 -0.97196646252E+01 -0.48122421491E+02  0.55149550041E+02  0.00000000000E+00 0.  1.
         11    1    1    2    0    0 -0.16435456458E+02  0.78273947379E+02 -0.47980397499E+03  0.48642449515E+03  0.00000000000E+00 0. -1.
</event>
<event>
 7    1  0.8653652E-006  0.2705318E+03  0.7561462E-02  0.1100976E+00
         -2   -1    0    0    0  501 -0.00000000000E+00  0.00000000000E+00  0.77137652747E+02  0.77137652747E+02  0.00000000000E+00 0.  1.
          2   -1    0    0  501    0  0.00000000000E+00 -0.00000000000E+00 -0.10243937312E+04  0.10243937312E+04  0.00000000000E+00 0. -1.
         23    2    1    2    0    0  0.24965836867E+03 -0.68898627501E+02 -0.46630559214E+03  0.54787236680E+03  0.12508758181E+03 0.  0.
          5    1    3    3  502    0  0.34407560613E+02 -0.52382453135E+02 -0.17004735544E+03  0.18127707278E+03  0.41800000000E+01 0.  1.
         -5    1    3    3    0  502  0.21525080806E+03 -0.16516174366E+02 -0.29625823670E+03  0.36659529402E+03  0.41800000000E+01 0.  1.
        -11    1    1    2    0    0 -0.86980286066E+02  0.36627604750E+01 -0.89991164545E+02  0.12520940729E+03  0.00000000000E+00 0.  1.
         11    1    1    2    0    0 -0.16267808260E+03  0.65235867026E+02 -0.39095932174E+03  0.42844960983E+03  0.00000000000E+00 0. -1.
</event>
<event>
 7    1  0.8653652E-006  0.1105473E+03  0.7561462E-02  0.1259560E+00
         -2   -1    0    0    0  501 -0.00000000000E+00  0.00000000000E+00  0.70537897653E+02  0.70537897653E+02  0.00000000000E+00 0.  1.
          2   -1    0    0  501    0  0.00000000000E+00 -0.00000000000E+00 -0.32874371648E+03  0.32874371648E+03  0.00000000000E+00 0. -1.
         23    2    1    2    0    0 -0.93366852821E+02  0.44111406095E+02 -0.10325920887E+03  0.19228275927E+03  0.12508800879E+03 0.  0.
          5    1    3    3  502    0 -0.97628621872E+01  0.13587665798E+02 -0.10171791411E+03  0.10316949448E+03  0.41800000000E+01 0. -1.
         -5    1    3    3    0  502 -0.83603990634E+02  0.30523740296E+02 -0.15412947577E+01  0.89113264788E+02  0.41800000000E+01 0. -1.
        -11    1    1    2    0    0  0.20181671252E+02 -0.35795602567E+02 -0.69364124992E+01  0.41674198685E+02  0.00000000000E+00 0.  1.
         11    1    1    2    0    0  0.73185181570E+02 -0.83158035278E+01 -0.14801019745E+03  0.16532465618E+03  0.00000000000E+00 0. -1.
</event>
<event>
 7    1  0.8653652E-006  0.8063159E+02  0.7561462E-02  0.1327269E+00
         -2   -1    0    0    0  501 -0.00000000000E+00  0.00000000000E+00  0.34709413618E+02  0.34709413618E+02  0.00000000000E+00 0. -1.
          2   -1    0    0  501    0  0.00000000000E+00 -0.00000000000E+00 -0.41946563437E+03  0.41946563437E+03  0.00000000000E+00 0.  1.
         23    2    1    2    0    0 -0.22403044284E+02  0.34730232333E+01 -0.12741004024E+03  0.17998632914E+03  0.12509117490E+03 0.  0.
          5    1    3    3  502    0 -0.27738304355E+02  0.31937584841E+02  0.64246549669E+01  0.42990364565E+02  0.41800000000E+01 0.  1.
         -5    1    3    3    0  502  0.53352600715E+01 -0.28464561608E+02 -0.13383469521E+03  0.13699596458E+03  0.41800000000E+01 0.  1.
        -11    1    1    2    0    0 -0.24356325703E+02 -0.27656263951E+02 -0.15223202336E+03  0.15662914311E+03  0.00000000000E+00 0.  1.
         11    1    1    2    0    0  0.46759369986E+02  0.24183240718E+02 -0.10511415715E+03  0.11755957573E+03  0.00000000000E+00 0. -1.
</event>
<event>
 7    1  0.8653652E-006  0.6089090E+02  0.7561462E-02  0.1394131E+00
         -1   -1    0    0    0  501 -0.00000000000E+00  0.00000000000E+00  0.17165276782E+03  0.17165276782E+03  0.00000000000E+00 0.  1.
          1   -1    0    0  501    0  0.00000000000E+00 -0.00000000000E+00 -0.83397355481E+02  0.83397355481E+02  0.00000000000E+00 0. -1.
         23    2    1    2    0    0  0.14083474687E+02  0.57470098098E+01  0.10771951927E+03  0.16576111811E+03  0.12506750602E+03 0.  0.
          5    1    3    3  502    0  0.66642049067E+01  0.18044320209E+02 -0.25214429926E+02  0.31988263400E+02  0.41800000000E+01 0.  1.
         -5    1    3    3    0  502  0.74192697804E+01 -0.12297310399E+02  0.13293394920E+03  0.13377285471E+03  0.41800000000E+01 0.  1.
        -11    1    1    2    0    0 -0.33693380015E+01  0.40006437780E+02 -0.93014639788E+01  0.41211463631E+02  0.00000000000E+00 0. -1.
         11    1    1    2    0    0 -0.10714136686E+02 -0.45753447590E+02 -0.10162642952E+02  0.48077541566E+02  0.00000000000E+00 0.  1.
</event>
<event>
 7    1  0.8653652E-006  0.1166255E+03  0.7561462E-02  0.1248770E+00
         -2   -1    0    0    0  501 -0.00000000000E+00  0.00000000000E+00  0.44157873960E+02  0.44157873960E+02  0.00000000000E+00 0.  1.
          2   -1    0    0  501    0  0.00000000000E+00 -0.00000000000E+00 -0.38758436572E+03  0.38758436572E+03  0.00000000000E+00 0. -1.
         23    2    1    2    0    0  0.40878370388E+02  0.29754846756E+02 -0.96280826429E+02  0.16575352495E+03  0.12509133234E+03 0.  0.
          5    1    3    3  502    0 -0.44668665667E+02  0.20732136296E+01 -0.31992925509E+02  0.55141704633E+02  0.41800000000E+01 0. -1.
         -5    1    3    3    0  502  0.85547036054E+02  0.27681633127E+02 -0.64287900920E+02  0.11061182032E+03  0.41800000000E+01 0. -1.
        -11    1    1    2    0    0  0.37280833009E+01  0.26372103026E+02 -0.65985760047E+02  0.71158323140E+02  0.00000000000E+00 0.  1.
         11    1    1    2    0    0 -0.44606453688E+02 -0.56126949782E+02 -0.18115990528E+03  0.19483039158E+03  0.00000000000E+00 0. -1.
</event>
<event>
 7    1  0.8653652E-006  0.1086675E+03  0.7561462E-02  0.1263057E+00
          2   -1    0    0  501    0  0.00000000000E+00  0.00000000000E+00  0.30269496928E+03  0.30269496928E+03  0.00000000000E+00 0. -1.
         -2   -1    0    0    0  501 -0.00000000000E+00 -0.00000000000E+00 -0.10252971275E+03  0.10252971275E+03  0.00000000000E+00 0.  1.
         23    2    1    2    0    0  0.28065132398E+02  0.23433991217E+02 -0.47860579772E+02  0.13883703176E+03  0.12509309609E+03 0.  0.
          5    1    3    3  502    0 -0.17934566900E+02 -0.41061223791E+02  0.21621061716E+01  0.45053522528E+02  0.41800000000E+01 0.  1.
         -5    1    3    3    0  502  0.45999699298E+02  0.64495215008E+02 -0.50022685944E+02  0.93783509230E+02  0.41800000000E+01 0.  1.
        -11    1    1    2    0    0 -0.49790885993E+02  0.12205510544E+02  0.97171499514E+02  0.10986540463E+03  0.00000000000E+00 0.  1.
         11    1    1    2    0    0  0.21725753596E+02 -0.35639501760E+02  0.15085433679E+03  0.15652224565E+03  0.00000000000E+00 0. -1.
</event>
<event>
 7    1  0.8653652E-006  0.1107345E+03  0.7561462E-02  0.1259216E+00
          1   -1    0    0  501    0  0.00000000000E+00  0.00000000000E+00  0.27941518956E+03  0.27941518956E+03  0.00000000000E+00 0. -1.
         -1   -1    0    0    0  501 -0.00000000000E+00 -0.00000000000E+00 -0.67676902186E+02  0.67676902186E+02  0.00000000000E+00 0.  1.
         23    2    1    2    0    0  0.81852674942E+02 -0.87110188597E+01  0.11495206287E+03  0.18878803916E+03  0.12510477499E+03 0.  0.
          5    1    3    3  502    0  0.72394658578E+02 -0.38622786714E+02  0.12996697082E+03  0.15375822628E+03  0.41800000000E+01 0.  1.
         -5    1    3    3    0  502  0.94580163635E+01  0.29911767855E+02 -0.15014907947E+02  0.35029812880E+02  0.41800000000E+01 0.  1.
        -11    1    1    2    0    0 -0.90942484234E+02 -0.51466364253E+01  0.40603500627E+02  0.99727967834E+02  0.00000000000E+00 0.  1.
         11    1    1    2    0    0  0.90898092927E+01  0.13857655285E+02  0.56182723882E+02  0.58576084760E+02  0.00000000000E+00 0. -1.
</event>
<event>
 7    1  0.8653652E-006  0.1497320E+03  0.7561462E-02  0.1200803E+00
          1   -1    0    0  501    0  0.00000000000E+00  0.00000000000E+00  0.16912776142E+03  0.16912776142E+03  0.00000000000E+00 0. -1.
         -1   -1    0    0    0  501 -0.00000000000E+00 -0.00000000000E+00 -0.18488139173E+03  0.18488139173E+03  0.00000000000E+00 0.  1.
         23    2    1    2    0    0 -0.56267631680E+02 -0.12758387725E+03 -0.14021341747E+01  0.18733229769E+03  0.12509089363E+03 0.  0.
          5    1    3    3  502    0 -0.25641938990E+02 -0.12200922918E+03 -0.45852781535E+02  0.13290489462E+03  0.41800000000E+01 0.  1.
         -5    1    3    3    0  502 -0.30625692689E+02 -0.55746480647E+01  0.44450647360E+02  0.54427403066E+02  0.41800000000E+01 0.  1.
        -11    1    1    2    0    0  0.27299193796E+02  0.26080753738E+02 -0.43078386567E+02  0.57281751778E+02  0.00000000000E+00 0.  1.
         11    1    1    2    0    0  0.28968437884E+02  0.10150312351E+03  0.28726890441E+02  0.10939510368E+03  0.00000000000E+00 0. -1.
</event>
<event>
 7    1  0.8653652E-006  0.9479906E+02  0.7561462E-02  0.1291629E+00
          1   -1    0    0  501    0  0.00000000000E+00  0.00000000000E+00  0.67927227178E+02  0.67927227178E+02  0.00000000000E+00 0. -1.
         -1   -1    0    0    0  501 -0.00000000000E+00 -0.00000000000E+00 -0.19032012049E+03  0.19032012049E+03  0.00000000000E+00 0.  1.
         23    2    1    2    0    0  0.25322590440E+02 -0.16732333949E+02 -0.83345516513E+02  0.15334708716E+03  0.12509056492E+03 0.  0.
          5    1    3    3  502    0 -0.34912870203E+02  0.24660843574E+01 -0.82794704942E+02  0.89985696887E+02  0.41800000000E+01 0. -1.
         -5    1    3    3    0  502  0.60235460643E+02 -0.19198418306E+02 -0.55081157162E+00  0.63361390276E+02  0.41800000000E+01 0. -1.
        -11    1    1    2    0    0 -0.10422944911E+02 -0.35331414585E+02 -0.34643061783E+02  0.50567661276E+02  0.00000000000E+00 0.  1.
         11    1    1    2    0    0 -0.14899645529E+02  0.52063748534E+02 -0.44043150153E+01  0.54332599230E+02  0.00000000000E+00 0. -1.
</event>
<event>
 6    1  0.8653652E-006  0.1301170E+03  0.7561462E-02  0.1227282E+00
          1   -1    0    0  501    0  0.00000000000E+00  0.00000000000E+00  0.15158889308E+03  0.15158889308E+03  0.00000000000E+00 0. -1.
         -1   -1    0    0    0  501 -0.00000000000E+00 -0.00000000000E+00 -0.14499110707E+03  0.14499110707E+03  0.00000000000E+00 0.  1.
          5    1    1    2  502    0  0.17357596833E+02 -0.72386688588E+02 -0.18532881072E+02  0.76824858824E+02  0.41800000000E+01 0. -1.
         -5    1    1    2    0  502 -0.63691512891E+02  0.81842285622E+02 -0.23598983619E+02  0.10643849378E+03  0.41800000000E+01 0.  1.
        -11    1    1    2    0    0  0.13821101987E+02  0.28642741653E+02  0.54294204479E+02  0.62922890506E+02  0.00000000000E+00 0. -1.
         11    1    1    2    0    0  0.32512814070E+02 -0.38098338688E+02 -0.55645537746E+01  0.50393757037E+02  0.00000000000E+00 0.  1.
</event>
<event>
 7    1  0.8653652E-006  0.1320667E+03  0.7561462E-02  0.1224421E+00
         -1   -1    0    0    0  501 -0.00000000000E+00  0.00000000000E+00  0.24854737735E+03  0.24854737735E+03  0.00000000000E+00 0. -1.
          1   -1    0    0  501    0  0.00000000000E+00 -0.00000000000E+00 -0.90604717648E+02  0.90604717648E+02  0.00000000000E+00 0.  1.
         23    2    1    2    0    0  0.57262046346E+01 -0.10220722769E+03  0.11581419343E+03  0.19884659527E+03  0.12509170332E+03 0.  0.
          5    1    3    3  502    0  0.34451404925E+02  0.16706126465E+02  0.35987287713E+02  0.52711964862E+02  0.41800000000E+01 0.  1.
         -5    1    3    3    0  502 -0.28725200290E+02 -0.11891335416E+03  0.79826905721E+02  0.14613463041E+03  0.41800000000E+01 0.  1.
        -11    1    1    2    0    0  0.23542282966E+01  0.68865224925E+02 -0.17875497662E+02  0.71186340062E+02  0.00000000000E+00 0.  1.
         11    1    1    2    0    0 -0.80804329311E+01  0.33342002768E+02  0.60003963935E+02  0.69119159665E+02  0.00000000000E+00 0. -1.
</event>
<event>
 7    1  0.8653652E-006  0.1585352E+03  0.7561462E-02  0.1190360E+00
         -2   -1    0    0    0  501 -0.00000000000E+00  0.00000000000E+00  0.79527247886E+02  0.79527247886E+02  0.00000000000E+00 0. -1.
          2   -1    0    0  501    0  0.00000000000E+00 -0.00000000000E+00 -0.44958067895E+03  0.44958067895E+03  0.00000000000E+00 0.  1.
         23    2    1    2    0    0  0.75964538115E+02  0.11487851429E+03 -0.10632304703E+03  0.21429089915E+03  0.12509322537E+03 0.  0.
          5    1    3    3  502    0  0.77436728628E+02  0.13663409282E+03 -0.10999689544E+03  0.19178663058E+03  0.41800000000E+01 0.  1.
         -5    1    3    3    0  502 -0.14721905130E+01 -0.21755578529E+02  0.36738484066E+01  0.22504268576E+02  0.41800000000E+01 0.  1.
        -11    1    1    2    0    0 -0.59923837945E+02 -0.88192488952E+02 -0.93656645320E+02  0.14191669625E+03  0.00000000000E+00 0. -1.
         11    1    1    2    0    0 -0.16040700170E+02 -0.26686025343E+02 -0.17007373871E+03  0.17290033143E+03  0.00000000000E+00 0.  1.
</event>
<event>
 7    1  0.8653652E-006  0.1035014E+03  0.7561462E-02  0.1273101E+00
         -3   -1    0    0    0  501 -0.00000000000E+00  0.00000000000E+00  0.68726297545E+02  0.68726297545E+02  0.00000000000E+00 0.  1.
          3   -1    0    0  501    0  0.00000000000E+00 -0.00000000000E+00 -0.30859170837E+03  0.30859170837E+03  0.00000000000E+00 0. -1.
         23    2    1    2    0    0 -0.45484228396E+02  0.58560262054E+02 -0.49531375891E+02  0.15362170852E+03  0.12509257694E+03 0.  0.
          5    1    3    3  502    0 -0.55254556594E+02  0.66177424389E+02 -0.81730561121E+02  0.11886914883E+03  0.41800000000E+01 0. -1.
         -5    1    3    3    0  502  0.97703281977E+01 -0.76171623359E+01  0.32199185230E+02  0.34752559684E+02  0.41800000000E+01 0. -1.
        -11    1    1    2    0    0 -0.23368769078E+01  0.17562437725E+02 -0.61673177883E+01  0.18759957922E+02  0.00000000000E+00 0.  1.
         11    1    1    2    0    0  0.47821105304E+02 -0.76122699778E+02 -0.18416671715E+03  0.20493633948E+03  0.00000000000E+00 0. -1.
</event>
<event>
 7    1  0.8653652E-006  0.1222149E+03  0.7561462E-02  0.1239487E+00
         -2   -1    0    0    0  501 -0.00000000000E+00  0.00000000000E+00  0.62248421490E+02  0.62248421490E+02  0.00000000000E+00 0.  1.
          2   -1    0    0  501    0  0.00000000000E+00 -0.00000000000E+00 -0.38643607280E+03  0.38643607280E+03  0.00000000000E+00 0. -1.
         23    2    1    2    0    0  0.34088346813E+02  0.83017471400E+02 -0.26733778481E+03  0.30849762462E+03  0.12508947702E+03 0.  0.
          5    1    3    3  502    0 -0.35091596043E+02  0.31092439160E+02 -0.17782805136E+03  0.18395229854E+03  0.41800000000E+01 0.  1.
         -5    1    3    3    0  502  0.69179942856E+02  0.51925032240E+02 -0.89509733449E+02  0.12454532608E+03  0.41800000000E+01 0.  1.
        -11    1    1    2    0    0  0.14741364926E+02 -0.49204711412E+02  0.82948182008E+01  0.52030908833E+02  0.00000000000E+00 0.  1.
         11    1    1    2    0    0 -0.48829711739E+02 -0.33812759988E+02 -0.65144684698E+02  0.88155960836E+02  0.00000000000E+00 0. -1.
</event>
<event>
 7    1  0.8653652E-006  0.9839527E+02  0.7561462E-02  0.1283707E+00
         -4   -1    0    0    0  501 -0.00000000000E+00  0.00000000000E+00  0.10922691313E+03  0.10922691313E+03  0.00000000000E+00 0.  1.
          4   -1    0    0  501    0  0.00000000000E+00 -0.00000000000E+00 -0.11236498748E+03  0.11236498748E+03  0.00000000000E+00 0. -1.
         23    2    1    2    0    0  0.17487969804E+02  0.17173572254E+02 -0.72606035352E+00  0.12747315801E+03  0.12509243854E+03 0.  0.
          5    1    3    3  502    0 -0.45638872771E+02  0.39376914647E+02 -0.28346011561E+00  0.60423512514E+02  0.41800000000E+01 0. -1.
         -5    1    3    3    0  502  0.63126842574E+02 -0.22203342393E+02 -0.44260023791E+00  0.67049645501E+02  0.41800000000E+01 0. -1.
        -11    1    1    2    0    0 -0.41297881992E+02 -0.25481055651E+01  0.30160898668E+02  0.51202418961E+02  0.00000000000E+00 0.  1.
         11    1    1    2    0    0  0.23809912188E+02 -0.14625466689E+02 -0.32572912666E+02  0.42916323629E+02  0.00000000000E+00 0. -1.
</event>
<event>
 6    1  0.8653652E-006  0.2616906E+03  0.7561462E-02  0.1106132E+00
         -1   -1    0    0    0  501 -0.00000000000E+00  0.00000000000E+00  0.55515255756E+03  0.55515255756E+03  0.00000000000E+00 0.  1.
          1   -1    0    0  501    0  0.00000000000E+00 -0.00000000000E+00 -0.15287958263E+03  0.15287958263E+03  0.00000000000E+00 0. -1.
          5    1    1    2  502    0  0.17774390653E+03  0.18048285863E+02  0.17056703307E+03  0.24704093204E+03  0.41800000000E+01 0. -1.
         -5    1    1    2    0  502 -0.92408555492E+02 -0.15491445779E+03  0.20909721932E+03  0.27618281968E+03  0.41800000000E+01 0.  1.
        -11    1    1    2    0    0 -0.22222077480E+02  0.14425556914E+02  0.37868242620E+02  0.46216027728E+02  0.00000000000E+00 0.  1.
         11    1    1    2    0    0 -0.63113273557E+02  0.12244061501E+03 -0.15259520094E+02  0.13859236074E+03  0.00000000000E+00 0. -1.
</event>
<event>
 7    1  0.8653652E-006  0.1027969E+03  0.7561462E-02  0.1274522E+00
         -1   -1    0    0    0  501 -0.00000000000E+00  0.00000000000E+00  0.76509410073E+02  0.76509410073E+02  0.00000000000E+00 0.  1.
          1   -1    0    0  501    0  0.00000000000E+00 -0.00000000000E+00 -0.17853627785E+03  0.17853627785E+03  0.00000000000E+00 0. -1.
         23    2    1    2    0    0 -0.18026109338E+02 -0.42689901554E+02 -0.53315168906E+02  0.14365730880E+03  0.12509015479E+03 0.  0.
          5    1    3    3  502    0  0.37216389351E+02 -0.31702265248E+02  0.18372330017E+02  0.52393779864E+02  0.41800000000E+01 0. -1.
         -5    1    3    3    0  502 -0.55242498688E+02 -0.10987636305E+02 -0.71687498923E+02  0.91263528941E+02  0.41800000000E+01 0. -1.
        -11    1    1    2    0    0  0.26668509761E+02  0.68138402843E+02 -0.33129319926E+02  0.80321872448E+02  0.00000000000E+00 0. -1.
         11    1    1    2    0    0 -0.86424004232E+01 -0.25448501289E+02 -0.15582378941E+02  0.31066506666E+02  0.00000000000E+00 0.  1.
</event>
<event>
 7    1  0.8653652E-006  0.7534581E+02  0.7561462E-02  0.1342804E+00
          3   -1    0    0  501    0  0.00000000000E+00  0.00000000000E+00  0.15161975182E+03  0.15161975182E+03  0.00000000000E+00 0. -1.
         -3   -1    0    0    0  501 -0.00000000000E+00 -0.00000000000E+00 -0.11503651250E+03  0.11503651250E+03  0.00000000000E+00 0.  1.
         23    2    1    2    0    0 -0.20425278977E+01 -0.28388604334E+02 -0.50563532959E+02  0.13789513354E+03  0.12509321410E+03 0.  0.
          5    1    3    3  502    0  0.19723509339E+02  0.67455245565E+01  0.36040346597E+02  0.41843731968E+02  0.41800000000E+01 0. -1.
         -5    1    3    3    0  502 -0.21766037236E+02 -0.35134128891E+02 -0.86603879556E+02  0.96051401572E+02  0.41800000000E+01 0. -1.
        -11    1    1    2    0    0 -0.53471816425E+01  0.57554932500E+02  0.78443089599E+02  0.97439627012E+02  0.00000000000E+00 0.  1.
         11    1    1    2    0    0  0.73897095402E+01 -0.29166328165E+02  0.87036826870E+01  0.31321503764E+02  0.00000000000E+00 0. -1.
</event>
<event>
 7    1  0.8653652E-006  0.1262010E+03  0.7561462E-02  0.1233204E+00
          1   -1    0    0  501    0  0.00000000000E+00  0.00000000000E+00  0.61221413766E+02  0.61221413766E+02  0.00000000000E+00 0. -1.
         -1   -1    0    0    0  501 -0.00000000000E+00 -0.00000000000E+00 -0.35648110502E+03  0.35648110502E+03  0.00000000000E+00 0.  1.
         23    2    1    2    0    0 -0.28206115945E+02  0.91046335552E+02 -0.20210480764E+03  0.25607293815E+03  0.12506788631E+03 0.  0.
          5    1    3    3  502    0  0.29076806175E+02 -0.15761668826E+02 -0.64859124805E+02  0.72925093980E+02  0.41800000000E+01 0. -1.
         -5    1    3    3    0  502 -0.57282922120E+02  0.10680800438E+03 -0.13724568284E+03  0.18314784417E+03  0.41800000000E+01 0. -1.
        -11    1    1    2    0    0  0.10570461023E+02 -0.90293904366E+01 -0.74373140915E+02  0.75661275613E+02  0.00000000000E+00 0.  1.
         11    1    1    2    0    0  0.17635654922E+02 -0.82016945115E+02 -0.18781742700E+02  0.85968305028E+02  0.00000000000E+00 0. -1.
</event>
<event>
 7    1  0.8653652E-006  0.1297596E+03  0.7561462E-02  0.1227813E+00
          1   -1    0    0  501    0  0.00000000000E+00  0.00000000000E+00  0.20325323880E+03  0.20325323880E+03  0.00000000000E+00 0. -1.
         -1   -1    0    0    0  501 -0.00000000000E+00 -0.00000000000E+00 -0.12400481996E+03  0.12400481996E+03  0.00000000000E+00 0.  1.
         23    2    1    2    0    0 -0.88416282237E+00 -0.10945881195E+03  0.45515677875E+01  0.16628754867E+03  0.12509523898E+03 0.  0.
          5    1    3    3  502    0  0.74333206680E+01  0.19038559878E+02  0.28426536253E+02  0.35259911822E+02  0.41800000000E+01 0.  1.
         -5    1    3    3    0  502 -0.83174834904E+01 -0.12849737183E+03 -0.23874968465E+02  0.13102763685E+03  0.41800000000E+01 0.  1.
        -11    1    1    2    0    0 -0.33366405120E+01  0.79408590031E+02 -0.92858525467E+00  0.79484084011E+02  0.00000000000E+00 0.  1.
         11    1    1    2    0    0  0.42208033344E+01  0.30050221924E+02  0.75625436306E+02  0.81486426078E+02  0.00000000000E+00 0. -1.
</event>
<event>
 7    1  0.8653652E-006  0.1025586E+03  0.7561462E-02  0.1275006E+00
          3   -1    0    0  501    0  0.00000000000E+00  0.00000000000E+00  0.23238171900E+02  0.23238171900E+02  0.00000000000E+00 0. -1.
         -3   -1    0    0    0  501 -0.00000000000E+00 -0.00000000000E+00 -0.94465583824E+03  0.94465583824E+03  0.00000000000E+00 0.  1.
         23    2    1    2    0    0 -0.20445521834E+02 -0.46718729455E+01 -0.81575048200E+03  0.82555006816E+03  0.12507685801E+03 0.  0.
          5    1    3    3  502    0 -0.26841798317E+02 -0.53945161024E+02 -0.23409383758E+03  0.24176012849E+03  0.41800000000E+01 0. -1.
         -5    1    3    3    0  502  0.63962764824E+01  0.49273288079E+02 -0.58165664442E+03  0.58378993968E+03  0.41800000000E+01 0. -1.
        -11    1    1    2    0    0 -0.30927926858E+02  0.24837381170E+02 -0.51591783005E+02  0.65077985808E+02  0.00000000000E+00 0.  1.
         11    1    1    2    0    0  0.51373448692E+02 -0.20165508225E+02 -0.54075401335E+02  0.77265956164E+02  0.00000000000E+00 0. -1.
</event>
<event>
 7    1  0.8653652E-006  0.9284527E+02  0.7561462E-02  0.1296104E+00
          1   -1    0    0  501    0  0.00000000000E+00  0.00000000000E+00  0.55994144081E+02  0.55994144081E+02  0.00000000000E+00 0. -1.
         -1   -1    0    0    0  501 -0.00000000000E+00 -0.00000000000E+00 -0.34216462778E+03  0.34216462778E+03  0.00000000000E+00 0.  1.
         23    2    1    2    0    0  0.17402422375E+02  0.42814166495E+02 -0.25836476981E+03  0.29075322817E+03  0.12509671560E+03 0.  0.
          5    1    3    3  502    0 -0.37254025925E+02  0.52161926266E+02 -0.73050939194E+02  0.97276107634E+02  0.41800000000E+01 0. -1.
         -5    1    3    3    0  502  0.54656448299E+02 -0.93477597701E+01 -0.18531383061E+03  0.19347712053E+03  0.41800000000E+01 0. -1.
        -11    1    1    2    0    0 -0.39205941889E+01 -0.50282732630E+02 -0.55944283192E+02  0.75322553604E+02  0.00000000000E+00 0.  1.
         11    1    1    2    0    0 -0.13481828186E+02  0.74685661348E+01  0.28138569295E+02  0.32082990093E+02  0.00000000000E+00 0. -1.
</event>
<event>
 7    1  0.8653652E-006  0.9768280E+02  0.7561462E-02  0.1285246E+00
         -4   -1    0    0    0  501 -0.00000000000E+00  0.00000000000E+00  0.17984347191E+03  0.17984347191E+03  0.00000000000E+00 0.  1.
          4   -1    0    0  501    0  0.00000000000E+00 -0.00000000000E+00 -0.95128479079E+02  0.95128479079E+02  0.00000000000E+00 0. -1.
         23    2    1    2    0    0 -0.35951679153E+02 -0.62359906763E+02  0.59721831079E+02  0.15619014978E+03  0.12508950626E+03 0.  0.
          5    1    3    3  502    0 -0.62757111921E+02 -0.23585394245E+02 -0.13971614868E+02  0.68610526454E+02  0.41800000000E+01 0. -1.
         -5    1    3    3    0  502  0.26805432768E+02 -0.38774512519E+02  0.73693445946E+02  0.87579623328E+02  0.41800000000E+01 0. -1.
        -11    1    1    2    0    0 -0.48266683017E+00  0.35748512104E+02 -0.30687655185E+02  0.47116040429E+02  0.00000000000E+00 0. -1.
         11    1    1    2    0    0  0.36434345983E+02  0.26611394659E+02  0.55680816934E+02  0.71665760774E+02  0.00000000000E+00 0.  1.
</event>
<event>
 7    1  0.1780857E-005  0.4789526E+03  0.7561462E-02  0.1019423E+00
         -2   -1    0    0    0  501 -0.00000000000E+00  0.00000000000E+00  0.86587130880E+02  0.86587130880E+02  0.00000000000E+00 0. -1.
          2   -1    0    0  501    0  0.00000000000E+00 -0.00000000000E+00 -0.28643589107E+04  0.28643589107E+04  0.00000000000E+00 0.  1.
         23    2    1    2    0    0 -0.12178009162E+03  0.46059491448E+03 -0.11130857565E+04  0.12172039213E+04  0.12508964229E+03 0.  0.
          5    1    3    3  502    0 -0.12959285996E+03  0.44542652675E+03 -0.11038160656E+04  0.11973414213E+04  0.41800000000E+01 0. -1.
         -5    1    3    3    0  502  0.78127683386E+01  0.15168387730E+02 -0.92696909460E+01  0.19862499985E+02  0.41800000000E+01 0. -1.
        -11    1    1    2    0    0  0.26780586254E+02 -0.10346556447E+03 -0.52045259950E+03  0.53131274326E+03  0.00000000000E+00 0.  1.
         11    1    1    2    0    0  0.94999505371E+02 -0.35712935001E+03 -0.11442334238E+04  0.12024293771E+04  0.00000000000E+00 0. -1.
</event>
<event>
 7    1  0.8653652E-006  0.7747919E+02  0.7561462E-02  0.1336361E+00
         -1   -1    0    0    0  501 -0.00000000000E+00  0.00000000000E+00  0.39483614264E+02  0.39483614264E+02  0.00000000000E+00 0.  1.
          1   -1    0    0  501    0  0.00000000000E+00 -0.00000000000E+00 -0.31488780880E+03  0.31488780880E+03  0.00000000000E+00 0. -1.
         23    2    1    2    0    0 -0.90361159216E+01  0.25139819592E+02 -0.14802179930E+03  0.19563327935E+03  0.12509302538E+03 0.  0.
          5    1    3    3  502    0 -0.13391683968E+02  0.41206175930E+02 -0.16550508882E+03  0.17113355299E+03  0.41800000000E+01 0.  1.
         -5    1    3    3    0  502  0.43555680459E+01 -0.16066356338E+02  0.17483289520E+02  0.24499726354E+02  0.41800000000E+01 0.  1.
        -11    1    1    2    0    0 -0.40702367417E+02 -0.15784298537E+02 -0.66757590577E+02  0.79764670709E+02  0.00000000000E+00 0.  1.
         11    1    1    2    0    0  0.49738483339E+02 -0.93555210552E+01 -0.60624804659E+02  0.78973473008E+02  0.00000000000E+00 0. -1.
</event>
<event>
 7    1  0.9612569E-006  0.2344277E+03  0.7561462E-02  0.1123562E+00
          3   -1    0    0  501    0  0.00000000000E+00  0.00000000000E+00  0.37882141171E+03  0.37882141171E+03  0.00000000000E+00 0. -1.
         -3   -1    0    0    0  501 -0.00000000000E+00 -0.00000000000E+00 -0.21874014343E+03  0.21874014343E+03  0.00000000000E+00 0.  1.
         23    2    1    2    0    0  0.18134742434E+03 -0.13311152287E+03 -0.65651564881E+02  0.26563721053E+03  0.12508970306E+03 0.  0.
          5    1    3    3  502    0  0.26217783207E+02 -0.26846285700E+02 -0.67730374671E+02  0.77543350877E+02  0.41800000000E+01 0.  1.
         -5    1    3    3    0  502  0.15512964113E+03 -0.10626523717E+03  0.20788097903E+01  0.18809385965E+03  0.41800000000E+01 0.  1.
        -11    1    1    2    0    0 -0.67021921541E+02  0.10617725012E+03  0.10795814805E+03  0.16559138908E+03  0.00000000000E+00 0. -1.
         11    1    1    2    0    0 -0.11432550280E+03  0.26934272757E+02  0.11777468511E+03  0.16633295552E+03  0.00000000000E+00 0.  1.
</event>
<event>
 7    1  0.8653652E-006  0.8865882E+02  0.7561462E-02  0.1306132E+00
         -1   -1    0    0    0  501 -0.00000000000E+00  0.00000000000E+00  0.54552312059E+02  0.54552312059E+02  0.00000000000E+00 0.  1.
          1   -1    0    0  501    0  0.00000000000E+00 -0.00000000000E+00 -0.27420095222E+03  0.27420095222E+03  0.00000000000E+00 0. -1.
         23    2    1    2    0    0  0.40808212422E+02  0.15758848290E+02 -0.94370835610E+02  0.16268395495E+03  0.12508622260E+03 0.  0.
          5    1    3    3  502    0 -0.23197369178E+02 -0.18840380726E+02 -0.83769078889E+02  0.89038243809E+02  0.41800000000E+01 0.  1.
         -5    1    3    3    0  502  0.64005581599E+02  0.34599229016E+02 -0.10601756721E+02  0.73645711144E+02  0.41800000000E+01 0.  1.
        -11    1    1    2    0    0  0.11324462026E+02 -0.18903781434E+02  0.75888546219E+01  0.23306374818E+02  0.00000000000E+00 0.  1.
         11    1    1    2    0    0 -0.52132674448E+02  0.31449331442E+01 -0.13286665917E+03  0.14276293450E+03  0.00000000000E+00 0. -1.
</event>
<event>
 7    1  0.8653652E-006  0.2265486E+03  0.7561462E-02  0.1129093E+00
         -1   -1    0    0    0  501 -0.00000000000E+00  0.00000000000E+00  0.16842411355E+03  0.16842411355E+03  0.00000000000E+00 0.  1.
          1   -1    0    0  501    0  0.00000000000E+00 -0.00000000000E+00 -0.33766464332E+03  0.33766464332E+03  0.00000000000E+00 0. -1.
         23    2    1    2    0    0 -0.19271598234E+03 -0.59278084890E+02 -0.17227138219E+02  0.23790250422E+03  0.12508991178E+03 0.  0.
          5    1    3    3  502    0 -0.51407014091E+02 -0.78234308715E+02  0.34851535777E+01  0.93770500977E+02  0.41800000000E+01 0. -1.
         -5    1    3    3    0  502 -0.14130896825E+03  0.18956223825E+02 -0.20712291797E+02  0.14413200325E+03  0.41800000000E+01 0. -1.
        -11    1    1    2    0    0  0.13411619889E+03  0.10141151298E+01 -0.68114579195E+02  0.15042532744E+03  0.00000000000E+00 0.  1.
         11    1    1    2    0    0  0.58599783443E+02  0.58263969760E+02 -0.83898812355E+02  0.11776092521E+03  0.00000000000E+00 0. -1.
</event>
<event>
 7    1  0.8653652E-006  0.1428168E+03  0.7561462E-02  0.1209588E+00
         -2   -1    0    0    0  501 -0.00000000000E+00  0.00000000000E+00  0.83940561153E+02  0.83940561153E+02  0.00000000000E+00 0.  1.
          2   -1    0    0  501    0  0.00000000000E+00 -0.00000000000E+00 -0.37040942065E+03  0.37040942065E+03  0.00000000000E+00 0. -1.
         23    2    1    2    0    0  0.80358216396E+02 -0.11281124706E+03 -0.15506775771E+03  0.24264702244E+03  0.12509095736E+03 0.  0.
          5    1    3    3  502    0  0.34688777729E+02 -0.44443635351E+02 -0.14984775987E+03  0.16015733378E+03  0.41800000000E+01 0. -1.
         -5    1    3    3    0  502  0.45669438667E+02 -0.68367611709E+02 -0.52199978385E+01  0.82489688667E+02  0.41800000000E+01 0. -1.
        -11    1    1    2    0    0 -0.56423869850E+02  0.37489733643E+02 -0.11106710275E+03  0.13009625103E+03  0.00000000000E+00 0.  1.
         11    1    1    2    0    0 -0.23934346545E+02  0.75321513416E+02 -0.20333999031E+02  0.81606708330E+02  0.00000000000E+00 0. -1.
</event>
<event>
 7    1  0.8653652E-006  0.1598012E+03  0.7561462E-02  0.1188921E+00
          1   -1    0    0  501    0  0.00000000000E+00  0.00000000000E+00  0.43241875922E+03  0.43241875922E+03  0.00000000000E+00 0. -1.
         -1   -1    0    0    0  501 -0.00000000000E+00 -0.00000000000E+00 -0.10744404472E+03  0.10744404472E+03  0.00000000000E+00 0.  1.
         23    2    1    2    0    0 -0.14110523003E+03  0.32431927387E+02  0.21758357203E+02  0.19256945893E+03  0.12508818710E+03 0.  0.
          5    1    3    3  502    0 -0.72997045189E+02  0.36895205045E+02  0.70930029935E+02  0.10834374144E+03  0.41800000000E+01 0. -1.
         -5    1    3    3    0  502 -0.68108184836E+02 -0.44632776580E+01 -0.49171672732E+02  0.84225717500E+02  0.41800000000E+01 0. -1.
        -11    1    1    2    0    0  0.61207944050E+02 -0.59108068745E+02  0.15075229940E+03  0.17310815111E+03  0.00000000000E+00 0. -1.
         11    1    1    2    0    0  0.79897285976E+02  0.26676141358E+02  0.15246405789E+03  0.17418519390E+03  0.00000000000E+00 0.  1.
</event>
<event>
 7    1  0.8653652E-006  0.1837304E+03  0.7561462E-02  0.1164241E+00
         -3   -1    0    0    0  501 -0.00000000000E+00  0.00000000000E+00  0.98281035523E+03  0.98281035523E+03  0.00000000000E+00 0.  1.
          3   -1    0    0  501    0  0.00000000000E+00 -0.00000000000E+00 -0.43685237517E+02  0.43685237517E+02  0.00000000000E+00 0. -1.
         23    2    1    2    0    0 -0.12690698938E+03  0.99632960079E+02  0.66529284277E+03  0.69591199349E+03  0.12508727095E+03 0.  0.
          5    1    3    3  502    0 -0.78588069342E+02 -0.14227306484E+02  0.28324355571E+03  0.29431766027E+03  0.41800000000E+01 0.  1.
         -5    1    3    3    0  502 -0.48318920040E+02  0.11386026656E+03  0.38204928706E+03  0.40159433322E+03  0.41800000000E+01 0.  1.
        -11    1    1    2    0    0  0.10057544897E+03 -0.92011945934E+02  0.27058253893E+03  0.30297942093E+03  0.00000000000E+00 0.  1.
         11    1    1    2    0    0  0.26331540415E+02 -0.76210141443E+01  0.32497360107E+01  0.27604178331E+02  0.00000000000E+00 0. -1.
</event>
<event>
 7    1  0.8653652E-006  0.1505427E+03  0.7561462E-02  0.1199808E+00
          2   -1    0    0  501    0  0.00000000000E+00  0.00000000000E+00  0.54757976773E+02  0.54757976773E+02  0.00000000000E+00 0. -1.
         -2   -1    0    0    0  501 -0.00000000000E+00 -0.00000000000E+00 -0.47128816552E+03  0.47128816552E+03  0.00000000000E+00 0.  1.
         23    2    1    2    0    0 -0.72509919173E+02  0.90143373123E+02 -0.25491568051E+03  0.30661649453E+03  0.12509258351E+03 0.  0.
          5    1    3    3  502    0 -0.71304998905E+02 -0.82193279509E+01 -0.11039688996E+03  0.13174561068E+03  0.41800000000E+01 0.  1.
         -5    1    3    3    0  502 -0.12049202677E+01  0.98362701074E+02 -0.14451879055E+03  0.17487088385E+03  0.41800000000E+01 0.  1.
        -11    1    1    2    0    0  0.65897642289E+02 -0.33916906168E+02 -0.14079244914E+03  0.15910804353E+03  0.00000000000E+00 0.  1.
         11    1    1    2    0    0  0.66122768843E+01 -0.56226466955E+02 -0.20822059098E+02  0.60321604230E+02  0.00000000000E+00 0. -1.
</event>
<event>
 7    1  0.8653652E-006  0.8610906E+02  0.7561462E-02  0.1312557E+00
          1   -1    0    0  501    0  0.00000000000E+00  0.00000000000E+00  0.36661705285E+03  0.36661705285E+03  0.00000000000E+00 0. -1.
         -1   -1    0    0    0  501 -0.00000000000E+00 -0.00000000000E+00 -0.36836735581E+02  0.36836735581E+02  0.00000000000E+00 0.  1.
         23    2    1    2    0    0  0.11141800184E+02 -0.18528828962E+02  0.13857345816E+03  0.19026250871E+03  0.12856812086E+03 0.  0.
          5    1    3    3  502    0 -0.15597413052E+02 -0.42188877233E+02  0.14662319385E+03  0.15342429414E+03  0.41800000000E+01 0. -1.
         -5    1    3    3    0  502  0.26739213235E+02  0.23660048271E+02 -0.80497356905E+01  0.36838214579E+02  0.41800000000E+01 0.  1.
        -11    1    1    2    0    0 -0.34368823591E+00 -0.35751230892E+02  0.49508643639E+02  0.61068604265E+02  0.00000000000E+00 0. -1.
         11    1    1    2    0    0 -0.10798111948E+02  0.54280059855E+02  0.14169821547E+03  0.15212267546E+03  0.00000000000E+00 0.  1.
</event>
<event>
 6    1  0.8653652E-006  0.1329698E+03  0.7561462E-02  0.1223115E+00
          1   -1    0    0  501    0  0.00000000000E+00  0.00000000000E+00  0.29669618721E+03  0.29669618721E+03  0.00000000000E+00 0. -1.
         -1   -1    0    0    0  501 -0.00000000000E+00 -0.00000000000E+00 -0.38392207856E+03  0.38392207856E+03  0.00000000000E+00 0.  1.
          5    1    1    2  502    0  0.58866094490E+02  0.17343582673E+02 -0.12282725605E+03  0.13736820654E+03  0.41800000000E+01 0. -1.
         -5    1    1    2    0  502 -0.63517841624E+02 -0.19191309243E+02 -0.23216740129E+03  0.24149947655E+03  0.41800000000E+01 0.  1.
        -11    1    1    2    0    0  0.98853972094E+01 -0.67590191819E+02  0.11307714598E+03  0.13210827397E+03  0.00000000000E+00 0.  1.
         11    1    1    2    0    0 -0.52336500746E+01  0.69437918389E+02  0.15469162001E+03  0.16964230871E+03  0.00000000000E+00 0. -1.
</event>
<event>
 7    1  0.8653652E-006  0.1720426E+03  0.7561462E-02  0.1175734E+00
          1   -1    0    0  501    0  0.00000000000E+00  0.00000000000E+00  0.66920773483E+03  0.66920773483E+03  0.00000000000E+00 0. -1.
         -1   -1    0    0    0  501 -0.00000000000E+00 -0.00000000000E+00 -0.45421106530E+02  0.45421106530E+02  0.00000000000E+00 0.  1.
         23    2    1    2    0    0 -0.53155794822E+02 -0.12254066608E+03  0.27733260723E+03  0.33224735751E+03  0.12503270841E+03 0.  0.
          5    1    3    3  502    0 -0.94057765077E+02 -0.92629617096E+02  0.19712326155E+03  0.23728076572E+03  0.41800000000E+01 0.  1.
         -5    1    3    3    0  502  0.40901970255E+02 -0.29911048982E+02  0.80209345681E+02  0.94966591791E+02  0.41800000000E+01 0.  1.
        -11    1    1    2    0    0  0.78883574408E+02  0.89897032146E+02  0.27148376804E+03  0.29666063273E+03  0.00000000000E+00 0. -1.
         11    1    1    2    0    0 -0.25727779586E+02  0.32643633932E+02  0.74970253029E+02  0.85720851127E+02  0.00000000000E+00 0.  1.
</event>
<event>
 6    1  0.8653652E-006  0.1887774E+03  0.7561462E-02  0.1159569E+00
         -2   -1    0    0    0  501 -0.00000000000E+00  0.00000000000E+00  0.81251532227E+02  0.81251532227E+02  0.00000000000E+00 0.  1.
          2   -1    0    0  501    0  0.00000000000E+00 -0.00000000000E+00 -0.85994028809E+03  0.85994028809E+03  0.00000000000E+00 0. -1.
          5    1    1    2  502    0 -0.55078901057E+02  0.13801617643E+03 -0.11473950057E+03  0.18778917884E+03  0.41800000000E+01 0. -1.
         -5    1    1    2    0  502  0.42219803793E+02  0.35231935556E+02 -0.12763735695E+03  0.13904160674E+03  0.41800000000E+01 0.  1.
        -11    1    1    2    0    0  0.41725420441E+01 -0.75111483965E+02 -0.65453804405E+01  0.75511503333E+02  0.00000000000E+00 0.  1.
         11    1    1    2    0    0  0.86865552207E+01 -0.98136628022E+02 -0.52976651791E+03  0.53884953141E+03  0.00000000000E+00 0. -1.
</event>
<event>
 7    1  0.8653652E-006  0.1241212E+03  0.7561462E-02  0.1236449E+00
          1   -1    0    0  501    0  0.00000000000E+00  0.00000000000E+00  0.69862424138E+03  0.69862424138E+03  0.00000000000E+00 0. -1.
         -1   -1    0    0    0  501 -0.00000000000E+00 -0.00000000000E+00 -0.26350258448E+02  0.26350258448E+02  0.00000000000E+00 0.  1.
         23    2    1    2    0    0 -0.57179224223E+02  0.56831947686E+02  0.34038147294E+03  0.37149316485E+03  0.12509312710E+03 0.  0.
          5    1    3    3  502    0 -0.38791998047E+02  0.95758428703E+02  0.20909642771E+03  0.23326655196E+03  0.41800000000E+01 0. -1.
         -5    1    3    3    0  502 -0.18387226176E+02 -0.38926481017E+02  0.13128504523E+03  0.13822661289E+03  0.41800000000E+01 0. -1.
        -11    1    1    2    0    0 -0.12266994288E+02 -0.18690196270E+02  0.15214725640E+02  0.27042382694E+02  0.00000000000E+00 0. -1.
         11    1    1    2    0    0  0.69446218511E+02 -0.38141751416E+02  0.31667778435E+03  0.32643895228E+03  0.00000000000E+00 0.  1.
</event>
<event>
 7    1  0.8653652E-006  0.1001972E+03  0.7561462E-02  0.1279882E+00
          1   -1    0    0  501    0  0.00000000000E+00  0.00000000000E+00  0.31169779325E+03  0.31169779325E+03  0.00000000000E+00 0.  1.
         -1   -1    0    0    0  501 -0.00000000000E+00 -0.00000000000E+00 -0.55681932640E+02  0.55681932640E+02  0.00000000000E+00 0. -1.
         23    2    1    2    0    0 -0.53967918674E+02  0.48470213957E+02  0.11218163747E+03  0.18301645434E+03  0.12509358452E+03 0.  0.
          5    1    3    3  502    0 -0.59861470226E+02  0.49862888978E+02  0.13671090167E+03  0.15740726270E+03  0.41800000000E+01 0. -1.
         -5    1    3    3    0  502  0.58935515527E+01 -0.13926750210E+01 -0.24529264208E+02  0.25609191636E+02  0.41800000000E+01 0. -1.
        -11    1    1    2    0    0 -0.37708146569E+01 -0.56584028879E+02  0.64098452885E+02  0.85583777841E+02  0.00000000000E+00 0.  1.
         11    1    1    2    0    0  0.57738733330E+02  0.81138149216E+01  0.79735770262E+02  0.98779493714E+02  0.00000000000E+00 0. -1.
</event>
<event>
 6    1  0.8653652E-006  0.2091221E+03  0.7561462E-02  0.1142263E+00
         -2   -1    0    0    0  501 -0.00000000000E+00  0.00000000000E+00  0.36479513748E+03  0.36479513748E+03  0.00000000000E+00 0.  1.
          2   -1    0    0  501    0  0.00000000000E+00 -0.00000000000E+00 -0.24257917359E+03  0.24257917359E+03  0.00000000000E+00 0. -1.
          5    1    1    2  502    0 -0.45670146242E+02 -0.60087923559E+02  0.66316709745E+02  0.10055694509E+03  0.41800000000E+01 0. -1.
         -5    1    1    2    0  502  0.12897098185E+03  0.14381308748E+03  0.21463611318E+03  0.28879378762E+03  0.41800000000E+01 0.  1.
        -11    1    1    2    0    0 -0.58286394789E+02 -0.10266767872E+03 -0.12398684634E+03  0.17120366275E+03  0.00000000000E+00 0. -1.
         11    1    1    2    0    0 -0.25014440819E+02  0.18942514801E+02 -0.34750012687E+02  0.46819915615E+02  0.00000000000E+00 0.  1.
</event>
<event>
 7    1  0.8653652E-006  0.5788342E+02  0.7561462E-02  0.1406935E+00
         -4   -1    0    0    0  501 -0.00000000000E+00  0.00000000000E+00  0.40258793925E+02  0.40258793925E+02  0.00000000000E+00 0.  1.
          4   -1    0    0  501    0  0.00000000000E+00 -0.00000000000E+00 -0.32265943362E+03  0.32265943362E+03  0.00000000000E+00 0. -1.
         23    2    1    2    0    0 -0.23962729963E+02 -0.21630433057E+02 -0.15597737701E+03  0.20253115590E+03  0.12509132228E+03 0.  0.
          5    1    3    3  502    0 -0.22616306355E+02  0.21652235812E+02 -0.15585735268E+03  0.15902610922E+03  0.41800000000E+01 0. -1.
         -5    1    3    3    0  502 -0.13464236080E+01 -0.43282668869E+02 -0.12002432776E+00  0.43505046682E+02  0.41800000000E+01 0. -1.
        -11    1    1    2    0    0  0.88059825009E+01  0.23787079576E+02 -0.13855250787E+03  0.14085513096E+03  0.00000000000E+00 0. -1.
         11    1    1    2    0    0  0.15156747462E+02 -0.21566465190E+01  0.12129245184E+02  0.19531940676E+02  0.00000000000E+00 0.  1.
</event>
<event>
 6    1  0.8653652E-006  0.1124560E+03  0.7561462E-02  0.1256088E+00
          2   -1    0    0  501    0  0.00000000000E+00  0.00000000000E+00  0.13218798198E+03  0.13218798198E+03  0.00000000000E+00 0. -1.
         -2   -1    0    0    0  501 -0.00000000000E+00 -0.00000000000E+00 -0.26964315098E+03  0.26964315098E+03  0.00000000000E+00 0.  1.
          5    1    1    2  502    0  0.20036083724E+02 -0.89072487526E+02 -0.76885055775E+01  0.91716619012E+02  0.41800000000E+01 0. -1.
         -5    1    1    2    0  502  0.20382171006E+02  0.95921687898E+01 -0.17386602410E+03  0.17536906607E+03  0.41800000000E+01 0.  1.
        -11    1    1    2    0    0  0.15112798891E+02  0.39179865009E+02 -0.14589647813E+02  0.44455779554E+02  0.00000000000E+00 0.  1.
         11    1    1    2    0    0 -0.55531053621E+02  0.40300453727E+02  0.58689008499E+02  0.90289668321E+02  0.00000000000E+00 0. -1.
</event>
<event>
 7    1  0.8653652E-006  0.9419160E+02  0.7561462E-02  0.1293007E+00
         -3   -1    0    0    0  501 -0.00000000000E+00  0.00000000000E+00  0.13196664085E+04  0.13196664085E+04  0.00000000000E+00 0.  1.
          3   -1    0    0  501    0  0.00000000000E+00 -0.00000000000E+00 -0.11075215713E+02  0.11075215713E+02  0.00000000000E+00 0. -1.
         23    2    1    2    0    0 -0.69498904145E+01 -0.48762225750E+02  0.92156830957E+03  0.93036725185E+03  0.11776679699E+03 0.  0.
          5    1    3    3  502    0  0.58043435591E+01 -0.68842100619E+02  0.87655762960E+03  0.87928588959E+03  0.41800000000E+01 0. -1.
         -5    1    3    3    0  502 -0.12754233974E+02  0.20079874869E+02  0.45010679973E+02  0.51081362263E+02  0.41800000000E+01 0.  1.
        -11    1    1    2    0    0 -0.32197193825E+02  0.45493929420E+02  0.29653593268E+03  0.30172821591E+03  0.00000000000E+00 0.  1.
         11    1    1    2    0    0  0.39147084239E+02  0.32682963304E+01  0.90486950486E+02  0.98646156405E+02  0.00000000000E+00 0. -1.
</event>
<event>
 7    1  0.8653652E-006  0.2005662E+03  0.7561462E-02  0.1149262E+00
         -1   -1    0    0    0  501 -0.00000000000E+00  0.00000000000E+00  0.31116087997E+03  0.31116087997E+03  0.00000000000E+00 0.  1.
          1   -1    0    0  501    0  0.00000000000E+00 -0.00000000000E+00 -0.15106360841E+03  0.15106360841E+03  0.00000000000E+00 0. -1.
         23    2    1    2    0    0 -0.12364182791E+03 -0.13595815190E+03  0.11914033159E+03  0.25221617337E+03  0.12508660527E+03 0.  0.
          5    1    3    3  502    0 -0.85965702736E+02 -0.15190888126E+03  0.11863239682E+03  0.21108654204E+03  0.41800000000E+01 0. -1.
         -5    1    3    3    0  502 -0.37676125177E+02  0.15950729364E+02  0.50793476874E+00  0.41129631330E+02  0.41800000000E+01 0. -1.
        -11    1    1    2    0    0  0.76078115293E+02  0.10067563752E+03  0.69724149271E+02  0.14416976315E+03  0.00000000000E+00 0.  1.
         11    1    1    2    0    0  0.47563712620E+02  0.35282514384E+02 -0.28767209309E+02  0.65838551859E+02  0.00000000000E+00 0. -1.
</event>
<event>
 7    1  0.8653652E-006  0.1399917E+03  0.7561462E-02  0.1213340E+00
          2   -1    0    0  501    0  0.00000000000E+00  0.00000000000E+00  0.68524393774E+02  0.68524393774E+02  0.00000000000E+00 0. -1.
         -2   -1    0    0    0  501 -0.00000000000E+00 -0.00000000000E+00 -0.39983181524E+03  0.39983181524E+03  0.00000000000E+00 0.  1.
         23    2    1    2    0    0  0.11014144309E+03  0.19048287790E+02 -0.25384317021E+03  0.30426668100E+03  0.12509149991E+03 0.  0.
          5    1    3    3  502    0  0.14471069491E+02  0.56814236514E+02 -0.13373566811E+03  0.14608206820E+03  0.41800000000E+01 0. -1.
         -5    1    3    3    0  502  0.95670373600E+02 -0.37765948724E+02 -0.12010750210E+03  0.15818461281E+03  0.41800000000E+01 0. -1.
        -11    1    1    2    0    0 -0.23030711323E+02  0.11771441890E+02  0.17781483407E+02  0.31387285011E+02  0.00000000000E+00 0. -1.
         11    1    1    2    0    0 -0.87110731769E+02 -0.30819729680E+02 -0.95245734663E+02  0.13270224300E+03  0.00000000000E+00 0.  1.
</event>
<event>
 7    1  0.8653652E-006  0.9959234E+02  0.7561462E-02  0.1281156E+00
         -2   -1    0    0    0  501 -0.00000000000E+00  0.00000000000E+00  0.42096038410E+02  0.42096038410E+02  0.00000000000E+00 0. -1.
          2   -1    0    0  501    0  0.00000000000E+00 -0.00000000000E+00 -0.38782100238E+03  0.38782100238E+03  0.00000000000E+00 0.  1.
         23    2    1    2    0    0  0.17812682016E+02  0.61141920763E+02 -0.14287700118E+03  0.20029199132E+03  0.12508964068E+03 0.  0.
          5    1    3    3  502    0  0.27970191704E+02 -0.10374247911E+02 -0.12101304422E+03  0.12470599791E+03  0.41800000000E+01 0.  1.
         -5    1    3    3    0  502 -0.10157509688E+02  0.71516168673E+02 -0.21863956955E+02  0.75585993401E+02  0.41800000000E+01 0.  1.
        -11    1    1    2    0    0 -0.40738596948E+02 -0.11983086160E+02 -0.14150888525E+03  0.14774299388E+03  0.00000000000E+00 0. -1.
         11    1    1    2    0    0  0.22925914931E+02 -0.49158834602E+02 -0.61339077533E+02  0.81882055589E+02  0.00000000000E+00 0.  1.
</event>
<event>
 6    1  0.8653652E-006  0.1542020E+03  0.7561462E-02  0.1195403E+00
         -1   -1    0    0    0  501 -0.00000000000E+00  0.00000000000E+00  0.31322551380E+02  0.31322551380E+02  0.00000000000E+00 0.  1.
          1   -1    0    0  501    0  0.00000000000E+00 -0.00000000000E+00 -0.81438706622E+03  0.81438706622E+03  0.00000000000E+00 0. -1.
          5    1    1    2  502    0  0.35968330014E+02  0.48379227999E+02 -0.18360482971E+03  0.19329375665E+03  0.41800000000E+01 0. -1.
         -5    1    1    2    0  502 -0.11715136803E+03 -0.44704768695E+01 -0.20153107786E+03  0.23318806989E+03  0.41800000000E+01 0.  1.
        -11    1    1    2    0    0  0.22761305671E+02 -0.64750964801E+02 -0.17992343247E+03  0.19257000293E+03  0.00000000000E+00 0. -1.
         11    1    1    2    0    0  0.58421732345E+02  0.20842213671E+02 -0.21800517480E+03  0.22665778813E+03  0.00000000000E+00 0.  1.
</event>
<event>
 7    1  0.8653652E-006  0.9137211E+02  0.7561462E-02  0.1299563E+00
         -2   -1    0    0    0  501 -0.00000000000E+00  0.00000000000E+00  0.26315264423E+02  0.26315264423E+02  0.00000000000E+00 0.  1.
          2   -1    0    0  501    0  0.00000000000E+00 -0.00000000000E+00 -0.50283115844E+03  0.50283115844E+03  0.00000000000E+00 0. -1.
         23    2    1    2    0    0 -0.33867443049E+01  0.33833225373E+02 -0.23293339120E+03  0.26657940521E+03  0.12510178804E+03 0.  0.
          5    1    3    3  502    0 -0.21855084760E+02  0.65663520075E+02 -0.21406667254E+03  0.22501412242E+03  0.41800000000E+01 0.  1.
         -5    1    3    3    0  502  0.18468340455E+02 -0.31830294702E+02 -0.18866718661E+02  0.41565282785E+02  0.41800000000E+01 0.  1.
        -11    1    1    2    0    0  0.35169950215E+02 -0.97414187723E+01 -0.20075622080E+03  0.20404627129E+03  0.00000000000E+00 0. -1.
         11    1    1    2    0    0 -0.31783205911E+02 -0.24091806601E+02 -0.42826282014E+02  0.58520746359E+02  0.00000000000E+00 0.  1.
</event>
<event>
 7    1  0.8653652E-006  0.1489990E+03  0.7561462E-02  0.1201708E+00
          2   -1    0    0  501    0  0.00000000000E+00  0.00000000000E+00  0.17884095385E+03  0.17884095385E+03  0.00000000000E+00 0. -1.
         -2   -1    0    0    0  501 -0.00000000000E+00 -0.00000000000E+00 -0.12557841893E+03  0.12557841893E+03  0.00000000000E+00 0.  1.
         23    2    1    2    0    0  0.10314569521E+03  0.51215426015E+01  0.34993695092E+02  0.16557765598E+03  0.12460391978E+03 0.  0.
          5    1    3    3  502    0 -0.10270017712E+02 -0.37623863501E+02 -0.45868889462E+00  0.39226409013E+02  0.41800000000E+01 0. -1.
         -5    1    3    3    0  502  0.11341571292E+03  0.42745406102E+02  0.35452383987E+02  0.12635124697E+03  0.41800000000E+01 0. -1.
        -11    1    1    2    0    0  0.16106035227E+02 -0.84751554965E+01  0.45240786149E+01  0.18753664142E+02  0.00000000000E+00 0.  1.
         11    1    1    2    0    0 -0.11925173043E+03  0.33536128950E+01  0.13744761222E+02  0.12008805266E+03  0.00000000000E+00 0. -1.
</event>
<event>
 7    1  0.8653652E-006  0.3344680E+03  0.7561462E-02  0.1069177E+00
          1   -1    0    0  501    0  0.00000000000E+00  0.00000000000E+00  0.12840028258E+03  0.12840028258E+03  0.00000000000E+00 0. -1.
         -1   -1    0    0    0  501 -0.00000000000E+00 -0.00000000000E+00 -0.98666089230E+03  0.98666089230E+03  0.00000000000E+00 0.  1.
         23    2    1    2    0    0  0.66442886494E+02 -0.31034641760E+03 -0.61960957646E+03  0.70731457222E+03  0.12509324821E+03 0.  0.
          5    1    3    3  502    0 -0.21417780552E+02 -0.18144354386E+03 -0.37507920954E+03  0.41723179021E+03  0.41800000000E+01 0. -1.
         -5    1    3    3    0  502  0.87860667046E+02 -0.12890287374E+03 -0.24453036692E+03  0.29008278201E+03  0.41800000000E+01 0. -1.
        -11    1    1    2    0    0 -0.71791039419E+00  0.21105980262E+03 -0.14193946362E+03  0.25434930118E+03  0.00000000000E+00 0. -1.
         11    1    1    2    0    0 -0.65724976100E+02  0.99286614982E+02 -0.96711569650E+02  0.15339730148E+03  0.00000000000E+00 0.  1.
</event>
<event>
 7    1  0.8653652E-006  0.8767473E+02  0.7561462E-02  0.1308582E+00
          2   -1    0    0  501    0  0.00000000000E+00  0.00000000000E+00  0.17999592956E+03  0.17999592956E+03  0.00000000000E+00 0. -1.
         -2   -1    0    0    0  501 -0.00000000000E+00 -0.00000000000E+00 -0.88700487534E+02  0.88700487534E+02  0.00000000000E+00 0.  1.
         23    2    1    2    0    0 -0.22617863544E+02 -0.60551206948E+02  0.60201446796E+02  0.15313520168E+03  0.12509260323E+03 0.  0.
          5    1    3    3  502    0  0.19916632094E+02 -0.10222936486E+02 -0.32278369609E+02  0.39503749303E+02  0.41800000000E+01 0.  1.
         -5    1    3    3    0  502 -0.42534495639E+02 -0.50328270462E+02  0.92479816405E+02  0.11363145238E+03  0.41800000000E+01 0.  1.
        -11    1    1    2    0    0  0.41632604643E+02  0.33264157546E+02 -0.18012899020E+02  0.56251599779E+02  0.00000000000E+00 0.  1.
         11    1    1    2    0    0 -0.19014741098E+02  0.27287049402E+02  0.49106894253E+02  0.59309615639E+02  0.00000000000E+00 0. -1.
</event>
<event>
 7    1  0.8653652E-006  0.1966661E+03  0.7561462E-02  0.1152583E+00
          1   -1    0    0  501    0  0.00000000000E+00  0.00000000000E+00  0.38548431007E+03  0.38548431007E+03  0.00000000000E+00 0. -1.
         -1   -1    0    0    0  501 -0.00000000000E+00 -0.00000000000E+00 -0.10576505678E+03  0.10576505678E+03  0.00000000000E+00 0.  1.
         23    2    1    2    0    0  0.13422300740E+03  0.98634559836E+02  0.10356128760E+03  0.23262791216E+03  0.12508482369E+03 0.  0.
          5    1    3    3  502    0  0.14100430007E+03  0.36610130305E+02  0.74307955028E+02  0.16358991063E+03  0.41800000000E+01 0. -1.
         -5    1    3    3    0  502 -0.67812926706E+01  0.62024429531E+02  0.29253332573E+02  0.69038001532E+02  0.41800000000E+01 0. -1.
        -11    1    1    2    0    0  0.11125908865E+02 -0.53070620255E+01  0.60940533938E+00  0.12341885199E+02  0.00000000000E+00 0.  1.
         11    1    1    2    0    0 -0.14534891626E+03 -0.93327497810E+02  0.17554856035E+03  0.24627956949E+03  0.00000000000E+00 0. -1.
</event>
<event>
 7    1  0.8653652E-006  0.1233831E+03  0.7561462E-02  0.1237618E+00
          1   -1    0    0  501    0  0.00000000000E+00  0.00000000000E+00  0.50908142760E+02  0.50908142760E+02  0.00000000000E+00 0. -1.
         -1   -1    0    0    0  501 -0.00000000000E+00 -0.00000000000E+00 -0.49728491489E+03  0.49728491489E+03  0.00000000000E+00 0.  1.
         23    2    1    2    0    0  0.65542777338E+02 -0.62759786501E+02 -0.35070322876E+03  0.38324091850E+03  0.12508477318E+03 0.  0.
          5    1    3    3  502    0 -0.29651849133E+02 -0.47392341637E+02 -0.10068986395E+03  0.11524403371E+03  0.41800000000E+01 0. -1.
         -5    1    3    3    0  502  0.95194626472E+02 -0.15367444863E+02 -0.25001336481E+03  0.26799688479E+03  0.41800000000E+01 0. -1.
        -11    1    1    2    0    0 -0.11603262327E+02  0.27228894266E+02  0.17688166575E+02  0.34480713687E+02  0.00000000000E+00 0. -1.
         11    1    1    2    0    0 -0.53939515011E+02  0.35530892235E+02 -0.11336170995E+03  0.13047142547E+03  0.00000000000E+00 0.  1.
</event>
<event>
 7    1  0.8653652E-006  0.1981489E+03  0.7561462E-02  0.1151310E+00
          2   -1    0    0  501    0  0.00000000000E+00  0.00000000000E+00  0.20893969350E+03  0.20893969350E+03  0.00000000000E+00 0.  1.
         -2   -1    0    0    0  501 -0.00000000000E+00 -0.00000000000E+00 -0.20233215644E+03  0.20233215644E+03  0.00000000000E+00 0. -1.
         23    2    1    2    0    0  0.31402318486E+02 -0.17045266279E+03  0.23522150578E+02  0.21503623193E+03  0.12508826330E+03 0.  0.
          5    1    3    3  502    0  0.86618953176E+01 -0.17758475873E+03  0.44146866904E+02  0.18324244383E+03  0.41800000000E+01 0. -1.
         -5    1    3    3    0  502  0.22740423169E+02  0.71320959363E+01 -0.20624716325E+02  0.31793788101E+02  0.41800000000E+01 0. -1.
        -11    1    1    2    0    0 -0.61764536336E+02  0.99954869649E+02  0.62147606555E+00  0.11749987297E+03  0.00000000000E+00 0.  1.
         11    1    1    2    0    0  0.30362217850E+02  0.70497793141E+02 -0.17536089581E+02  0.78735745048E+02  0.00000000000E+00 0. -1.
</event>
<event>
 7    1  0.8653652E-006  0.1482781E+03  0.7561462E-02  0.1202605E+00
          1   -1    0    0  501    0  0.00000000000E+00  0.00000000000E+00  0.25496509794E+03  0.25496509794E+03  0.00000000000E+00 0. -1.
         -1   -1    0    0    0  501 -0.00000000000E+00 -0.00000000000E+00 -0.93570477230E+02  0.93570477230E+02  0.00000000000E+00 0.  1.
         23    2    1    2    0    0 -0.78807610535E+02 -0.69290361131E+02  0.83312674941E+02  0.18330148329E+03  0.12508652344E+03 0.  0.
          5    1    3    3  502    0 -0.61828921625E+02  0.23555980174E+02  0.18840672323E+02  0.68921281799E+02  0.41800000000E+01 0.  1.
         -5    1    3    3    0  502 -0.16978688910E+02 -0.92846341305E+02  0.64472002618E+02  0.11438020149E+03  0.41800000000E+01 0.  1.
        -11    1    1    2    0    0  0.95121295977E+02  0.71929617564E+02  0.85880618740E+02  0.14696057807E+03  0.00000000000E+00 0. -1.
         11    1    1    2    0    0 -0.16313685442E+02 -0.26392564330E+01 -0.77986729677E+01  0.18273513819E+02  0.00000000000E+00 0.  1.
</event>
<event>
 7    1  0.8653652E-006  0.1781631E+03  0.7561462E-02  0.1169593E+00
         -1   -1    0    0    0  501 -0.00000000000E+00  0.00000000000E+00  0.11871171475E+03  0.11871171475E+03  0.00000000000E+00 0.  1.
          1   -1    0    0  501    0  0.00000000000E+00 -0.00000000000E+00 -0.27829299971E+03  0.27829299971E+03  0.00000000000E+00 0. -1.
         23    2    1    2    0    0  0.13844469640E+03 -0.36432857854E+02 -0.67203467740E+02  0.20163966847E+03  0.12509181720E+03 0.  0.
          5    1    3    3  502    0  0.12884601818E+03 -0.74462480207E+02 -0.41464971438E+02  0.15454052419E+03  0.41800000000E+01 0.  1.
         -5    1    3    3    0  502  0.95986782178E+01  0.38029622353E+02 -0.25738496302E+02  0.47099144278E+02  0.41800000000E+01 0.  1.
        -11    1    1    2    0    0 -0.99173809595E+02  0.65759908713E+02 -0.83962393687E+02  0.14563479549E+03  0.00000000000E+00 0.  1.
         11    1    1    2    0    0 -0.39270886804E+02 -0.29327050859E+02 -0.84154235374E+01  0.49730250510E+02  0.00000000000E+00 0. -1.
</event>
<event>
 7    1  0.8653652E-006  0.1412522E+03  0.7561462E-02  0.1211654E+00
          1   -1    0    0  501    0  0.00000000000E+00  0.00000000000E+00  0.24302052080E+03  0.24302052080E+03  0.00000000000E+00 0. -1.
         -1   -1    0    0    0  501 -0.00000000000E+00 -0.00000000000E+00 -0.11593966483E+03  0.11593966483E+03  0.00000000000E+00 0.  1.
         23    2    1    2    0    0 -0.11638656819E+03  0.52950900627E+02  0.37052735529E+02  0.18267401108E+03  0.12508900025E+03 0.  0.
          5    1    3    3  502    0  0.33399122229E+01  0.26536271977E+02  0.52460676050E+02  0.59033242124E+02  0.41800000000E+01 0.  1.
         -5    1    3    3    0  502 -0.11972648041E+03  0.26414628650E+02 -0.15407940520E+02  0.12364076896E+03  0.41800000000E+01 0.  1.
        -11    1    1    2    0    0  0.58848965806E+02 -0.72813652796E+01  0.83670357310E+02  0.10255217086E+03  0.00000000000E+00 0. -1.
         11    1    1    2    0    0  0.57537602381E+02 -0.45669535348E+02  0.63577631271E+01  0.73734003680E+02  0.00000000000E+00 0.  1.
</event>
<event>
 7    1  0.8653652E-006  0.7359218E+02  0.7561462E-02  0.1348287E+00
          1   -1    0    0  501    0  0.00000000000E+00  0.00000000000E+00  0.13107167669E+02  0.13107167669E+02  0.00000000000E+00 0. -1.
         -1   -1    0    0    0  501 -0.00000000000E+00 -0.00000000000E+00 -0.96191526872E+03  0.96191526872E+03  0.00000000000E+00 0.  1.
         23    2    1    2    0    0 -0.38469598313E+02 -0.11039964791E+02 -0.74717641374E+03  0.75863190814E+03  0.12509191811E+03 0.  0.
          5    1    3    3  502    0  0.26060615982E+02 -0.94007176685E+01 -0.55797901320E+03  0.55868200326E+03  0.41800000000E+01 0. -1.
         -5    1    3    3    0  502 -0.64530214295E+02 -0.16392471227E+01 -0.18919740055E+03  0.19994990488E+03  0.41800000000E+01 0. -1.
        -11    1    1    2    0    0  0.31631380978E+02 -0.93417266585E+01 -0.18814075237E+03  0.19100982913E+03  0.00000000000E+00 0.  1.
         11    1    1    2    0    0  0.68382173355E+01  0.20381691450E+02 -0.13490934940E+02  0.25380699128E+02  0.00000000000E+00 0. -1.
</event>
<event>
 7    1  0.8653652E-006  0.1892262E+03  0.7561462E-02  0.1159161E+00
          1   -1    0    0  501    0  0.00000000000E+00  0.00000000000E+00  0.54622467404E+03  0.54622467404E+03  0.00000000000E+00 0. -1.
         -1   -1    0    0    0  501 -0.00000000000E+00 -0.00000000000E+00 -0.72288760303E+02  0.72288760303E+02  0.00000000000E+00 0.  1.
         23    2    1    2    0    0 -0.55768741979E+02  0.14848723939E+03  0.18765163474E+03  0.27572058343E+03  0.12510032480E+03 0.  0.
          5    1    3    3  502    0 -0.25505772186E+02 -0.18726836005E+02  0.33093421828E+02  0.45977013494E+02  0.41800000000E+01 0.  1.
         -5    1    3    3    0  502 -0.30262969793E+02  0.16721407539E+03  0.15455821291E+03  0.22974356994E+03  0.41800000000E+01 0.  1.
        -11    1    1    2    0    0  0.68487526699E+02 -0.73374285983E+02  0.21998567868E+03  0.24180162527E+03  0.00000000000E+00 0. -1.
         11    1    1    2    0    0 -0.12718784720E+02 -0.75112953403E+02  0.66298600322E+02  0.10099122565E+03  0.00000000000E+00 0.  1.
</event>
<event>
 7    1  0.8653652E-006  0.1723796E+03  0.7561462E-02  0.1175389E+00
         -1   -1    0    0    0  501 -0.00000000000E+00  0.00000000000E+00  0.13032120891E+03  0.13032120891E+03  0.00000000000E+00 0.  1.
          1   -1    0    0  501    0  0.00000000000E+00 -0.00000000000E+00 -0.29272936430E+03  0.29272936430E+03  0.00000000000E+00 0. -1.
         23    2    1    2    0    0 -0.10315947497E+03  0.11656567065E+03 -0.37373149423E+02  0.20315965110E+03  0.12509060192E+03 0.  0.
          5    1    3    3  502    0 -0.17191931454E+02 -0.19065478307E+02 -0.33585683643E+02  0.42479707108E+02  0.41800000000E+01 0.  1.
         -5    1    3    3    0  502 -0.85967543512E+02  0.13563114896E+03 -0.37874657800E+01  0.16067994399E+03  0.41800000000E+01 0.  1.
        -11    1    1    2    0    0  0.24033742313E+02 -0.46858667888E+02 -0.97644482933E+02  0.11094052719E+03  0.00000000000E+00 0.  1.
         11    1    1    2    0    0  0.79125732654E+02 -0.69707002762E+02 -0.27390523036E+02  0.10895039492E+03  0.00000000000E+00 0. -1.
</event>
<event>
 7    1  0.8653652E-006  0.1504745E+03  0.7561462E-02  0.1199891E+00
          1   -1    0    0  501    0  0.00000000000E+00  0.00000000000E+00  0.85112425659E+03  0.85112425659E+03  0.00000000000E+00 0. -1.
         -1   -1    0    0    0  501 -0.00000000000E+00 -0.00000000000E+00 -0.32431765563E+02  0.32431765563E+02  0.00000000000E+00 0.  1.
         23    2    1    2    0    0  0.12557789484E+03 -0.19695025312E+01  0.43166143721E+03  0.46663974210E+03  0.12508943169E+03 0.  0.
          5    1    3    3  502    0  0.13736945595E+03 -0.39382674125E+01  0.25653461364E+03  0.29105559224E+03  0.41800000000E+01 0. -1.
         -5    1    3    3    0  502 -0.11791561115E+02  0.19687648813E+01  0.17512682357E+03  0.17558414986E+03  0.41800000000E+01 0. -1.
        -11    1    1    2    0    0 -0.55634463096E+02 -0.40637978615E+02  0.22579854705E+03  0.23607545963E+03  0.00000000000E+00 0. -1.
         11    1    1    2    0    0 -0.69943431739E+02  0.42607481147E+02  0.16123250677E+03  0.18084082043E+03  0.00000000000E+00 0.  1.
</event>
<event>
 7    1  0.8653652E-006  0.8191584E+02  0.7561462E-02  0.1323701E+00
          2   -1    0    0  501    0  0.00000000000E+00  0.00000000000E+00  0.33951579658E+03  0.33951579658E+03  0.00000000000E+00 0. -1.
         -2   -1    0    0    0  501 -0.00000000000E+00 -0.00000000000E+00 -0.68896080107E+02  0.68896080107E+02  0.00000000000E+00 0.  1.
         23    2    1    2    0    0 -0.29953917790E+02  0.26660017381E+02  0.13982115736E+02  0.13210362088E+03  0.12509146003E+03 0.  0.
          5    1    3    3  502    0 -0.18002906720E+02  0.39539035142E+02  0.64824919590E+02  0.78148464798E+02  0.41800000000E+01 0. -1.
         -5    1    3    3    0  502 -0.11951011070E+02 -0.12879017761E+02 -0.50842803855E+02  0.53955156082E+02  0.41800000000E+01 0. -1.
        -11    1    1    2    0    0 -0.25508016264E+02  0.17749149749E+02  0.69251728678E+02  0.75904500100E+02  0.00000000000E+00 0. -1.
         11    1    1    2    0    0  0.55461934054E+02 -0.44409167129E+02  0.18738587206E+03  0.20040375571E+03  0.00000000000E+00 0.  1.
</event>
<event>
 6    1  0.8653652E-006  0.8855706E+02  0.7561462E-02  0.1306384E+00
         -2   -1    0    0    0  501 -0.00000000000E+00  0.00000000000E+00  0.16533293796E+03  0.16533293796E+03  0.00000000000E+00 0.  1.
          2   -1    0    0  501    0  0.00000000000E+00 -0.00000000000E+00 -0.12844026411E+03  0.12844026411E+03  0.00000000000E+00 0. -1.
          5    1    1    2  502    0 -0.18743100135E+02  0.25403730135E+02 -0.30940257234E+02  0.44400734511E+02  0.41800000000E+01 0. -1.
         -5    1    1    2    0  502  0.50584718098E+02  0.67975930762E+01  0.12506486027E+03  0.13514330413E+03  0.41800000000E+01 0.  1.
        -11    1    1    2    0    0 -0.57604039215E+02 -0.36131713106E+02 -0.56085096573E+02  0.88143429043E+02  0.00000000000E+00 0. -1.
         11    1    1    2    0    0  0.25762421252E+02  0.39303898944E+01 -0.11468326159E+01  0.26085734387E+02  0.00000000000E+00 0.  1.
</event>
<event>
 7    1  0.8653652E-006  0.1086972E+03  0.7561462E-02  0.1263002E+00
          1   -1    0    0  501    0  0.00000000000E+00  0.00000000000E+00  0.20556852753E+03  0.20556852753E+03  0.00000000000E+00 0. -1.
         -1   -1    0    0    0  501 -0.00000000000E+00 -0.00000000000E+00 -0.75671282548E+02  0.75671282548E+02  0.00000000000E+00 0.  1.
         23    2    1    2    0    0 -0.18251132034E+02  0.36743784056E+02  0.21393691155E+02  0.13337337504E+03  0.12509019811E+03 0.  0.
          5    1    3    3  502    0  0.46365852008E+02  0.44856200829E+02  0.21455158563E+02  0.68115102688E+02  0.41800000000E+01 0.  1.
         -5    1    3    3    0  502 -0.64616984042E+02 -0.81124167722E+01 -0.61467408078E-01  0.65258272356E+02  0.41800000000E+01 0.  1.
        -11    1    1    2    0    0  0.20007969875E+02 -0.60471518856E+02  0.10636429925E+03  0.12397777061E+03  0.00000000000E+00 0. -1.
         11    1    1    2    0    0 -0.17568378413E+01  0.23727734800E+02  0.21392545841E+01  0.23888664427E+02  0.00000000000E+00 0.  1.
</event>
<event>
 6    1  0.8653652E-006  0.1447196E+03  0.7561462E-02  0.1207116E+00
          2   -1    0    0  501    0  0.00000000000E+00  0.00000000000E+00  0.47742151158E+03  0.47742151158E+03  0.00000000000E+00 0. -1.
         -2   -1    0    0    0  501 -0.00000000000E+00 -0.00000000000E+00 -0.48052019088E+02  0.48052019088E+02  0.00000000000E+00 0.  1.
          5    1    1    2  502    0  0.37782857822E+02  0.19491467918E+02  0.30624325919E+02  0.52562186074E+02  0.41800000000E+01 0. -1.
         -5    1    1    2    0  502 -0.12141890299E+03  0.41343338468E+01  0.14057018531E+03  0.18584157801E+03  0.41800000000E+01 0.  1.
        -11    1    1    2    0    0  0.28455953323E+02  0.34694245517E+02  0.10317776839E+03  0.11251259414E+03  0.00000000000E+00 0. -1.
         11    1    1    2    0    0  0.55180091845E+02 -0.58320047281E+02  0.15499721288E+03  0.17455717244E+03  0.00000000000E+00 0.  1.
</event>
<event>
 7    1  0.8653652E-006  0.1053592E+03  0.7561462E-02  0.1269414E+00
         -4   -1    0    0    0  501 -0.00000000000E+00  0.00000000000E+00  0.90708051808E+02  0.90708051808E+02  0.00000000000E+00 0.  1.
          4   -1    0    0  501    0  0.00000000000E+00 -0.00000000000E+00 -0.17678116297E+03  0.17678116297E+03  0.00000000000E+00 0. -1.
         23    2    1    2    0    0  0.20555503240E+02 -0.53438618904E+02 -0.74758447153E+01  0.13778398380E+03  0.12510125193E+03 0.  0.
          5    1    3    3  502    0  0.72081764566E+02 -0.28837603370E+02  0.88507010883E+01  0.78250849585E+02  0.41800000000E+01 0. -1.
         -5    1    3    3    0  502 -0.51526261326E+02 -0.24601015534E+02 -0.16326545804E+02  0.59533134214E+02  0.41800000000E+01 0. -1.
        -11    1    1    2    0    0 -0.35857803200E+02  0.47001414222E+02 -0.91322881329E+02  0.10878779179E+03  0.00000000000E+00 0. -1.
         11    1    1    2    0    0  0.15302299960E+02  0.64372046818E+01  0.12725614879E+02  0.20917439189E+02  0.00000000000E+00 0.  1.
</event>
<event>
 7    1  0.8653652E-006  0.8506575E+02  0.7561462E-02  0.1315261E+00
          1   -1    0    0  501    0  0.00000000000E+00  0.00000000000E+00  0.29209807658E+03  0.29209807658E+03  0.00000000000E+00 0. -1.
         -1   -1    0    0    0  501 -0.00000000000E+00 -0.00000000000E+00 -0.50929745200E+02  0.50929745200E+02  0.00000000000E+00 0.  1.
         23    2    1    2    0    0  0.36948768265E+02  0.41054571923E+02  0.12601151312E+03  0.18594889362E+03  0.12508956890E+03 0.  0.
          5    1    3    3  502    0  0.64042378228E+02  0.37164207251E+02  0.13729851052E+03  0.15604793463E+03  0.41800000000E+01 0.  1.
         -5    1    3    3    0  502 -0.27093609963E+02  0.38903646717E+01 -0.11286997408E+02  0.29900958992E+02  0.41800000000E+01 0.  1.
        -11    1    1    2    0    0 -0.89224580530E+01 -0.39188940387E+02  0.17332426279E+01  0.40229186374E+02  0.00000000000E+00 0.  1.
         11    1    1    2    0    0 -0.28026310212E+02 -0.18656315363E+01  0.11342357564E+03  0.11684974179E+03  0.00000000000E+00 0. -1.
</event>
<event>
 7    1  0.8653652E-006  0.1071966E+03  0.7561462E-02  0.1265851E+00
         -2   -1    0    0    0  501 -0.00000000000E+00  0.00000000000E+00  0.68114298596E+02  0.68114298596E+02  0.00000000000E+00 0.  1.
          2   -1    0    0  501    0  0.00000000000E+00 -0.00000000000E+00 -0.18110236094E+03  0.18110236094E+03  0.00000000000E+00 0. -1.
         23    2    1    2    0    0  0.59662715818E+01 -0.13626319481E+01 -0.41051244932E+02  0.13179337325E+03  0.12508731094E+03 0.  0.
          5    1    3    3  502    0  0.50516372641E+02 -0.39804919824E+02 -0.10299828088E+02  0.65267866563E+02  0.41800000000E+01 0. -1.
         -5    1    3    3    0  502 -0.44550101059E+02  0.38442287876E+02 -0.30751416844E+02  0.66525506683E+02  0.41800000000E+01 0. -1.
        -11    1    1    2    0    0  0.38591662277E+02 -0.17737320976E+02 -0.45346442957E+02  0.62130739908E+02  0.00000000000E+00 0.  1.
         11    1    1    2    0    0 -0.44557933858E+02  0.19099952924E+02 -0.26590374452E+02  0.55292546378E+02  0.00000000000E+00 0. -1.
</event>
<event>
 7    1  0.8653652E-006  0.1203324E+03  0.7561462E-02  0.1242550E+00
          1   -1    0    0  501    0  0.00000000000E+00  0.00000000000E+00  0.85785289250E+03  0.85785289250E+03  0.00000000000E+00 0. -1.
         -1   -1    0    0    0  501 -0.00000000000E+00 -0.00000000000E+00 -0.19631586885E+02  0.19631586885E+02  0.00000000000E+00 0.  1.
         23    2    1    2    0    0  0.38142643880E+02  0.76029210910E+02  0.35329682599E+03  0.38070948963E+03  0.11351548811E+03 0.  0.
          5    1    3    3  502    0 -0.24747651860E+02 -0.92828153872E+01  0.13953874481E+03  0.14208149295E+03  0.41800000000E+01 0. -1.
         -5    1    3    3    0  502  0.62890295740E+02  0.85312026297E+02  0.21375808118E+03  0.23862799668E+03  0.41800000000E+01 0.  1.
        -11    1    1    2    0    0  0.20918111112E+01 -0.66441134854E+02  0.29378844366E+03  0.30121495598E+03  0.00000000000E+00 0. -1.
         11    1    1    2    0    0 -0.40234454991E+02 -0.95880760562E+01  0.19113603596E+03  0.19556003378E+03  0.00000000000E+00 0.  1.
</event>
<event>
 7    1  0.8653652E-006  0.1080474E+03  0.7561462E-02  0.1264229E+00
          2   -1    0    0  501    0  0.00000000000E+00  0.00000000000E+00  0.10363072883E+03  0.10363072883E+03  0.00000000000E+00 0. -1.
         -2   -1    0    0    0  501 -0.00000000000E+00 -0.00000000000E+00 -0.21563652541E+03  0.21563652541E+03  0.00000000000E+00 0.  1.
         23    2    1    2    0    0 -0.60819579024E+02 -0.63062690082E+02 -0.11739265007E+03  0.19262436289E+03  0.12508871579E+03 0.  0.
          5    1    3    3  502    0 -0.22249753830E+02 -0.12032954588E+02 -0.12542679446E+03  0.12802029804E+03  0.41800000000E+01 0.  1.
         -5    1    3    3    0  502 -0.38569825194E+02 -0.51029735494E+02  0.80341443868E+01  0.64604064858E+02  0.41800000000E+01 0.  1.
        -11    1    1    2    0    0 -0.20252876449E+02 -0.45851902870E+01 -0.15738255238E+01  0.20824982622E+02  0.00000000000E+00 0.  1.
         11    1    1    2    0    0  0.81072455473E+02  0.67647880369E+02  0.69606790196E+01  0.10581790873E+03  0.00000000000E+00 0. -1.
</event>
<event>
 7    1  0.8653652E-006  0.9493850E+02  0.7561462E-02  0.1291315E+00
          1   -1    0    0  501    0  0.00000000000E+00  0.00000000000E+00  0.34136738735E+02  0.34136738735E+02  0.00000000000E+00 0. -1.
         -1   -1    0    0    0  501 -0.00000000000E+00 -0.00000000000E+00 -0.51898395120E+03  0.51898395120E+03  0.00000000000E+00 0.  1.
         23    2    1    2    0    0  0.44564937638E+01  0.26177508070E+02 -0.41681018024E+03  0.43598540772E+03  0.12508967633E+03 0.  0.
          5    1    3    3  502    0 -0.28214449221E+02  0.59011702487E+02 -0.33946451485E+03  0.34573409641E+03  0.41800000000E+01 0. -1.
         -5    1    3    3    0  502  0.32670942985E+02 -0.32834194417E+02 -0.77345665393E+02  0.90251311313E+02  0.41800000000E+01 0. -1.
        -11    1    1    2    0    0 -0.38554423628E+02 -0.87585195080E+01 -0.54738175210E+00  0.39540547190E+02  0.00000000000E+00 0. -1.
         11    1    1    2    0    0  0.34097929864E+02 -0.17418988562E+02 -0.67489650474E+02  0.77594735032E+02  0.00000000000E+00 0.  1.
</event>
<event>
 7    1  0.8653652E-006  0.1377732E+03  0.7561462E-02  0.1216357E+00
         -1   -1    0    0    0  501 -0.00000000000E+00  0.00000000000E+00  0.42234929324E+02  0.42234929324E+02  0.00000000000E+00 0.  1.
          1   -1    0    0  501    0  0.00000000000E+00 -0.00000000000E+00 -0.49047348741E+03  0.49047348741E+03  0.00000000000E+00 0. -1.
         23    2    1    2    0    0  0.60516662637E+02  0.63159527650E+02 -0.26537178395E+03  0.30613936553E+03  0.12509090703E+03 0.  0.
          5    1    3    3  502    0  0.59288642848E+01 -0.36980287675E+02 -0.80369712265E+02  0.88766300801E+02  0.41800000000E+01 0. -1.
         -5    1    3    3    0  502  0.54587798352E+02  0.10013981532E+03 -0.18500207168E+03  0.21737306473E+03  0.41800000000E+01 0. -1.
        -11    1    1    2    0    0 -0.82181018236E+02 -0.60191254584E+02 -0.17651315624E+03  0.20379794212E+03  0.00000000000E+00 0. -1.
         11    1    1    2    0    0  0.21664355599E+02 -0.29682730657E+01 -0.63536178977E+01  0.22771109084E+02  0.00000000000E+00 0.  1.
</event>
<event>
 7    1  0.8653652E-006  0.9833953E+02  0.7561462E-02  0.1283827E+00
          1   -1    0    0  501    0  0.00000000000E+00  0.00000000000E+00  0.42226673247E+02  0.42226673247E+02  0.00000000000E+00 0. -1.
         -1   -1    0    0    0  501 -0.00000000000E+00 -0.00000000000E+00 -0.60555913014E+03  0.60555913014E+03  0.00000000000E+00 0.  1.
         23    2    1    2    0    0 -0.17343849603E+02 -0.22291236714E+02 -0.52873254161E+03  0.54427774230E+03  0.12602559999E+03 0.  0.
          5    1    3    3  502    0 -0.54639585256E+02  0.56640294135E+01 -0.11087092849E+03  0.12380387994E+03  0.41800000000E+01 0. -1.
         -5    1    3    3    0  502  0.37295735653E+02 -0.27955266127E+02 -0.41786161312E+03  0.42047386236E+03  0.41800000000E+01 0.  1.
        -11    1    1    2    0    0 -0.37188546250E+02  0.13453167229E+02 -0.26665535037E+02  0.47697237231E+02  0.00000000000E+00 0. -1.
         11    1    1    2    0    0  0.54532395853E+02  0.88380694851E+01 -0.79343802489E+01  0.55810823857E+02  0.00000000000E+00 0.  1.
</event>
<event>
 7    1  0.8653652E-006  0.1032448E+03  0.7561462E-02  0.1273617E+00
         -2   -1    0    0    0  501 -0.00000000000E+00  0.00000000000E+00  0.57331640879E+02  0.57331640879E+02  0.00000000000E+00 0.  1.
          2   -1    0    0  501    0  0.00000000000E+00 -0.00000000000E+00 -0.21999048504E+03  0.21999048504E+03  0.00000000000E+00 0. -1.
         23    2    1    2    0    0 -0.29745244783E+02 -0.12039049724E+02 -0.73648122823E+02  0.14866378638E+03  0.12508859692E+03 0.  0.
          5    1    3    3  502    0 -0.75621075487E+02 -0.78955468338E+01 -0.67960318205E+02  0.10206352908E+03  0.41800000000E+01 0. -1.
         -5    1    3    3    0  502  0.45875830704E+02 -0.41435028901E+01 -0.56878046182E+01  0.46600257299E+02  0.41800000000E+01 0. -1.
        -11    1    1    2    0    0  0.44421372938E+02  0.35196116851E+02 -0.83142093507E+02  0.10062123398E+03  0.00000000000E+00 0. -1.
         11    1    1    2    0    0 -0.14676128154E+02 -0.23157067127E+02 -0.58686278285E+01  0.28037105559E+02  0.00000000000E+00 0.  1.
</event>
<event>
 7    1  0.8653652E-006  0.9228550E+02  0.7561462E-02  0.1297410E+00
          2   -1    0    0  501    0  0.00000000000E+00  0.00000000000E+00  0.27805180377E+02  0.27805180377E+02  0.00000000000E+00 0.  1.
         -2   -1    0    0    0  501 -0.00000000000E+00 -0.00000000000E+00 -0.38386910270E+03  0.38386910270E+03  0.00000000000E+00 0. -1.
         23    2    1    2    0    0  0.23292529233E+02  0.10387769090E+02 -0.22323207732E+03  0.25715657433E+03  0.12508595329E+03 0.  0.
          5    1    3    3  502    0 -0.47753794950E+02  0.25858806378E+02 -0.86030894150E+02  0.10182283608E+03  0.41800000000E+01 0.  1.
         -5    1    3    3    0  502  0.71046324183E+02 -0.15471037287E+02 -0.13720118317E+03  0.15533373824E+03  0.41800000000E+01 0.  1.
        -11    1    1    2    0    0 -0.39745987070E+02 -0.56077424247E+01 -0.29599213444E+02  0.49872875391E+02  0.00000000000E+00 0.  1.
         11    1    1    2    0    0  0.16453457837E+02 -0.47800266657E+01 -0.10323263156E+03  0.10464483336E+03  0.00000000000E+00 0. -1.
</event>
<event>
 7    1  0.8653652E-006  0.1386325E+03  0.7561462E-02  0.1215181E+00
         -2   -1    0    0    0  501 -0.00000000000E+00  0.00000000000E+00  0.25852243136E+02  0.25852243136E+02  0.00000000000E+00 0. -1.
          2   -1    0    0  501    0  0.00000000000E+00 -0.00000000000E+00 -0.11712385896E+04  0.11712385896E+04  0.00000000000E+00 0.  1.
         23    2    1    2    0    0  0.13510588296E+03 -0.22872376932E+02 -0.61737436330E+03  0.64465024257E+03  0.12508431378E+03 0.  0.
          5    1    3    3  502    0  0.83528065896E+02 -0.23543729967E+00 -0.55181119507E+03  0.55811294612E+03  0.41800000000E+01 0.  1.
         -5    1    3    3    0  502  0.51577817060E+02 -0.22636939633E+02 -0.65563168223E+02  0.86537296445E+02  0.41800000000E+01 0.  1.
        -11    1    1    2    0    0 -0.85069166022E+02  0.11560973357E+02 -0.45608076654E+03  0.46409059969E+03  0.00000000000E+00 0.  1.
         11    1    1    2    0    0 -0.50036716933E+02  0.11311403576E+02 -0.71931216643E+02  0.88349990493E+02  0.00000000000E+00 0. -1.
</event>
<event>
 7    1  0.8653652E-006  0.9188810E+02  0.7561462E-02  0.1298343E+00
          1   -1    0    0  501    0  0.00000000000E+00  0.00000000000E+00  0.75501939506E+02  0.75501939506E+02  0.00000000000E+00 0. -1.
         -1   -1    0    0    0  501 -0.00000000000E+00 -0.00000000000E+00 -0.26145133342E+03  0.26145133342E+03  0.00000000000E+00 0.  1.
         23    2    1    2    0    0  0.71662763957E+02  0.47789371461E+02 -0.13029535949E+03  0.20009978838E+03  0.12507465307E+03 0.  0.
          5    1    3    3  502    0  0.35080881346E+00  0.19388367003E+02  0.21926607501E+02  0.29568232250E+02  0.41800000000E+01 0. -1.
         -5    1    3    3    0  502  0.71311955144E+02  0.28401004458E+02 -0.15222196699E+03  0.17053155613E+03  0.41800000000E+01 0. -1.
        -11    1    1    2    0    0 -0.45080428226E+02 -0.37218354265E+02 -0.80141343223E+02  0.99197206598E+02  0.00000000000E+00 0.  1.
         11    1    1    2    0    0 -0.26582335731E+02 -0.10571017197E+02  0.24487308795E+02  0.37656277956E+02  0.00000000000E+00 0. -1.
</event>
<event>
 7    1  0.8653652E-006  0.1262345E+03  0.7561462E-02  0.1233153E+00
         -2   -1    0    0    0  501 -0.00000000000E+00  0.00000000000E+00  0.58718005159E+02  0.58718005159E+02  0.00000000000E+00 0.  1.
          2   -1    0    0  501    0  0.00000000000E+00 -0.00000000000E+00 -0.29646508373E+03  0.29646508373E+03  0.00000000000E+00 0. -1.
         23    2    1    2    0    0 -0.66946049349E+02  0.81784732874E+01 -0.10569290593E+03  0.17710589584E+03  0.12508735760E+03 0.  0.
          5    1    3    3  502    0 -0.13587596346E+02 -0.54923324653E+02 -0.60038530212E+02  0.82603219522E+02  0.41800000000E+01 0.  1.
         -5    1    3    3    0  502 -0.53358453003E+02  0.63101797941E+02 -0.45654375714E+02  0.94502676322E+02  0.41800000000E+01 0.  1.
        -11    1    1    2    0    0  0.88260038641E+02  0.41723587006E+01 -0.74872587471E+02  0.11581514302E+03  0.00000000000E+00 0.  1.
         11    1    1    2    0    0 -0.21313989292E+02 -0.12350831988E+02 -0.57181585175E+02  0.62262050026E+02  0.00000000000E+00 0. -1.
</event>
<event>
 7    1  0.8653652E-006  0.1003048E+03  0.7561462E-02  0.1279656E+00
         -2   -1    0    0    0  501 -0.00000000000E+00  0.00000000000E+00  0.58744144414E+02  0.58744144414E+02  0.00000000000E+00 0.  1.
          2   -1    0    0  501    0  0.00000000000E+00 -0.00000000000E+00 -0.27207236313E+03  0.27207236313E+03  0.00000000000E+00 0. -1.
         23    2    1    2    0    0 -0.36531564487E+02 -0.15225609444E+02 -0.50323524488E+02  0.14052095143E+03  0.12508919333E+03 0.  0.
          5    1    3    3  502    0  0.37925562248E+02  0.47771759140E+01  0.13076730576E+02  0.40615796978E+02  0.41800000000E+01 0. -1.
         -5    1    3    3    0  502 -0.74457126735E+02 -0.20002785358E+02 -0.63400255064E+02  0.99905154451E+02  0.41800000000E+01 0. -1.
        -11    1    1    2    0    0  0.55449058756E+02 -0.68534394098E+01 -0.54827198259E+02  0.78278920647E+02  0.00000000000E+00 0.  1.
         11    1    1    2    0    0 -0.18917494269E+02  0.22079048854E+02 -0.10817749597E+03  0.11201663547E+03  0.00000000000E+00 0. -1.
</event>
<event>
 7    1  0.8653652E-006  0.1181463E+03  0.7561462E-02  0.1246187E+00
          2   -1    0    0  501    0  0.00000000000E+00  0.00000000000E+00  0.62016535106E+03  0.62016535106E+03  0.00000000000E+00 0. -1.
         -2   -1    0    0    0  501 -0.00000000000E+00 -0.00000000000E+00 -0.42711715043E+02  0.42711715043E+02  0.00000000000E+00 0.  1.
         23    2    1    2    0    0  0.95451280125E+02  0.52870555242E+02  0.20211849275E+03  0.26154502233E+03  0.12509065155E+03 0.  0.
          5    1    3    3  502    0  0.78433217572E+02  0.22409939713E+02  0.21017791888E+03  0.22549103086E+03  0.41800000000E+01 0.  1.
         -5    1    3    3    0  502  0.17018062553E+02  0.30460615529E+02 -0.80594261250E+01  0.36053991470E+02  0.41800000000E+01 0.  1.
        -11    1    1    2    0    0 -0.71276978269E+02 -0.12423809431E+02  0.10877936358E+03  0.13064344076E+03  0.00000000000E+00 0.  1.
         11    1    1    2    0    0 -0.24174301856E+02 -0.40446745811E+02  0.26655577968E+03  0.27068860301E+03  0.00000000000E+00 0. -1.
</event>
<event>
 7    1  0.8653652E-006  0.1029817E+03  0.7561462E-02  0.1274148E+00
          1   -1    0    0  501    0  0.00000000000E+00  0.00000000000E+00  0.32792933459E+03  0.32792933459E+03  0.00000000000E+00 0. -1.
         -1   -1    0    0    0  501 -0.00000000000E+00 -0.00000000000E+00 -0.69786142434E+02  0.69786142434E+02  0.00000000000E+00 0.  1.
         23    2    1    2    0    0 -0.30002839090E+02  0.84342551497E+02  0.62025918159E+02  0.16585627115E+03  0.12508897557E+03 0.  0.
          5    1    3    3  502    0  0.29355555208E+01 -0.89784677411E+01  0.65923612672E+02  0.66727996200E+02  0.41800000000E+01 0.  1.
         -5    1    3    3    0  502 -0.32938394611E+02  0.93321019238E+02 -0.38976945130E+01  0.99128274945E+02  0.41800000000E+01 0.  1.
        -11    1    1    2    0    0  0.28609056869E+02 -0.27371214119E+02  0.15898477471E+03  0.16384083766E+03  0.00000000000E+00 0. -1.
         11    1    1    2    0    0  0.13937822207E+01 -0.56971337378E+02  0.37132499293E+02  0.68018368220E+02  0.00000000000E+00 0.  1.
</event>
<event>
 7    1  0.8653652E-006  0.1035665E+03  0.7561462E-02  0.1272970E+00
         -1   -1    0    0    0  501 -0.00000000000E+00  0.00000000000E+00  0.37674611660E+03  0.37674611660E+03  0.00000000000E+00 0.  1.
          1   -1    0    0  501    0  0.00000000000E+00 -0.00000000000E+00 -0.47643078065E+02  0.47643078065E+02  0.00000000000E+00 0. -1.
         23    2    1    2    0    0 -0.35984573124E+02 -0.66577817491E+02  0.22262683182E+03  0.26634211641E+03  0.12509165218E+03 0.  0.
          5    1    3    3  502    0 -0.23812887790E+02 -0.86763247234E+02  0.22492963660E+03  0.24229265056E+03  0.41800000000E+01 0.  1.
         -5    1    3    3    0  502 -0.12171685333E+02  0.20185429744E+02 -0.23028047805E+01  0.24049465850E+02  0.41800000000E+01 0.  1.
        -11    1    1    2    0    0 -0.10484675457E+02  0.36005544909E+02  0.93768968313E+02  0.10098983663E+03  0.00000000000E+00 0.  1.
         11    1    1    2    0    0  0.46469248581E+02  0.30572272582E+02  0.12707238408E+02  0.57057241630E+02  0.00000000000E+00 0. -1.
</event>
<event>
 7    1  0.8653652E-006  0.1133794E+03  0.7561462E-02  0.1254437E+00
          4   -1    0    0  501    0  0.00000000000E+00  0.00000000000E+00  0.60953092076E+03  0.60953092076E+03  0.00000000000E+00 0. -1.
         -4   -1    0    0    0  501 -0.00000000000E+00 -0.00000000000E+00 -0.31782720559E+02  0.31782720559E+02  0.00000000000E+00 0.  1.
         23    2    1    2    0    0 -0.36761145915E+02  0.59576890172E+02  0.16877639890E+03  0.21646558339E+03  0.11606501745E+03 0.  0.
          5    1    3    3  502    0 -0.42259009906E+01 -0.22620329375E+02  0.10450229663E+03  0.10708753401E+03  0.41800000000E+01 0. -1.
         -5    1    3    3    0  502 -0.32535244924E+02  0.82197219546E+02  0.64274102272E+02  0.10937804938E+03  0.41800000000E+01 0.  1.
        -11    1    1    2    0    0  0.66242551289E+02 -0.52568469519E+02  0.29010709684E+03  0.30218148062E+03  0.00000000000E+00 0. -1.
         11    1    1    2    0    0 -0.29481405374E+02 -0.70084206532E+01  0.11886470446E+03  0.12266657731E+03  0.00000000000E+00 0.  1.
</event>
<event>
 7    1  0.8653652E-006  0.3293222E+03  0.7561462E-02  0.1071437E+00
          1   -1    0    0  501    0  0.00000000000E+00  0.00000000000E+00  0.29142064517E+03  0.29142064517E+03  0.00000000000E+00 0. -1.
         -1   -1    0    0    0  501 -0.00000000000E+00 -0.00000000000E+00 -0.37910809276E+03  0.37910809276E+03  0.00000000000E+00 0.  1.
         23    2    1    2    0    0  0.31455239342E+03 -0.14206170009E+02 -0.49923217527E+02  0.34246810267E+03  0.12508816979E+03 0.  0.
          5    1    3    3  502    0  0.76089945373E+02  0.43388778847E+02  0.14294285097E+02  0.88848550372E+02  0.41800000000E+01 0.  1.
         -5    1    3    3    0  502  0.23846244805E+03 -0.57594948856E+02 -0.64217502624E+02  0.25361955230E+03  0.41800000000E+01 0.  1.
        -11    1    1    2    0    0 -0.80757046338E+01 -0.15711075604E+02  0.10192902255E+01  0.17694458300E+02  0.00000000000E+00 0.  1.
         11    1    1    2    0    0 -0.30647668879E+03  0.29917245613E+02 -0.38783520286E+02  0.31036617696E+03  0.00000000000E+00 0. -1.
</event>
<event>
 7    1  0.8653652E-006  0.1387198E+03  0.7561462E-02  0.1215062E+00
         -2   -1    0    0    0  501 -0.00000000000E+00  0.00000000000E+00  0.11629407564E+03  0.11629407564E+03  0.00000000000E+00 0.  1.
          2   -1    0    0  501    0  0.00000000000E+00 -0.00000000000E+00 -0.23383962828E+03  0.23383962828E+03  0.00000000000E+00 0. -1.
         23    2    1    2    0    0 -0.10766854294E+03  0.33813090840E+02  0.83946009970E+01  0.15789954465E+03  0.11011792145E+03 0.  0.
          5    1    3    3  502    0  0.99352623340E+01  0.64347660144E+01 -0.28854500784E+02  0.31466971046E+02  0.41800000000E+01 0. -1.
         -5    1    3    3    0  502 -0.11760380527E+03  0.27378324825E+02  0.37249101781E+02  0.12643257361E+03  0.41800000000E+01 0.  1.
        -11    1    1    2    0    0  0.11660210283E+03 -0.81441270157E+01 -0.11112387517E+03  0.16127892864E+03  0.00000000000E+00 0. -1.
         11    1    1    2    0    0 -0.89335598941E+01 -0.25668963824E+02 -0.14816278467E+02  0.30955230637E+02  0.00000000000E+00 0.  1.
</event>
<event>
 7    1  0.1419162E-005  0.2552161E+03  0.7561462E-02  0.1110052E+00
         -2   -1    0    0    0  501 -0.00000000000E+00  0.00000000000E+00  0.12740320837E+03  0.12740320837E+03  0.00000000000E+00 0.  1.
          2   -1    0    0  501    0  0.00000000000E+00 -0.00000000000E+00 -0.55299302272E+03  0.55299302272E+03  0.00000000000E+00 0. -1.
         23    2    1    2    0    0  0.19888294290E+03 -0.12191094398E+03 -0.13395949599E+03  0.29666364536E+03  0.12508984240E+03 0.  0.
          5    1    3    3  502    0  0.56675875373E+02 -0.10588730505E+03 -0.46260644727E+02  0.12877032216E+03  0.41800000000E+01 0. -1.
         -5    1    3    3    0  502  0.14220706753E+03 -0.16023638932E+02 -0.87698851259E+02  0.16789332319E+03  0.41800000000E+01 0. -1.
        -11    1    1    2    0    0 -0.13993483753E+03  0.38832133947E+02 -0.14525002559E+03  0.20539538290E+03  0.00000000000E+00 0.  1.
         11    1    1    2    0    0 -0.58948105374E+02  0.83078810032E+02 -0.14638029277E+03  0.17833720284E+03  0.00000000000E+00 0. -1.
</event>
<event>
 6    1  0.8653652E-006  0.9564539E+02  0.7561462E-02  0.1289729E+00
          2   -1    0    0  501    0  0.00000000000E+00  0.00000000000E+00  0.14751513435E+03  0.14751513435E+03  0.00000000000E+00 0. -1.
         -2   -1    0    0    0  501 -0.00000000000E+00 -0.00000000000E+00 -0.11075723699E+03  0.11075723699E+03  0.00000000000E+00 0.  1.
          5    1    1    2  502    0 -0.84553570531E+01 -0.72563578313E+00  0.62888061557E+02  0.63595599664E+02  0.41800000000E+01 0. -1.
         -5    1    1    2    0  502  0.64348031363E+02  0.50406341338E+02 -0.44266207339E+02  0.93050727561E+02  0.41800000000E+01 0.  1.
        -11    1    1    2    0    0 -0.14538735322E+02 -0.56261294169E+02  0.11283478177E+02  0.59194804891E+02  0.00000000000E+00 0. -1.
         11    1    1    2    0    0 -0.41353938989E+02  0.65805886133E+01  0.68525649648E+01  0.42431239234E+02  0.00000000000E+00 0.  1.
</event>
<event>
 7    1  0.8653652E-006  0.1096704E+03  0.7561462E-02  0.1261181E+00
          2   -1    0    0  501    0  0.00000000000E+00  0.00000000000E+00  0.13663491384E+02  0.13663491384E+02  0.00000000000E+00 0. -1.
         -2   -1    0    0    0  501 -0.00000000000E+00 -0.00000000000E+00 -0.10895319237E+04  0.10895319237E+04  0.00000000000E+00 0.  1.
         23    2    1    2    0    0  0.49977271743E+02  0.13617363275E+01 -0.73464298082E+03  0.74689179023E+03  0.12508978786E+03 0.  0.
          5    1    3    3  502    0 -0.32971432753E+02  0.12053463033E+02 -0.41357217561E+03  0.41508049603E+03  0.41800000000E+01 0.  1.
         -5    1    3    3    0  502  0.82948704496E+02 -0.10691726705E+02 -0.32107080521E+03  0.33181129420E+03  0.41800000000E+01 0.  1.
        -11    1    1    2    0    0  0.19395201304E+02 -0.20563482897E+02 -0.13351300322E+03  0.13647253457E+03  0.00000000000E+00 0.  1.
         11    1    1    2    0    0 -0.69372473047E+02  0.19201746569E+02 -0.20771244826E+03  0.21983109028E+03  0.00000000000E+00 0. -1.
</event>
<event>
 7    1  0.8653652E-006  0.1257550E+03  0.7561462E-02  0.1233894E+00
          2   -1    0    0  501    0  0.00000000000E+00  0.00000000000E+00  0.42472781028E+03  0.42472781028E+03  0.00000000000E+00 0. -1.
         -2   -1    0    0    0  501 -0.00000000000E+00 -0.00000000000E+00 -0.38746987042E+02  0.38746987042E+02  0.00000000000E+00 0.  1.
         23    2    1    2    0    0 -0.64764183317E+02 -0.43306372483E+01  0.18601881828E+03  0.23337549172E+03  0.12509182835E+03 0.  0.
          5    1    3    3  502    0  0.94400717421E+01 -0.50583946944E+02  0.87399331309E+02  0.10150845362E+03  0.41800000000E+01 0. -1.
         -5    1    3    3    0  502 -0.74204255059E+02  0.46253309695E+02  0.98619486975E+02  0.13186703810E+03  0.41800000000E+01 0. -1.
        -11    1    1    2    0    0  0.14800549113E+02 -0.41798839915E+02  0.61256846914E+02  0.75621429278E+02  0.00000000000E+00 0.  1.
         11    1    1    2    0    0  0.49963634204E+02  0.46129477164E+02  0.13870515804E+03  0.15447787633E+03  0.00000000000E+00 0. -1.
</event>
<event>
 7    1  0.8653652E-006  0.1132646E+03  0.7561462E-02  0.1254641E+00
         -1   -1    0    0    0  501 -0.00000000000E+00  0.00000000000E+00  0.99472247271E+03  0.99472247271E+03  0.00000000000E+00 0.  1.
          1   -1    0    0  501    0  0.00000000000E+00 -0.00000000000E+00 -0.19511277411E+02  0.19511277411E+02  0.00000000000E+00 0. -1.
         23    2    1    2    0    0  0.52139166546E+02 -0.69622426762E+02  0.53962195847E+03  0.56071962491E+03  0.12509542240E+03 0.  0.
          5    1    3    3  502    0  0.69965746103E+02 -0.35781882398E+02  0.15172981628E+03  0.17092383767E+03  0.41800000000E+01 0. -1.
         -5    1    3    3    0  502 -0.17826579557E+02 -0.33840544364E+02  0.38789214219E+03  0.38979578724E+03  0.41800000000E+01 0. -1.
        -11    1    1    2    0    0 -0.14333817879E+02  0.70098182012E+02  0.37738806522E+03  0.38411061588E+03  0.00000000000E+00 0.  1.
         11    1    1    2    0    0 -0.37805348667E+02 -0.47575524996E+00  0.58201171609E+02  0.69403509331E+02  0.00000000000E+00 0. -1.
</event>
<event>
 7    1  0.8653652E-006  0.1415793E+03  0.7561462E-02  0.1211220E+00
         -1   -1    0    0    0  501 -0.00000000000E+00  0.00000000000E+00  0.32440158760E+02  0.32440158760E+02  0.00000000000E+00 0.  1.
          1   -1    0    0  501    0  0.00000000000E+00 -0.00000000000E+00 -0.10802654652E+04  0.10802654652E+04  0.00000000000E+00 0. -1.
         23    2    1    2    0    0 -0.12611132687E+03 -0.27556213091E+00 -0.29825089924E+03  0.34713654530E+03  0.12508412966E+03 0.  0.
          5    1    3    3  502    0 -0.11544269381E+03 -0.97864357736E+01 -0.11504588333E+03  0.16332733253E+03  0.41800000000E+01 0. -1.
         -5    1    3    3    0  502 -0.10668633057E+02  0.95108736427E+01 -0.18320501590E+03  0.18380921278E+03  0.41800000000E+01 0. -1.
        -11    1    1    2    0    0  0.59706114747E+02 -0.42551530445E+02 -0.28256545031E+03  0.29192239823E+03  0.00000000000E+00 0.  1.
         11    1    1    2    0    0  0.66405212120E+02  0.42827092576E+02 -0.46700895690E+03  0.47364668042E+03  0.00000000000E+00 0. -1.
</event>
<event>
 7    1  0.8653652E-006  0.7858798E+02  0.7561462E-02  0.1333107E+00
         -2   -1    0    0    0  501 -0.00000000000E+00  0.00000000000E+00  0.45880343379E+02  0.45880343379E+02  0.00000000000E+00 0. -1.
          2   -1    0    0  501    0  0.00000000000E+00 -0.00000000000E+00 -0.39531143593E+03  0.39531143593E+03  0.00000000000E+00 0.  1.
         23    2    1    2    0    0  0.60784051457E+02 -0.40248177302E+02 -0.14050577653E+03  0.20175144073E+03  0.12508858424E+03 0.  0.
          5    1    3    3  502    0  0.11739850134E+02 -0.25207689949E+02 -0.14718871099E+03  0.14985072824E+03  0.41800000000E+01 0. -1.
         -5    1    3    3    0  502  0.49044201323E+02 -0.15040487352E+02  0.66829344523E+01  0.51900712481E+02  0.41800000000E+01 0. -1.
        -11    1    1    2    0    0 -0.11405197046E+02  0.22301044883E+02 -0.10952598241E+01  0.25072190104E+02  0.00000000000E+00 0. -1.
         11    1    1    2    0    0 -0.49378854411E+02  0.17947132419E+02 -0.20783005619E+03  0.21436814848E+03  0.00000000000E+00 0.  1.
</event>
<event>
 7    1  0.8653652E-006  0.1501679E+03  0.7561462E-02  0.1200267E+00
          2   -1    0    0  501    0  0.00000000000E+00  0.00000000000E+00  0.49734479637E+03  0.49734479637E+03  0.00000000000E+00 0.  1.
         -2   -1    0    0    0  501 -0.00000000000E+00 -0.00000000000E+00 -0.71387152248E+02  0.71387152248E+02  0.00000000000E+00 0. -1.
         23    2    1    2    0    0  0.11062914638E+03 -0.75688151504E+02  0.11144343401E+03  0.21455540601E+03  0.12508748521E+03 0.  0.
          5    1    3    3  502    0 -0.75431233754E+01 -0.25399863146E+02 -0.17889573231E+02  0.32242223690E+02  0.41800000000E+01 0. -1.
         -5    1    3    3    0  502  0.11817226976E+03 -0.50288288358E+02  0.12933300724E+03  0.18231318232E+03  0.41800000000E+01 0. -1.
        -11    1    1    2    0    0 -0.74783644879E+02  0.17709618857E+02  0.84256617174E+02  0.11404122798E+03  0.00000000000E+00 0. -1.
         11    1    1    2    0    0 -0.35845501503E+02  0.57978532647E+02  0.23025759294E+03  0.24013531463E+03  0.00000000000E+00 0.  1.
</event>
<event>
 7    1  0.8653652E-006  0.1158501E+03  0.7561462E-02  0.1250104E+00
          1   -1    0    0  501    0  0.00000000000E+00  0.00000000000E+00  0.42912757450E+02  0.42912757450E+02  0.00000000000E+00 0. -1.
         -1   -1    0    0    0  501 -0.00000000000E+00 -0.00000000000E+00 -0.39743159842E+03  0.39743159842E+03  0.00000000000E+00 0.  1.
         23    2    1    2    0    0 -0.14646483666E+02 -0.42312587921E+02 -0.28904346318E+03  0.31811780662E+03  0.12509172916E+03 0.  0.
          5    1    3    3  502    0 -0.59565214418E+02  0.13316231093E+02 -0.13805970502E+03  0.15100758699E+03  0.41800000000E+01 0.  1.
         -5    1    3    3    0  502  0.44918730752E+02 -0.55628819014E+02 -0.15098375816E+03  0.16711021963E+03  0.41800000000E+01 0.  1.
        -11    1    1    2    0    0  0.49417643432E+02  0.40819775158E+02 -0.58399467871E+02  0.86711333596E+02  0.00000000000E+00 0.  1.
         11    1    1    2    0    0 -0.34771159766E+02  0.14928127632E+01 -0.70759099184E+01  0.35515215649E+02  0.00000000000E+00 0. -1.
</event>
<event>
 7    1  0.8653652E-006  0.9116058E+02  0.7561462E-02  0.1300065E+00
          1   -1    0    0  501    0  0.00000000000E+00  0.00000000000E+00  0.55401341882E+03  0.55401341882E+03  0.00000000000E+00 0. -1.
         -1   -1    0    0    0  501 -0.00000000000E+00 -0.00000000000E+00 -0.31338595991E+02  0.31338595991E+02  0.00000000000E+00 0.  1.
         23    2    1    2    0    0 -0.57330349276E+02 -0.42295495761E+02  0.23632258915E+03  0.27671533335E+03  0.12508929474E+03 0.  0.
          5    1    3    3  502    0 -0.23917190100E+02 -0.31805991579E+02  0.23324196892E+01  0.40081986780E+02  0.41800000000E+01 0. -1.
         -5    1    3    3    0  502 -0.33413159175E+02 -0.10489504182E+02  0.23399016946E+03  0.23663334657E+03  0.41800000000E+01 0. -1.
        -11    1    1    2    0    0  0.52751077085E+02 -0.10716096676E+02  0.20078126941E+03  0.20787166475E+03  0.00000000000E+00 0. -1.
         11    1    1    2    0    0  0.45792721908E+01  0.53011592437E+02  0.85570964271E+02  0.10076501671E+03  0.00000000000E+00 0.  1.
</event>
<event>
 7    1  0.8653652E-006  0.1126551E+03  0.7561462E-02  0.1255731E+00
          3   -1    0    0  501    0  0.00000000000E+00  0.00000000000E+00  0.72534588444E+02  0.72534588444E+02  0.00000000000E+00 0. -1.
         -3   -1    0    0    0  501 -0.00000000000E+00 -0.00000000000E+00 -0.25168034037E+03  0.25168034037E+03  0.00000000000E+00 0.  1.
         23    2    1    2    0    0 -0.60520868436E+02  0.32729362454E+02 -0.14643627429E+03  0.20451230075E+03  0.12509081521E+03 0.  0.
          5    1    3    3  502    0 -0.88788633876E+02  0.13490734840E+02 -0.51706078533E+02  0.10371312544E+03  0.41800000000E+01 0. -1.
         -5    1    3    3    0  502  0.28267765440E+02  0.19238627614E+02 -0.94730195753E+02  0.10079917531E+03  0.41800000000E+01 0. -1.
        -11    1    1    2    0    0  0.75806008300E+02 -0.37989341547E+02 -0.48013464910E+02  0.97442463938E+02  0.00000000000E+00 0.  1.
         11    1    1    2    0    0 -0.15285139865E+02  0.52599790924E+01  0.15303987267E+02  0.22260164128E+02  0.00000000000E+00 0. -1.
</event>
<event>
 7    1  0.8653652E-006  0.1410697E+03  0.7561462E-02  0.1211897E+00
          2   -1    0    0  501    0  0.00000000000E+00  0.00000000000E+00  0.22266680180E+03  0.22266680180E+03  0.00000000000E+00 0. -1.
         -2   -1    0    0    0  501 -0.00000000000E+00 -0.00000000000E+00 -0.12013926996E+03  0.12013926996E+03  0.00000000000E+00 0.  1.
         23    2    1    2    0    0 -0.81132352903E+02 -0.80536911470E+02  0.99849762951E+01  0.16974066804E+03  0.12507414537E+03 0.  0.
          5    1    3    3  502    0 -0.38864386913E+02 -0.10947794401E+03  0.18290726276E+02  0.11767703201E+03  0.41800000000E+01 0.  1.
         -5    1    3    3    0  502 -0.42267965990E+02  0.28941032545E+02 -0.83057499808E+01  0.52063636028E+02  0.41800000000E+01 0.  1.
        -11    1    1    2    0    0  0.48107997239E+02  0.43303242154E+02 -0.35767755521E+01  0.64825484979E+02  0.00000000000E+00 0.  1.
         11    1    1    2    0    0  0.33024355664E+02  0.37233669315E+02  0.96119331103E+02  0.10823991874E+03  0.00000000000E+00 0. -1.
</event>
<event>
 7    1  0.8653652E-006  0.1728047E+03  0.7561462E-02  0.1174954E+00
          1   -1    0    0  501    0  0.00000000000E+00  0.00000000000E+00  0.11741622018E+03  0.11741622018E+03  0.00000000000E+00 0. -1.
         -1   -1    0    0    0  501 -0.00000000000E+00 -0.00000000000E+00 -0.33646025046E+03  0.33646025046E+03  0.00000000000E+00 0.  1.
         23    2    1    2    0    0 -0.99881227830E+02 -0.10524853092E+03 -0.20693540861E+03  0.28200120052E+03  0.12509556677E+03 0.  0.
          5    1    3    3  502    0 -0.55799373514E+02 -0.11650407430E+03 -0.92942568146E+02  0.15919347595E+03  0.41800000000E+01 0. -1.
         -5    1    3    3    0  502 -0.44081854315E+02  0.11255543377E+02 -0.11399284047E+03  0.12280772457E+03  0.41800000000E+01 0. -1.
        -11    1    1    2    0    0 -0.96236916870E+01  0.44340126928E+02 -0.10448504704E+02  0.46559999444E+02  0.00000000000E+00 0.  1.
         11    1    1    2    0    0  0.10950491952E+03  0.60908403991E+02 -0.16601169628E+01  0.12531527067E+03  0.00000000000E+00 0. -1.
</event>
<event>
 7    1  0.8653652E-006  0.1684888E+03  0.7561462E-02  0.1179433E+00
         -2   -1    0    0    0  501 -0.00000000000E+00  0.00000000000E+00  0.41087895422E+02  0.41087895422E+02  0.00000000000E+00 0.  1.
          2   -1    0    0  501    0  0.00000000000E+00 -0.00000000000E+00 -0.87690498903E+03  0.87690498903E+03  0.00000000000E+00 0. -1.
         23    2    1    2    0    0  0.41040242604E+02 -0.12045342287E+03 -0.22809535725E+03  0.28960215813E+03  0.12509432201E+03 0.  0.
          5    1    3    3  502    0 -0.35977598415E+02 -0.16808442203E+01 -0.37631442228E+02  0.52257159023E+02  0.41800000000E+01 0. -1.
         -5    1    3    3    0  502  0.77017841019E+02 -0.11877257865E+03 -0.19046391502E+03  0.23734499910E+03  0.41800000000E+01 0. -1.
        -11    1    1    2    0    0 -0.71865225871E+02  0.72420704566E+02 -0.41793780356E+03  0.43021085154E+03  0.00000000000E+00 0.  1.
         11    1    1    2    0    0  0.30824983266E+02  0.48032718305E+02 -0.18978393280E+03  0.19817987478E+03  0.00000000000E+00 0. -1.
</event>
<event>
 7    1  0.8653652E-006  0.9691240E+02  0.7561462E-02  0.1286926E+00
          2   -1    0    0  501    0  0.00000000000E+00  0.00000000000E+00  0.30123575667E+03  0.30123575667E+03  0.00000000000E+00 0. -1.
         -2   -1    0    0    0  501 -0.00000000000E+00 -0.00000000000E+00 -0.64984334440E+02  0.64984334440E+02  0.00000000000E+00 0.  1.
         23    2    1    2    0    0  0.56292050659E+02 -0.51549443479E+02  0.68971560068E+02  0.16196521816E+03  0.12509802438E+03 0.  0.
          5    1    3    3  502    0  0.11831590605E+02  0.11007440575E+02 -0.31390600286E+02  0.35552671778E+02  0.41800000000E+01 0. -1.
         -5    1    3    3    0  502  0.44460460054E+02 -0.62556884054E+02  0.10036216035E+03  0.12641254638E+03  0.41800000000E+01 0. -1.
        -11    1    1    2    0    0 -0.30264615254E+02 -0.11253770129E+02  0.11480869270E+02  0.34269587651E+02  0.00000000000E+00 0.  1.
         11    1    1    2    0    0 -0.26027435405E+02  0.62803213608E+02  0.15579899290E+03  0.16998528531E+03  0.00000000000E+00 0. -1.
</event>
<event>
 7    1  0.8653652E-006  0.9373502E+02  0.7561462E-02  0.1294051E+00
         -2   -1    0    0    0  501 -0.00000000000E+00  0.00000000000E+00  0.32293190338E+02  0.32293190338E+02  0.00000000000E+00 0.  1.
          2   -1    0    0  501    0  0.00000000000E+00 -0.00000000000E+00 -0.45479616827E+03  0.45479616827E+03  0.00000000000E+00 0. -1.
         23    2    1    2    0    0  0.44426571833E+02 -0.22054729796E+01 -0.18127834035E+03  0.22469486344E+03  0.12508941034E+03 0.  0.
          5    1    3    3  502    0 -0.21439483599E+02  0.10253563591E+00 -0.15007309522E+03  0.15165443706E+03  0.41800000000E+01 0. -1.
         -5    1    3    3    0  502  0.65866055431E+02 -0.23080086155E+01 -0.31205245126E+02  0.73040426376E+02  0.41800000000E+01 0. -1.
        -11    1    1    2    0    0 -0.16172564920E+02 -0.43189509314E+02 -0.14689602173E+03  0.15396534276E+03  0.00000000000E+00 0.  1.
         11    1    1    2    0    0 -0.28254006912E+02  0.45394982293E+02 -0.94328615852E+02  0.10842915241E+03  0.00000000000E+00 0. -1.
</event>
<event>
 7    1  0.8653652E-006  0.8521968E+02  0.7561462E-02  0.1314859E+00
         -2   -1    0    0    0  501 -0.00000000000E+00  0.00000000000E+00  0.67253008501E+02  0.67253008501E+02  0.00000000000E+00 0.  1.
          2   -1    0    0  501    0  0.00000000000E+00 -0.00000000000E+00 -0.22824443884E+03  0.22824443884E+03  0.00000000000E+00 0. -1.
         23    2    1    2    0    0 -0.59338811800E+02 -0.12428627522E+00 -0.80366321060E+02  0.16008337450E+03  0.12508729431E+03 0.  0.
          5    1    3    3  502    0 -0.38895563750E+02  0.13080096283E+02 -0.11234645442E+03  0.11967937174E+03  0.41800000000E+01 0.  1.
         -5    1    3    3    0  502 -0.20443248050E+02 -0.13204382558E+02  0.31980133362E+02  0.40404002765E+02  0.41800000000E+01 0.  1.
        -11    1    1    2    0    0  0.65569430233E+02  0.31334410499E+02 -0.72314060566E+02  0.10252082139E+03  0.00000000000E+00 0. -1.
         11    1    1    2    0    0 -0.62306184327E+01 -0.31210124224E+02 -0.83110487094E+01  0.32893251447E+02  0.00000000000E+00 0.  1.
</event>
<event>
 7    1  0.8653652E-006  0.1043305E+03  0.7561462E-02  0.1271444E+00
         -2   -1    0    0    0  501 -0.00000000000E+00  0.00000000000E+00  0.21299412390E+03  0.21299412390E+03  0.00000000000E+00 0.  1.
          2   -1    0    0  501    0  0.00000000000E+00 -0.00000000000E+00 -0.73011056150E+02  0.73011056150E+02  0.00000000000E+00 0. -1.
         23    2    1    2    0    0  0.51668011245E+02  0.90204651984E+00  0.12004305947E+03  0.18091007977E+03  0.12509086202E+03 0.  0.
          5    1    3    3  502    0  0.78202323912E+02 -0.35340462429E+01  0.25364612077E+02  0.82394956726E+02  0.41800000000E+01 0.  1.
         -5    1    3    3    0  502 -0.26534312667E+02  0.44360927628E+01  0.94678447388E+02  0.98515123040E+02  0.41800000000E+01 0.  1.
        -11    1    1    2    0    0 -0.22871518741E+02 -0.44939631855E+02  0.69822662791E+01  0.50906079432E+02  0.00000000000E+00 0. -1.
         11    1    1    2    0    0 -0.28796492504E+02  0.44037585335E+02  0.12957742000E+02  0.54189020847E+02  0.00000000000E+00 0.  1.
</event>
<event>
 7    1  0.8653652E-006  0.1104503E+03  0.7561462E-02  0.1259738E+00
         -2   -1    0    0    0  501 -0.00000000000E+00  0.00000000000E+00  0.46790858196E+02  0.46790858196E+02  0.00000000000E+00 0.  1.
          2   -1    0    0  501    0  0.00000000000E+00 -0.00000000000E+00 -0.37413461358E+03  0.37413461358E+03  0.00000000000E+00 0. -1.
         23    2    1    2    0    0 -0.52886070947E+02 -0.37070896656E+02 -0.11879707403E+03  0.18418162319E+03  0.12505573815E+03 0.  0.
          5    1    3    3  502    0  0.10438690181E+02  0.22034241577E+02  0.11803853377E+02  0.27409440146E+02  0.41800000000E+01 0.  1.
         -5    1    3    3    0  502 -0.63324761128E+02 -0.59105138234E+02 -0.13060092740E+03  0.15677218304E+03  0.41800000000E+01 0.  1.
        -11    1    1    2    0    0  0.75771238298E+02  0.41103586356E+02 -0.14047497748E+03  0.16481506200E+03  0.00000000000E+00 0.  1.
         11    1    1    2    0    0 -0.22885167351E+02 -0.40326896999E+01 -0.68071703878E+02  0.71928786586E+02  0.00000000000E+00 0. -1.
</event>
<event>
 7    1  0.8653652E-006  0.1115345E+03  0.7561462E-02  0.1257754E+00
          2   -1    0    0  501    0  0.00000000000E+00  0.00000000000E+00  0.38530508543E+03  0.38530508543E+03  0.00000000000E+00 0. -1.
         -2   -1    0    0    0  501 -0.00000000000E+00 -0.00000000000E+00 -0.61291835360E+02  0.61291835360E+02  0.00000000000E+00 0.  1.
         23    2    1    2    0    0 -0.59348179775E+02  0.74249900741E+02  0.98736331513E+02  0.18555724370E+03  0.12508946129E+03 0.  0.
          5    1    3    3  502    0 -0.39695448605E+02  0.63733443338E+02 -0.87467811884E+01  0.75707721012E+02  0.41800000000E+01 0. -1.
         -5    1    3    3    0  502 -0.19652731169E+02  0.10516457403E+02  0.10748311270E+03  0.10984952269E+03  0.41800000000E+01 0. -1.
        -11    1    1    2    0    0  0.15770965065E+02 -0.79725407496E+02  0.10356318658E+03  0.13164420820E+03  0.00000000000E+00 0.  1.
         11    1    1    2    0    0  0.43577214709E+02  0.54755067557E+01  0.12171373198E+03  0.12939546889E+03  0.00000000000E+00 0. -1.
</event>
<event>
 7    1  0.8653652E-006  0.1040856E+03  0.7561462E-02  0.1271932E+00
         -1   -1    0    0    0  501 -0.00000000000E+00  0.00000000000E+00  0.18024121833E+02  0.18024121833E+02  0.00000000000E+00 0.  1.
          1   -1    0    0  501    0  0.00000000000E+00 -0.00000000000E+00 -0.72276776568E+03  0.72276776568E+03  0.00000000000E+00 0. -1.
         23    2    1    2    0    0 -0.66581213216E+01 -0.19514030970E+02 -0.31369346756E+03  0.33835092298E+03  0.12511046122E+03 0.  0.
          5    1    3    3  502    0 -0.21389148303E+02  0.43979641864E+02 -0.21110094620E+03  0.21673206143E+03  0.41800000000E+01 0. -1.
         -5    1    3    3    0  502  0.14731026981E+02 -0.63493672834E+02 -0.10259252136E+03  0.12161886155E+03  0.41800000000E+01 0. -1.
        -11    1    1    2    0    0  0.22719495001E+02 -0.32321094994E+02 -0.19831044573E+03  0.20220747147E+03  0.00000000000E+00 0. -1.
         11    1    1    2    0    0 -0.16061373679E+02  0.51835125964E+02 -0.19273973056E+03  0.20023349306E+03  0.00000000000E+00 0.  1.
</event>
<event>
 7    1  0.8653652E-006  0.1009342E+03  0.7561462E-02  0.1278344E+00
         -2   -1    0    0    0  501 -0.00000000000E+00  0.00000000000E+00  0.24906258389E+02  0.24906258389E+02  0.00000000000E+00 0.  1.
          2   -1    0    0  501    0  0.00000000000E+00 -0.00000000000E+00 -0.52112551091E+03  0.52112551091E+03  0.00000000000E+00 0. -1.
         23    2    1    2    0    0 -0.28487904664E+02 -0.20409307092E+02 -0.26129851913E+03  0.29181044836E+03  0.12509324980E+03 0.  0.
          5    1    3    3  502    0  0.22047148833E+02  0.35434817934E+02 -0.16063874607E+03  0.16602404113E+03  0.41800000000E+01 0. -1.
         -5    1    3    3    0  502 -0.50535053497E+02 -0.55844125026E+02 -0.10065977305E+03  0.12578640723E+03  0.41800000000E+01 0. -1.
        -11    1    1    2    0    0 -0.25888093520E+02 -0.13582684800E+01 -0.14224847962E+03  0.14459138368E+03  0.00000000000E+00 0.  1.
         11    1    1    2    0    0  0.54375998184E+02  0.21767575572E+02 -0.92672253767E+02  0.10962993726E+03  0.00000000000E+00 0. -1.
</event>
<event>
 7    1  0.8653652E-006  0.9134166E+02  0.7561462E-02  0.1299635E+00
          2   -1    0    0  501    0  0.00000000000E+00  0.00000000000E+00  0.60284296877E+03  0.60284296877E+03  0.00000000000E+00 0. -1.
         -2   -1    0    0    0  501 -0.00000000000E+00 -0.00000000000E+00 -0.33257440925E+02  0.33257440925E+02  0.00000000000E+00 0.  1.
         23    2    1    2    0    0 -0.16770128272E+02  0.54538329043E+02  0.15270382175E+03  0.20548973674E+03  0.12510758646E+03 0.  0.
          5    1    3    3  502    0  0.34531971201E+00  0.58451745548E+02  0.17041112935E+03  0.18020585787E+03  0.41800000000E+01 0. -1.
         -5    1    3    3    0  502 -0.17115447984E+02 -0.39134165049E+01 -0.17707307597E+02  0.25283878871E+02  0.41800000000E+01 0. -1.
        -11    1    1    2    0    0  0.44944897933E+02 -0.33652418763E+00  0.13870000147E+03  0.14580071161E+03  0.00000000000E+00 0. -1.
         11    1    1    2    0    0 -0.28174769661E+02 -0.54201804856E+02  0.27818170463E+03  0.28480996135E+03  0.00000000000E+00 0.  1.
</event>
<event>
 7    1  0.8653652E-006  0.9116815E+02  0.7561462E-02  0.1300047E+00
          2   -1    0    0  501    0  0.00000000000E+00  0.00000000000E+00  0.17816209274E+03  0.17816209274E+03  0.00000000000E+00 0. -1.
         -2   -1    0    0    0  501 -0.00000000000E+00 -0.00000000000E+00 -0.82668158541E+02  0.82668158541E+02  0.00000000000E+00 0.  1.
         23    2    1    2    0    0  0.39388208080E+02  0.22113588910E+02  0.26851787766E+02  0.13568197445E+03  0.12509251749E+03 0.  0.
          5    1    3    3  502    0  0.55510592176E+02 -0.27102579402E+02  0.49238119926E+02  0.79106513688E+02  0.41800000000E+01 0.  1.
         -5    1    3    3    0  502 -0.16122384096E+02  0.49216168312E+02 -0.22386332160E+02  0.56575460757E+02  0.41800000000E+01 0.  1.
        -11    1    1    2    0    0 -0.24183801342E+02  0.14929872023E+02  0.78858001032E+02  0.83823276318E+02  0.00000000000E+00 0. -1.
         11    1    1    2    0    0 -0.15204406738E+02 -0.37043460933E+02 -0.10215854603E+02  0.41325000514E+02  0.00000000000E+00 0.  1.
</event>
<event>
 7    1  0.8653652E-006  0.9471392E+02  0.7561462E-02  0.1291822E+00
         -1   -1    0    0    0  501 -0.00000000000E+00  0.00000000000E+00  0.72358312275E+02  0.72358312275E+02  0.00000000000E+00 0.  1.
          1   -1    0    0  501    0  0.00000000000E+00 -0.00000000000E+00 -0.28107162390E+03  0.28107162390E+03  0.00000000000E+00 0. -1.
         23    2    1    2    0    0 -0.13500615297E+02 -0.81244334597E+01 -0.57394195230E+00  0.12607891415E+03  0.12508912883E+03 0.  0.
          5    1    3    3  502    0  0.51403300299E+02 -0.16646060150E+02 -0.19845446224E+02  0.57712258108E+02  0.41800000000E+01 0.  1.
         -5    1    3    3    0  502 -0.64903915595E+02  0.85216266901E+01  0.19271504272E+02  0.68366656039E+02  0.41800000000E+01 0.  1.
        -11    1    1    2    0    0  0.32519907077E+02 -0.18121437652E+02 -0.34644492481E+02  0.50854416899E+02  0.00000000000E+00 0.  1.
         11    1    1    2    0    0 -0.19019291781E+02  0.26245871112E+02 -0.17349487719E+03  0.17649660513E+03  0.00000000000E+00 0. -1.
</event>
<event>
 7    1  0.8653652E-006  0.1687901E+03  0.7561462E-02  0.1179115E+00
          2   -1    0    0  501    0  0.00000000000E+00  0.00000000000E+00  0.71529580755E+03  0.71529580755E+03  0.00000000000E+00 0.  1.
         -2   -1    0    0    0  501 -0.00000000000E+00 -0.00000000000E+00 -0.40917841024E+02  0.40917841024E+02  0.00000000000E+00 0. -1.
         23    2    1    2    0    0 -0.11141605008E+03  0.69302405539E+02  0.33843337875E+03  0.38392686368E+03  0.12508527161E+03 0.  0.
          5    1    3    3  502    0  0.23985070375E+02  0.32045518045E+02  0.63581323397E+02  0.75247962847E+02  0.41800000000E+01 0. -1.
         -5    1    3    3    0  502 -0.13540112046E+03  0.37256887494E+02  0.27485205536E+03  0.30867890083E+03  0.41800000000E+01 0. -1.
        -11    1    1    2    0    0  0.82390264394E+02 -0.74815498978E+00  0.13697954467E+03  0.15985027701E+03  0.00000000000E+00 0. -1.
         11    1    1    2    0    0  0.29025785689E+02 -0.68554250549E+02  0.19896504311E+03  0.21243650789E+03  0.00000000000E+00 0.  1.
</event>
<event>
 7    1  0.8653652E-006  0.1542329E+03  0.7561462E-02  0.1195366E+00
          2   -1    0    0  501    0  0.00000000000E+00  0.00000000000E+00  0.87576478692E+03  0.87576478692E+03  0.00000000000E+00 0. -1.
         -2   -1    0    0    0  501 -0.00000000000E+00 -0.00000000000E+00 -0.37098320578E+02  0.37098320578E+02  0.00000000000E+00 0.  1.
         23    2    1    2    0    0  0.14046004649E+03 -0.71772750018E+01  0.51120592117E+03  0.54475622769E+03  0.12508923150E+03 0.  0.
          5    1    3    3  502    0  0.39896813822E+02 -0.27650348220E+01  0.36495410585E+03  0.36716259743E+03  0.41800000000E+01 0.  1.
         -5    1    3    3    0  502  0.10056323267E+03 -0.44122401798E+01  0.14625181531E+03  0.17759363027E+03  0.41800000000E+01 0.  1.
        -11    1    1    2    0    0 -0.70311961049E+02  0.49126948171E+02  0.15167568390E+03  0.17424908031E+03  0.00000000000E+00 0.  1.
         11    1    1    2    0    0 -0.70148085444E+02 -0.41949673169E+02  0.17578486128E+03  0.19385779949E+03  0.00000000000E+00 0. -1.
</event>
<event>
 7    1  0.8653652E-006  0.1001424E+03  0.7561462E-02  0.1279997E+00
          1   -1    0    0  501    0  0.00000000000E+00  0.00000000000E+00  0.11120512492E+03  0.11120512492E+03  0.00000000000E+00 0. -1.
         -1   -1    0    0    0  501 -0.00000000000E+00 -0.00000000000E+00 -0.10885055601E+03  0.10885055601E+03  0.00000000000E+00 0.  1.
         23    2    1    2    0    0  0.15707974910E+02 -0.16912709521E+01 -0.12917545805E+02  0.12674222105E+03  0.12508847563E+03 0.  0.
          5    1    3    3  502    0  0.63892668616E+02 -0.35262837186E+01 -0.35539537358E+02  0.73316020728E+02  0.41800000000E+01 0.  1.
         -5    1    3    3    0  502 -0.48184693706E+02  0.18350127666E+01  0.22621991553E+02  0.53426200325E+02  0.41800000000E+01 0.  1.
        -11    1    1    2    0    0  0.30929371107E+02  0.20890567312E+02  0.20544087278E+02  0.42604005935E+02  0.00000000000E+00 0. -1.
         11    1    1    2    0    0 -0.46637346017E+02 -0.19199296360E+02 -0.52719725674E+01  0.50709453941E+02  0.00000000000E+00 0.  1.
</event>
<event>
 7    1  0.8653652E-006  0.1189267E+03  0.7561462E-02  0.1244878E+00
          3   -1    0    0  501    0  0.00000000000E+00  0.00000000000E+00  0.20513422695E+03  0.20513422695E+03  0.00000000000E+00 0. -1.
         -3   -1    0    0    0  501 -0.00000000000E+00 -0.00000000000E+00 -0.11119052720E+03  0.11119052720E+03  0.00000000000E+00 0.  1.
         23    2    1    2    0    0 -0.75698439324E+02  0.50187039206E+01 -0.28153701954E+02  0.14898023035E+03  0.12508811693E+03 0.  0.
          5    1    3    3  502    0 -0.35516687084E+02 -0.52624522645E+02 -0.43321900646E+02  0.76974248425E+02  0.41800000000E+01 0. -1.
         -5    1    3    3    0  502 -0.40181752240E+02  0.57643226565E+02  0.15168198693E+02  0.72005981929E+02  0.41800000000E+01 0. -1.
        -11    1    1    2    0    0 -0.12974101244E+01  0.22150506000E+02  0.62320371181E+02  0.66152527187E+02  0.00000000000E+00 0. -1.
         11    1    1    2    0    0  0.76995849448E+02 -0.27169209920E+02  0.59777030525E+02  0.10119199661E+03  0.00000000000E+00 0.  1.
</event>
<event>
 6    1  0.8653652E-006  0.1227237E+03  0.7561462E-02  0.1238670E+00
          1   -1    0    0  501    0  0.00000000000E+00  0.00000000000E+00  0.41188046295E+03  0.41188046295E+03  0.00000000000E+00 0. -1.
         -1   -1    0    0    0  501 -0.00000000000E+00 -0.00000000000E+00 -0.43342116959E+02  0.43342116959E+02  0.00000000000E+00 0.  1.
          5    1    1    2  502    0 -0.57088275954E+02 -0.12958370203E+02  0.12745532517E+03  0.14031864781E+03  0.41800000000E+01 0. -1.
         -5    1    1    2    0  502  0.54134567756E+02 -0.57553820659E+02  0.54344831446E+02  0.95988680601E+02  0.41800000000E+01 0.  1.
        -11    1    1    2    0    0  0.12856682515E+02  0.87247111031E+02  0.11698325211E+03  0.14650062779E+03  0.00000000000E+00 0. -1.
         11    1    1    2    0    0 -0.99029743171E+01 -0.16734920170E+02  0.69754937265E+02  0.72414623704E+02  0.00000000000E+00 0.  1.
</event>
<event>
 7    1  0.8653652E-006  0.1304840E+03  0.7561462E-02  0.1226739E+00
         -1   -1    0    0    0  501 -0.00000000000E+00  0.00000000000E+00  0.47451668400E+02  0.47451668400E+02  0.00000000000E+00 0.  1.
          1   -1    0    0  501    0  0.00000000000E+00 -0.00000000000E+00 -0.52966545900E+03  0.52966545900E+03  0.00000000000E+00 0. -1.
         23    2    1    2    0    0  0.53874002563E+02 -0.87455614670E+02 -0.16442769258E+03  0.23072698345E+03  0.12509029585E+03 0.  0.
          5    1    3    3  502    0 -0.47061108502E+01 -0.87670035338E+02 -0.14369473169E+03  0.16844533502E+03  0.41800000000E+01 0. -1.
         -5    1    3    3    0  502  0.58580113414E+02  0.21442066763E+00 -0.20732960895E+02  0.62281648431E+02  0.41800000000E+01 0. -1.
        -11    1    1    2    0    0 -0.30353935954E+02  0.78742521587E+01 -0.19850233584E+02  0.37113300154E+02  0.00000000000E+00 0.  1.
         11    1    1    2    0    0 -0.23520066609E+02  0.79581362512E+02 -0.29793586443E+03  0.30927684379E+03  0.00000000000E+00 0. -1.
</event>
<event>
 7    1  0.8653652E-006  0.2266940E+03  0.7561462E-02  0.1128989E+00
         -2   -1    0    0    0  501 -0.00000000000E+00  0.00000000000E+00  0.65212888823E+02  0.65212888823E+02  0.00000000000E+00 0.  1.
          2   -1    0    0  501    0  0.00000000000E+00 -0.00000000000E+00 -0.83870641236E+03  0.83870641236E+03  0.00000000000E+00 0. -1.
         23    2    1    2    0    0 -0.15876631997E+03  0.13447444906E+03 -0.40478214560E+03  0.47200163853E+03  0.12508732779E+03 0.  0.
          5    1    3    3  502    0 -0.73793932302E+02 -0.40827892301E+01 -0.81267986858E+02  0.10992802964E+03  0.41800000000E+01 0.  1.
         -5    1    3    3    0  502 -0.84972387664E+02  0.13855723829E+03 -0.32351415875E+03  0.36207360889E+03  0.41800000000E+01 0.  1.
        -11    1    1    2    0    0  0.11076087935E+03 -0.12645096850E+03 -0.22975811851E+03  0.28468686806E+03  0.00000000000E+00 0.  1.
         11    1    1    2    0    0  0.48005440620E+02 -0.80234805618E+01 -0.13895325942E+03  0.14723079459E+03  0.00000000000E+00 0. -1.
</event>
<event>
 7    1  0.8653652E-006  0.1272255E+03  0.7561462E-02  0.1231632E+00
         -3   -1    0    0    0  501 -0.00000000000E+00  0.00000000000E+00  0.41874259705E+02  0.41874259705E+02  0.00000000000E+00 0. -1.
          3   -1    0    0  501    0  0.00000000000E+00 -0.00000000000E+00 -0.58330961248E+03  0.58330961248E+03  0.00000000000E+00 0.  1.
         23    2    1    2    0    0 -0.78360901707E+02 -0.64131200674E+02 -0.19524209938E+03  0.25302343977E+03  0.12509253330E+03 0.  0.
          5    1    3    3  502    0 -0.86999212744E+01  0.22787028108E+02 -0.10986153634E+03  0.11261423909E+03  0.41800000000E+01 0. -1.
         -5    1    3    3    0  502 -0.69660980433E+02 -0.86918228783E+02 -0.85380563044E+02  0.14040920068E+03  0.41800000000E+01 0. -1.
        -11    1    1    2    0    0  0.54668265205E+02  0.74474133647E+02 -0.32743881239E+03  0.34022226803E+03  0.00000000000E+00 0.  1.
         11    1    1    2    0    0  0.23692636503E+02 -0.10342932972E+02 -0.18754441008E+02  0.31938164387E+02  0.00000000000E+00 0. -1.
</event>
<event>
 7    1  0.8653652E-006  0.1742714E+03  0.7561462E-02  0.1173465E+00
         -2   -1    0    0    0  501 -0.00000000000E+00  0.00000000000E+00  0.15472482003E+03  0.15472482003E+03  0.00000000000E+00 0.  1.
          2   -1    0    0  501    0  0.00000000000E+00 -0.00000000000E+00 -0.26675504490E+03  0.26675504490E+03  0.00000000000E+00 0. -1.
         23    2    1    2    0    0 -0.62139582670E+02  0.14538054739E+03  0.10600841184E+02  0.20188435884E+03  0.12509230679E+03 0.  0.
          5    1    3    3  502    0 -0.69626032909E+02  0.83729176790E+02 -0.45495404717E+02  0.11809175989E+03  0.41800000000E+01 0.  1.
         -5    1    3    3    0  502  0.74864502396E+01  0.61651370603E+02  0.56096245901E+02  0.83792598949E+02  0.41800000000E+01 0.  1.
        -11    1    1    2    0    0  0.81369160345E+02 -0.10732080690E+03 -0.69769405953E+02  0.15167882468E+03  0.00000000000E+00 0.  1.
         11    1    1    2    0    0 -0.19229577676E+02 -0.38059740498E+02 -0.52861660101E+02  0.67916681404E+02  0.00000000000E+00 0. -1.
</event>
<event>
 7    1  0.8653652E-006  0.2983837E+03  0.7561462E-02  0.1086051E+00
         -2   -1    0    0    0  501 -0.00000000000E+00  0.00000000000E+00  0.96034908437E+03  0.96034908437E+03  0.00000000000E+00 0. -1.
          2   -1    0    0  501    0  0.00000000000E+00 -0.00000000000E+00 -0.12019316018E+03  0.12019316018E+03  0.00000000000E+00 0.  1.
         23    2    1    2    0    0 -0.28790986539E+03  0.39314316707E+02  0.64547050471E+03  0.71883028724E+03  0.12508838202E+03 0.  0.
          5    1    3    3  502    0 -0.26670125568E+03  0.55603514558E+02  0.48677321116E+03  0.55784132342E+03  0.41800000000E+01 0. -1.
         -5    1    3    3    0  502 -0.21208609717E+02 -0.16289197851E+02  0.15869729355E+03  0.16098896382E+03  0.41800000000E+01 0. -1.
        -11    1    1    2    0    0  0.45319100267E+02  0.16631161667E+02  0.46204675991E+01  0.48495000858E+02  0.00000000000E+00 0. -1.
         11    1    1    2    0    0  0.24259076513E+03 -0.55945478374E+02  0.19006495188E+03  0.31321695645E+03  0.00000000000E+00 0.  1.
</event>
<event>
 6    1  0.8653652E-006  0.1773105E+03  0.7561462E-02  0.1170432E+00
         -1   -1    0    0    0  501 -0.00000000000E+00  0.00000000000E+00  0.99011284321E+02  0.99011284321E+02  0.00000000000E+00 0.  1.
          1   -1    0    0  501    0  0.00000000000E+00 -0.00000000000E+00 -0.35919025306E+03  0.35919025306E+03  0.00000000000E+00 0. -1.
          5    1    1    2  502    0  0.40093747994E+01  0.71677047433E+02 -0.58091737943E+02  0.92443478041E+02  0.41800000000E+01 0. -1.
         -5    1    1    2    0  502  0.56240023933E+02 -0.14550255491E+03 -0.47329719533E+02  0.16306902995E+03  0.41800000000E+01 0.  1.
        -11    1    1    2    0    0 -0.47719874334E+01 -0.18414494229E+02 -0.45499585156E+02  0.49316099918E+02  0.00000000000E+00 0.  1.
         11    1    1    2    0    0 -0.55477411300E+02  0.92240001702E+02 -0.10925792610E+03  0.15337292947E+03  0.00000000000E+00 0. -1.
</event>
<event>
 7    1  0.8653652E-006  0.1185180E+03  0.7561462E-02  0.1245562E+00
          2   -1    0    0  501    0  0.00000000000E+00  0.00000000000E+00  0.65251013270E+03  0.65251013270E+03  0.00000000000E+00 0.  1.
         -2   -1    0    0    0  501 -0.00000000000E+00 -0.00000000000E+00 -0.35737734473E+02  0.35737734473E+02  0.00000000000E+00 0. -1.
         23    2    1    2    0    0  0.10470428205E+03  0.13425437493E+02  0.32932037699E+03  0.36775378449E+03  0.12509079205E+03 0.  0.
          5    1    3    3  502    0  0.55133162248E+02 -0.10911909161E+02  0.30969588912E+02  0.64306478510E+02  0.41800000000E+01 0.  1.
         -5    1    3    3    0  502  0.49571119799E+02  0.24337346653E+02  0.29835078807E+03  0.30344730598E+03  0.41800000000E+01 0.  1.
        -11    1    1    2    0    0 -0.10456833609E+02 -0.28036961806E+02  0.18615658212E+02  0.35241443317E+02  0.00000000000E+00 0.  1.
         11    1    1    2    0    0 -0.94247448438E+02  0.14611524313E+02  0.26883636303E+03  0.28525263937E+03  0.00000000000E+00 0. -1.
</event>
<event>
 7    1  0.8653652E-006  0.2086815E+03  0.7561462E-02  0.1142614E+00
          2   -1    0    0  501    0  0.00000000000E+00  0.00000000000E+00  0.57864872815E+03  0.57864872815E+03  0.00000000000E+00 0. -1.
         -2   -1    0    0    0  501 -0.00000000000E+00 -0.00000000000E+00 -0.87006862921E+02  0.87006862921E+02  0.00000000000E+00 0.  1.
         23    2    1    2    0    0  0.12946952041E+03  0.14939101623E+03  0.25602165255E+03  0.34680711546E+03  0.12509219127E+03 0.  0.
          5    1    3    3  502    0  0.21036916857E+02  0.93910258079E+02  0.17712605494E+03  0.20162539568E+03  0.41800000000E+01 0.  1.
         -5    1    3    3    0  502  0.10843260355E+03  0.55480758149E+02  0.78895597609E+02  0.14518171979E+03  0.41800000000E+01 0.  1.
        -11    1    1    2    0    0 -0.43396491179E+02 -0.68203893287E+02  0.39917781225E+02  0.90157948979E+02  0.00000000000E+00 0. -1.
         11    1    1    2    0    0 -0.86073029230E+02 -0.81187122941E+02  0.19570243145E+03  0.22869052662E+03  0.00000000000E+00 0.  1.
</event>
<event>
 7    1  0.8653652E-006  0.2585215E+03  0.7561462E-02  0.1108035E+00
          2   -1    0    0  501    0  0.00000000000E+00  0.00000000000E+00  0.29144723611E+03  0.29144723611E+03  0.00000000000E+00 0. -1.
         -2   -1    0    0    0  501 -0.00000000000E+00 -0.00000000000E+00 -0.27787093738E+03  0.27787093738E+03  0.00000000000E+00 0.  1.
         23    2    1    2    0    0  0.20003454782E+03 -0.13909508499E+03 -0.91575119082E+02  0.28878174534E+03  0.12509049132E+03 0.  0.
          5    1    3    3  502    0 -0.13572422194E+02 -0.21823729891E+01  0.76988726947E+01  0.16300872272E+02  0.41800000000E+01 0.  1.
         -5    1    3    3    0  502  0.21360697001E+03 -0.13691271200E+03 -0.99273991777E+02  0.27248087307E+03  0.41800000000E+01 0.  1.
        -11    1    1    2    0    0 -0.10561312700E+02  0.26479222411E+02 -0.11991278585E+02  0.30927031987E+02  0.00000000000E+00 0.  1.
         11    1    1    2    0    0 -0.18947323512E+03  0.11261586258E+03  0.11714269640E+03  0.24960939616E+03  0.00000000000E+00 0. -1.
</event>
<event>
 7    1  0.8653652E-006  0.1226009E+03  0.7561462E-02  0.1238867E+00
          4   -1    0    0  501    0  0.00000000000E+00  0.00000000000E+00  0.17724121121E+03  0.17724121121E+03  0.00000000000E+00 0.  1.
         -4   -1    0    0    0  501 -0.00000000000E+00 -0.00000000000E+00 -0.97953749362E+02  0.97953749362E+02  0.00000000000E+00 0. -1.
         23    2    1    2    0    0 -0.91472559565E+01  0.65145423682E+02 -0.13420877416E+01  0.14134115381E+03  0.12509165457E+03 0.  0.
          5    1    3    3  502    0  0.36227049561E+02 -0.22064954512E+02 -0.47378643292E+01  0.42885674717E+02  0.41800000000E+01 0. -1.
         -5    1    3    3    0  502 -0.45374305517E+02  0.87210378193E+02  0.33957765876E+01  0.98455479098E+02  0.41800000000E+01 0. -1.
        -11    1    1    2    0    0 -0.28624155178E+02  0.29187952578E+00  0.97090008740E+01  0.30227341121E+02  0.00000000000E+00 0. -1.
         11    1    1    2    0    0  0.37771411134E+02 -0.65437303207E+02  0.70920548718E+02  0.10362646564E+03  0.00000000000E+00 0.  1.
</event>
<event>
 7    1  0.8653652E-006  0.1435265E+03  0.7561462E-02  0.1208661E+00
         -4   -1    0    0    0  501 -0.00000000000E+00  0.00000000000E+00  0.15500864221E+03  0.15500864221E+03  0.00000000000E+00 0.  1.
          4   -1    0    0  501    0  0.00000000000E+00 -0.00000000000E+00 -0.20875977113E+03  0.20875977113E+03  0.00000000000E+00 0. -1.
         23    2    1    2    0    0 -0.11410201194E+03  0.15057507016E+02  0.43769413925E+02  0.17552909699E+03  0.12509478265E+03 0.  0.
          5    1    3    3  502    0 -0.11381917228E+02  0.56183749851E+02  0.30670773418E+01  0.57559023190E+02  0.41800000000E+01 0. -1.
         -5    1    3    3    0  502 -0.10272009472E+03 -0.41126242835E+02  0.40702336583E+02  0.11797007380E+03  0.41800000000E+01 0. -1.
        -11    1    1    2    0    0  0.91589050508E+02 -0.23910341826E+02 -0.74214079901E+01  0.94949122775E+02  0.00000000000E+00 0.  1.
         11    1    1    2    0    0  0.22512961436E+02  0.88528348094E+01 -0.90099134858E+02  0.93290193584E+02  0.00000000000E+00 0. -1.
</event>
<event>
 7    1  0.8653652E-006  0.1223906E+03  0.7561462E-02  0.1239205E+00
          1   -1    0    0  501    0  0.00000000000E+00  0.00000000000E+00  0.50674180465E+02  0.50674180465E+02  0.00000000000E+00 0. -1.
         -1   -1    0    0    0  501 -0.00000000000E+00 -0.00000000000E+00 -0.30295345740E+03  0.30295345740E+03  0.00000000000E+00 0.  1.
         23    2    1    2    0    0  0.53965526786E+02  0.22643792134E+02 -0.16006365342E+03  0.21140632649E+03  0.12508893768E+03 0.  0.
          5    1    3    3  502    0  0.58713972433E+02 -0.41839616850E+02 -0.97547312223E+02  0.12137064974E+03  0.41800000000E+01 0.  1.
         -5    1    3    3    0  502 -0.47484456469E+01  0.64483408983E+02 -0.62516341202E+02  0.90035676748E+02  0.41800000000E+01 0.  1.
        -11    1    1    2    0    0 -0.27717896371E+02 -0.57679417455E+02 -0.47952084304E+02  0.79966238915E+02  0.00000000000E+00 0. -1.
         11    1    1    2    0    0 -0.26247630415E+02  0.35035625321E+02 -0.44263539210E+02  0.62255072464E+02  0.00000000000E+00 0.  1.
</event>
<event>
 7    1  0.8653652E-006  0.8541725E+02  0.7561462E-02  0.1314345E+00
         -2   -1    0    0    0  501 -0.00000000000E+00  0.00000000000E+00  0.96886890283E+02  0.96886890283E+02  0.00000000000E+00 0.  1.
          2   -1    0    0  501    0  0.00000000000E+00 -0.00000000000E+00 -0.14905181765E+03  0.14905181765E+03  0.00000000000E+00 0. -1.
         23    2    1    2    0    0 -0.40957718169E+01 -0.44061108082E+02 -0.12127636777E+01  0.13268614825E+03  0.12508391803E+03 0.  0.
          5    1    3    3  502    0  0.42337326422E+02 -0.59731422128E+02 -0.25748066431E+02  0.77722116048E+02  0.41800000000E+01 0.  1.
         -5    1    3    3    0  502 -0.46433098238E+02  0.15670314046E+02  0.24535302754E+02  0.54964032199E+02  0.41800000000E+01 0.  1.
        -11    1    1    2    0    0 -0.68877826856E+01  0.28169638314E+02 -0.76159788800E+02  0.81494070356E+02  0.00000000000E+00 0. -1.
         11    1    1    2    0    0  0.10983554503E+02  0.15891469768E+02  0.25207625110E+02  0.31758489331E+02  0.00000000000E+00 0.  1.
</event>
<event>
 7    1  0.8653652E-006  0.1189530E+03  0.7561462E-02  0.1244834E+00
          1   -1    0    0  501    0  0.00000000000E+00  0.00000000000E+00  0.39882359951E+03  0.39882359951E+03  0.00000000000E+00 0. -1.
         -1   -1    0    0    0  501 -0.00000000000E+00 -0.00000000000E+00 -0.44755694017E+02  0.44755694017E+02  0.00000000000E+00 0.  1.
         23    2    1    2    0    0 -0.21791990623E+02  0.60301522148E+02  0.11889656670E+03  0.18410692937E+03  0.12509118050E+03 0.  0.
          5    1    3    3  502    0 -0.35228566461E+02 -0.28202353265E+02  0.16985573843E+02  0.48398416745E+02  0.41800000000E+01 0. -1.
         -5    1    3    3    0  502  0.13436575838E+02  0.88503875413E+02  0.10191099285E+03  0.13570851262E+03  0.41800000000E+01 0. -1.
        -11    1    1    2    0    0  0.42055771733E+02 -0.69089743462E+02  0.21441190012E+03  0.22916051907E+03  0.00000000000E+00 0. -1.
         11    1    1    2    0    0 -0.20263781109E+02  0.87882213149E+01  0.20759438679E+02  0.30311845094E+02  0.00000000000E+00 0.  1.
</event>
<event>
 7    1  0.8653652E-006  0.1206460E+03  0.7561462E-02  0.1242035E+00
         -1   -1    0    0    0  501 -0.00000000000E+00  0.00000000000E+00  0.56447999648E+03  0.56447999648E+03  0.00000000000E+00 0.  1.
          1   -1    0    0  501    0  0.00000000000E+00 -0.00000000000E+00 -0.26138272201E+02  0.26138272201E+02  0.00000000000E+00 0. -1.
         23    2    1    2    0    0 -0.52342512294E+02  0.11447180527E+02  0.30154288645E+03  0.33082615379E+03  0.12508818941E+03 0.  0.
          5    1    3    3  502    0 -0.38655927865E+02 -0.55040717630E+02  0.16661366764E+03  0.17972575776E+03  0.41800000000E+01 0.  1.
         -5    1    3    3    0  502 -0.13686584429E+02  0.66487898156E+02  0.13492921880E+03  0.15110039603E+03  0.41800000000E+01 0.  1.
        -11    1    1    2    0    0  0.26026878388E+02 -0.51653480832E+02  0.11181593278E+03  0.12588996506E+03  0.00000000000E+00 0.  1.
         11    1    1    2    0    0  0.26315633905E+02  0.40206300305E+02  0.12498290506E+03  0.13390214983E+03  0.00000000000E+00 0. -1.
</event>
<event>
 7    1  0.8653652E-006  0.1338988E+03  0.7561462E-02  0.1221783E+00
         -2   -1    0    0    0  501 -0.00000000000E+00  0.00000000000E+00  0.22703463358E+03  0.22703463358E+03  0.00000000000E+00 0.  1.
          2   -1    0    0  501    0  0.00000000000E+00 -0.00000000000E+00 -0.86517456846E+02  0.86517456846E+02  0.00000000000E+00 0. -1.
         23    2    1    2    0    0  0.58280047396E+02  0.49581120595E+02  0.12126955323E+03  0.19027932098E+03  0.12508023029E+03 0.  0.
          5    1    3    3  502    0  0.48328121186E+02 -0.35603292091E+02  0.58453165735E+02  0.83889490936E+02  0.41800000000E+01 0.  1.
         -5    1    3    3    0  502  0.99519262101E+01  0.85184412686E+02  0.62816387493E+02  0.10638983005E+03  0.41800000000E+01 0.  1.
        -11    1    1    2    0    0 -0.32037330622E+02  0.26312210097E+02  0.67845617242E+01  0.42008966083E+02  0.00000000000E+00 0.  1.
         11    1    1    2    0    0 -0.26242716774E+02 -0.75893330692E+02  0.12463061782E+02  0.81263803358E+02  0.00000000000E+00 0. -1.
</event>
<event>
 7    1  0.8653652E-006  0.1151831E+03  0.7561462E-02  0.1251262E+00
         -1   -1    0    0    0  501 -0.00000000000E+00  0.00000000000E+00  0.81158953971E+02  0.81158953971E+02  0.00000000000E+00 0.  1.
          1   -1    0    0  501    0  0.00000000000E+00 -0.00000000000E+00 -0.17553365752E+03  0.17553365752E+03  0.00000000000E+00 0. -1.
         23    2    1    2    0    0 -0.47121188061E+02  0.14699848563E+02 -0.28252791394E+02  0.13741306501E+03  0.12509052043E+03 0.  0.
          5    1    3    3  502    0 -0.28139999080E+02  0.69781336220E+02 -0.22890260235E+02  0.78757417724E+02  0.41800000000E+01 0.  1.
         -5    1    3    3    0  502 -0.18981188981E+02 -0.55081487657E+02 -0.53625311586E+01  0.58655647282E+02  0.41800000000E+01 0.  1.
        -11    1    1    2    0    0  0.16521679454E+02 -0.48362513025E+02 -0.48613250510E+02  0.70534719700E+02  0.00000000000E+00 0. -1.
         11    1    1    2    0    0  0.30599508607E+02  0.33662664462E+02 -0.17508661645E+02  0.48744826785E+02  0.00000000000E+00 0.  1.
</event>
<event>
 7    1  0.8653652E-006  0.4120777E+03  0.7561462E-02  0.1039676E+00
          1   -1    0    0  501    0  0.00000000000E+00  0.00000000000E+00  0.82903607439E+03  0.82903607439E+03  0.00000000000E+00 0. -1.
         -1   -1    0    0    0  501 -0.00000000000E+00 -0.00000000000E+00 -0.23163028799E+03  0.23163028799E+03  0.00000000000E+00 0.  1.
         23    2    1    2    0    0  0.39123466836E+03 -0.12428977555E+03  0.17068666619E+03  0.46183563275E+03  0.12508277109E+03 0.  0.
          5    1    3    3  502    0  0.37805780718E+03 -0.11788257448E+03  0.12751599150E+03  0.41605505335E+03  0.41800000000E+01 0.  1.
         -5    1    3    3    0  502  0.13176861183E+02 -0.64072010738E+01  0.43170674690E+02  0.45780579391E+02  0.41800000000E+01 0.  1.
        -11    1    1    2    0    0 -0.77482920389E+02  0.43672546430E+02  0.50185887166E+02  0.10212500935E+03  0.00000000000E+00 0.  1.
         11    1    1    2    0    0 -0.31375174797E+03  0.80617229122E+02  0.37653323304E+03  0.49670572029E+03  0.00000000000E+00 0. -1.
</event>
<event>
 7    1  0.8653652E-006  0.1237789E+03  0.7561462E-02  0.1236990E+00
         -2   -1    0    0    0  501 -0.00000000000E+00  0.00000000000E+00  0.71506449267E+02  0.71506449267E+02  0.00000000000E+00 0.  1.
          2   -1    0    0  501    0  0.00000000000E+00 -0.00000000000E+00 -0.30366472339E+03  0.30366472339E+03  0.00000000000E+00 0. -1.
         23    2    1    2    0    0  0.36367272590E+02 -0.50806915135E+02 -0.25621327418E+02  0.14207215266E+03  0.12499649196E+03 0.  0.
          5    1    3    3  502    0 -0.27010541886E+02  0.27575276112E+02 -0.84638854620E+01  0.39737576458E+02  0.41800000000E+01 0.  1.
         -5    1    3    3    0  502  0.63377814476E+02 -0.78382191247E+02 -0.17157441956E+02  0.10233457620E+03  0.41800000000E+01 0.  1.
        -11    1    1    2    0    0 -0.64130307740E+02  0.47668547327E+02 -0.15930461457E+03  0.17822162326E+03  0.00000000000E+00 0.  1.
         11    1    1    2    0    0  0.27763035150E+02  0.31383678080E+01 -0.47232332131E+02  0.54877396730E+02  0.00000000000E+00 0. -1.
</event>
<event>
 7    1  0.8653652E-006  0.2304769E+03  0.7561462E-02  0.1126305E+00
          2   -1    0    0  501    0  0.00000000000E+00  0.00000000000E+00  0.47076079887E+03  0.47076079887E+03  0.00000000000E+00 0. -1.
         -2   -1    0    0    0  501 -0.00000000000E+00 -0.00000000000E+00 -0.13253172011E+03  0.13253172011E+03  0.00000000000E+00 0.  1.
         23    2    1    2    0    0 -0.14946929783E+03 -0.16748219557E+03  0.17085322985E+03  0.30859224778E+03  0.12508793872E+03 0.  0.
          5    1    3    3  502    0 -0.12407235986E+03 -0.15024240540E+03  0.18999174871E+03  0.27217837504E+03  0.41800000000E+01 0. -1.
         -5    1    3    3    0  502 -0.25396937970E+02 -0.17239790163E+02 -0.19138518864E+02  0.36413872733E+02  0.41800000000E+01 0. -1.
        -11    1    1    2    0    0  0.96170782936E+02  0.15148175781E+03  0.15629949734E+03  0.23796023892E+03  0.00000000000E+00 0.  1.
         11    1    1    2    0    0  0.53298514895E+02  0.16000437759E+02  0.11076351574E+02  0.56740032276E+02  0.00000000000E+00 0. -1.
</event>
<event>
 7    1  0.8653652E-006  0.1466550E+03  0.7561462E-02  0.1204645E+00
          3   -1    0    0  501    0  0.00000000000E+00  0.00000000000E+00  0.77054651820E+03  0.77054651820E+03  0.00000000000E+00 0. -1.
         -3   -1    0    0    0  501 -0.00000000000E+00 -0.00000000000E+00 -0.55845384969E+02  0.55845384969E+02  0.00000000000E+00 0.  1.
         23    2    1    2    0    0  0.12019505580E+03  0.39312219638E+02  0.13338200431E+03  0.22233059100E+03  0.12509128895E+03 0.  0.
          5    1    3    3  502    0 -0.91602003110E+01  0.30483846243E+02 -0.51825283269E+01  0.32519304288E+02  0.41800000000E+01 0.  1.
         -5    1    3    3    0  502  0.12935525611E+03  0.88283733954E+01  0.13856453263E+03  0.18981128671E+03  0.41800000000E+01 0.  1.
        -11    1    1    2    0    0 -0.17601622564E+02 -0.20773610107E+02  0.21709786971E+02  0.34823481217E+02  0.00000000000E+00 0.  1.
         11    1    1    2    0    0 -0.10259343323E+03 -0.18538609531E+02  0.55960934196E+03  0.56923783096E+03  0.00000000000E+00 0. -1.
</event>
<event>
 7    1  0.8653652E-006  0.2484893E+03  0.7561462E-02  0.1114263E+00
         -2   -1    0    0    0  501 -0.00000000000E+00  0.00000000000E+00  0.47973114726E+03  0.47973114726E+03  0.00000000000E+00 0.  1.
          2   -1    0    0  501    0  0.00000000000E+00 -0.00000000000E+00 -0.22365243881E+03  0.22365243881E+03  0.00000000000E+00 0. -1.
         23    2    1    2    0    0 -0.17671476929E+03 -0.16211802528E+03  0.33897962188E+03  0.43366397544E+03  0.12508755229E+03 0.  0.
          5    1    3    3  502    0 -0.91490962174E+02 -0.49277232777E+02  0.58003099733E+02  0.11908263437E+03  0.41800000000E+01 0. -1.
         -5    1    3    3    0  502 -0.85223807114E+02 -0.11284079250E+03  0.28097652215E+03  0.31458134107E+03  0.41800000000E+01 0. -1.
        -11    1    1    2    0    0  0.15067391910E+03  0.16709401818E+03 -0.55809429492E+02  0.23181400568E+03  0.00000000000E+00 0.  1.
         11    1    1    2    0    0  0.26040850193E+02 -0.49759929018E+01 -0.27091483950E+02  0.37905604951E+02  0.00000000000E+00 0. -1.
</event>
<event>
 7    1  0.8653652E-006  0.1574206E+03  0.7561462E-02  0.1191640E+00
         -2   -1    0    0    0  501 -0.00000000000E+00  0.00000000000E+00  0.12626814049E+03  0.12626814049E+03  0.00000000000E+00 0.  1.
          2   -1    0    0  501    0  0.00000000000E+00 -0.00000000000E+00 -0.21579545143E+03  0.21579545143E+03  0.00000000000E+00 0. -1.
         23    2    1    2    0    0  0.10571777540E+03 -0.63961717753E+02 -0.59207413108E+02  0.18552648854E+03  0.12508881168E+03 0.  0.
          5    1    3    3  502    0 -0.15022712724E+02  0.12740103415E+02 -0.35014191795E+02  0.40391312924E+02  0.41800000000E+01 0.  1.
         -5    1    3    3    0  502  0.12074048812E+03 -0.76701821168E+02 -0.24193221313E+02  0.14513517561E+03  0.41800000000E+01 0.  1.
        -11    1    1    2    0    0 -0.10677762165E+03  0.21244975662E+02 -0.10321020100E+02  0.10935873505E+03  0.00000000000E+00 0.  1.
         11    1    1    2    0    0  0.10598462507E+01  0.42716742091E+02 -0.19998877732E+02  0.47178368343E+02  0.00000000000E+00 0. -1.
</event>
<event>
 7    1  0.8653652E-006  0.1060536E+03  0.7561462E-02  0.1268058E+00
          2   -1    0    0  501    0  0.00000000000E+00  0.00000000000E+00  0.38499111612E+02  0.38499111612E+02  0.00000000000E+00 0.  1.
         -2   -1    0    0    0  501 -0.00000000000E+00 -0.00000000000E+00 -0.39869627450E+03  0.39869627450E+03  0.00000000000E+00 0. -1.
         23    2    1    2    0    0 -0.44074898149E+02  0.27937250350E+02 -0.26227446932E+03  0.29522570145E+03  0.12508889214E+03 0.  0.
          5    1    3    3  502    0 -0.73534666769E+02  0.33599993534E+02 -0.93160214293E+02  0.12342043878E+03  0.41800000000E+01 0.  1.
         -5    1    3    3    0  502  0.29459768621E+02 -0.56627431848E+01 -0.16911425502E+03  0.17180526267E+03  0.41800000000E+01 0.  1.
        -11    1    1    2    0    0  0.49379846504E+02  0.19528840773E+02 -0.65131897222E+02  0.84035164654E+02  0.00000000000E+00 0. -1.
         11    1    1    2    0    0 -0.53049483556E+01 -0.47466091123E+02 -0.32790796351E+02  0.57934520011E+02  0.00000000000E+00 0.  1.
</event>
<event>
 7    1  0.8653652E-006  0.1123020E+03  0.7561462E-02  0.1256365E+00
         -1   -1    0    0    0  501 -0.00000000000E+00  0.00000000000E+00  0.49846806873E+02  0.49846806873E+02  0.00000000000E+00 0.  1.
          1   -1    0    0  501    0  0.00000000000E+00 -0.00000000000E+00 -0.35910363617E+03  0.35910363617E+03  0.00000000000E+00 0. -1.
         23    2    1    2    0    0  0.32599214376E+01 -0.41025442374E+02 -0.69702904265E+02  0.14899362070E+03  0.12508752991E+03 0.  0.
          5    1    3    3  502    0  0.60570180419E+02 -0.20216055100E+02 -0.58820058464E+02  0.86917819332E+02  0.41800000000E+01 0.  1.
         -5    1    3    3    0  502 -0.57310258981E+02 -0.20809387274E+02 -0.10882845802E+02  0.62075801372E+02  0.41800000000E+01 0.  1.
        -11    1    1    2    0    0  0.38984068729E+02  0.41918987116E+02 -0.11556577710E+03  0.12896669312E+03  0.00000000000E+00 0. -1.
         11    1    1    2    0    0 -0.42243990166E+02 -0.89354474188E+00 -0.12398814793E+03  0.13099012923E+03  0.00000000000E+00 0.  1.
</event>
<event>
 7    1  0.8653652E-006  0.2102857E+03  0.7561462E-02  0.1141340E+00
          1   -1    0    0  501    0  0.00000000000E+00  0.00000000000E+00  0.20333583540E+03  0.20333583540E+03  0.00000000000E+00 0. -1.
         -1   -1    0    0    0  501 -0.00000000000E+00 -0.00000000000E+00 -0.33886672886E+03  0.33886672886E+03  0.00000000000E+00 0.  1.
         23    2    1    2    0    0 -0.14927787375E+03 -0.13666596776E+03 -0.19982719061E+03  0.31070189357E+03  0.12507313950E+03 0.  0.
          5    1    3    3  502    0 -0.20119845552E+02 -0.32936819292E+02 -0.12123956733E+03  0.12730336734E+03  0.41800000000E+01 0.  1.
         -5    1    3    3    0  502 -0.12915802820E+03 -0.10372914847E+03 -0.78587623281E+02  0.18339852623E+03  0.41800000000E+01 0.  1.
        -11    1    1    2    0    0  0.26796009192E+02  0.73498907473E+02  0.50241330493E+02  0.92974764308E+02  0.00000000000E+00 0.  1.
         11    1    1    2    0    0  0.12248186456E+03  0.63167060290E+02  0.14054966655E+02  0.13852590638E+03  0.00000000000E+00 0. -1.
</event>
<event>
 7    1  0.8653652E-006  0.1053359E+03  0.7561462E-02  0.1269459E+00
         -2   -1    0    0    0  501 -0.00000000000E+00  0.00000000000E+00  0.61893399443E+02  0.61893399443E+02  0.00000000000E+00 0.  1.
          2   -1    0    0  501    0  0.00000000000E+00 -0.00000000000E+00 -0.25720630157E+03  0.25720630157E+03  0.00000000000E+00 0. -1.
         23    2    1    2    0    0  0.48606733908E+02  0.30264817105E+02 -0.73220696914E+02  0.15586288488E+03  0.12511352721E+03 0.  0.
          5    1    3    3  502    0 -0.13223845351E+02  0.65018469810E+02 -0.33078094295E+02  0.74255667961E+02  0.41800000000E+01 0. -1.
         -5    1    3    3    0  502  0.61830579259E+02 -0.34753652704E+02 -0.40142602620E+02  0.81607216916E+02  0.41800000000E+01 0. -1.
        -11    1    1    2    0    0 -0.26779046986E+02 -0.40877625648E+02 -0.11755534252E+02  0.50262214651E+02  0.00000000000E+00 0.  1.
         11    1    1    2    0    0 -0.21827686921E+02  0.10612808543E+02 -0.11033667096E+03  0.11297460148E+03  0.00000000000E+00 0. -1.
</event>
<event>
 7    1  0.8653652E-006  0.8662700E+02  0.7561462E-02  0.1311232E+00
         -1   -1    0    0    0  501 -0.00000000000E+00  0.00000000000E+00  0.54266821515E+02  0.54266821515E+02  0.00000000000E+00 0. -1.
          1   -1    0    0  501    0  0.00000000000E+00 -0.00000000000E+00 -0.25092674837E+03  0.25092674837E+03  0.00000000000E+00 0.  1.
         23    2    1    2    0    0  0.23893678502E+02 -0.17069195162E+02 -0.76412817486E+02  0.14949480115E+03  0.12509001399E+03 0.  0.
          5    1    3    3  502    0 -0.17651459421E+02 -0.28800667790E+02  0.22968364798E+02  0.41061790832E+02  0.41800000000E+01 0.  1.
         -5    1    3    3    0  502  0.41545137923E+02  0.11731472629E+02 -0.99381182284E+02  0.10843301032E+03  0.41800000000E+01 0.  1.
        -11    1    1    2    0    0 -0.23925564926E+02  0.53922409827E+02 -0.91898994945E+02  0.10920386536E+03  0.00000000000E+00 0.  1.
         11    1    1    2    0    0  0.31886423960E-01 -0.36853214665E+02 -0.28348114424E+02  0.46494903369E+02  0.00000000000E+00 0. -1.
</event>
<event>
 7    1  0.8653652E-006  0.1012774E+03  0.7561462E-02  0.1277633E+00
         -2   -1    0    0    0  501 -0.00000000000E+00  0.00000000000E+00  0.16190275801E+03  0.16190275801E+03  0.00000000000E+00 0.  1.
          2   -1    0    0  501    0  0.00000000000E+00 -0.00000000000E+00 -0.85113564267E+02  0.85113564267E+02  0.00000000000E+00 0. -1.
         23    2    1    2    0    0  0.10330102365E+02 -0.25971597833E+02  0.81237086082E+02  0.15174940683E+03  0.12508870216E+03 0.  0.
          5    1    3    3  502    0 -0.80961341150E+01  0.40063777999E+02 -0.51238081941E+01  0.41405066183E+02  0.41800000000E+01 0. -1.
         -5    1    3    3    0  502  0.18426236480E+02 -0.66035375833E+02  0.86360894276E+02  0.11034434064E+03  0.41800000000E+01 0. -1.
        -11    1    1    2    0    0  0.50124926147E+01  0.57500660085E+02  0.75427710756E+01  0.58209487096E+02  0.00000000000E+00 0. -1.
         11    1    1    2    0    0 -0.15342594980E+02 -0.31529062252E+02 -0.11990663413E+02  0.37057428355E+02  0.00000000000E+00 0.  1.
</event>
<event>
 7    1  0.8653652E-006  0.1240319E+03  0.7561462E-02  0.1236590E+00
         -3   -1    0    0    0  501 -0.00000000000E+00  0.00000000000E+00  0.66610421847E+02  0.66610421847E+02  0.00000000000E+00 0.  1.
          3   -1    0    0  501    0  0.00000000000E+00 -0.00000000000E+00 -0.30370165931E+03  0.30370165931E+03  0.00000000000E+00 0. -1.
         23    2    1    2    0    0 -0.83442076818E+02  0.78494464603E+00 -0.78559312981E+02  0.16965268106E+03  0.12508904914E+03 0.  0.
          5    1    3    3  502    0 -0.11660002719E+03  0.42753268024E+01 -0.61905964157E+02  0.13215016291E+03  0.41800000000E+01 0. -1.
         -5    1    3    3    0  502  0.33157950373E+02 -0.34903821564E+01 -0.16653348824E+02  0.37502518150E+02  0.41800000000E+01 0. -1.
        -11    1    1    2    0    0  0.47778042739E+02 -0.25654074405E+02 -0.24049630345E+02  0.59323331172E+02  0.00000000000E+00 0.  1.
         11    1    1    2    0    0  0.35664034078E+02  0.24869129759E+02 -0.13448229414E+03  0.14133606893E+03  0.00000000000E+00 0. -1.
</event>
<event>
 7    1  0.8653652E-006  0.9549676E+02  0.7561462E-02  0.1290061E+00
          1   -1    0    0  501    0  0.00000000000E+00  0.00000000000E+00  0.73949519821E+02  0.73949519821E+02  0.00000000000E+00 0.  1.
         -1   -1    0    0    0  501 -0.00000000000E+00 -0.00000000000E+00 -0.19230180657E+03  0.19230180657E+03  0.00000000000E+00 0. -1.
         23    2    1    2    0    0  0.43348302731E+02 -0.25224628216E+02 -0.87360045643E+02  0.16060811508E+03  0.12509129401E+03 0.  0.
          5    1    3    3  502    0  0.43630084254E+02 -0.73592009264E+02 -0.62730256997E+02  0.10616932524E+03  0.41800000000E+01 0.  1.
         -5    1    3    3    0  502 -0.28178152257E+00  0.48367381048E+02 -0.24629788646E+02  0.54438789838E+02  0.41800000000E+01 0.  1.
        -11    1    1    2    0    0 -0.24563675956E+02 -0.93829347720E+00 -0.58393274526E+02  0.63356365749E+02  0.00000000000E+00 0. -1.
         11    1    1    2    0    0 -0.18784626776E+02  0.26162921693E+02  0.27401033423E+02  0.42286845558E+02  0.00000000000E+00 0.  1.
</event>
<event>
 7    1  0.8653652E-006  0.1725849E+03  0.7561462E-02  0.1175179E+00
          1   -1    0    0  501    0  0.00000000000E+00  0.00000000000E+00  0.46862960997E+02  0.46862960997E+02  0.00000000000E+00 0. -1.
         -1   -1    0    0    0  501 -0.00000000000E+00 -0.00000000000E+00 -0.69614307322E+03  0.69614307322E+03  0.00000000000E+00 0.  1.
         23    2    1    2    0    0  0.14378355096E+03 -0.27922310628E+01 -0.32640829774E+03  0.37798028877E+03  0.12508083700E+03 0.  0.
          5    1    3    3  502    0  0.10283778795E+03  0.57268223510E+02 -0.20277824065E+03  0.23450319259E+03  0.41800000000E+01 0. -1.
         -5    1    3    3    0  502  0.40945763012E+02 -0.60060454573E+02 -0.12363005709E+03  0.14347709618E+03  0.41800000000E+01 0. -1.
        -11    1    1    2    0    0 -0.69014096657E+02  0.29672679563E+02 -0.81165163644E+02  0.11059474327E+03  0.00000000000E+00 0. -1.
         11    1    1    2    0    0 -0.74769454303E+02 -0.26880448500E+02 -0.24170665084E+03  0.25443100218E+03  0.00000000000E+00 0.  1.
</event>
<event>
 7    1  0.8653652E-006  0.9838606E+02  0.7561462E-02  0.1283727E+00
         -1   -1    0    0    0  501 -0.00000000000E+00  0.00000000000E+00  0.36982444774E+02  0.36982444774E+02  0.00000000000E+00 0.  1.
          1   -1    0    0  501    0  0.00000000000E+00 -0.00000000000E+00 -0.37767572005E+03  0.37767572005E+03  0.00000000000E+00 0. -1.
         23    2    1    2    0    0  0.36770916281E+02  0.25914489920E+02 -0.12771503026E+03  0.18434742168E+03  0.12509669002E+03 0.  0.
          5    1    3    3  502    0  0.71412298989E+02  0.31291733347E+02 -0.12694449416E+03  0.14903444575E+03  0.41800000000E+01 0. -1.
         -5    1    3    3    0  502 -0.34641382708E+02 -0.53772434270E+01 -0.77053609601E+00  0.35312975924E+02  0.41800000000E+01 0. -1.
        -11    1    1    2    0    0 -0.35095061400E+02 -0.48983716737E+02 -0.18154700523E+03  0.19128612848E+03  0.00000000000E+00 0. -1.
         11    1    1    2    0    0 -0.16758548815E+01  0.23069226816E+02 -0.31431239792E+02  0.39024614673E+02  0.00000000000E+00 0.  1.
</event>
<event>
 7    1  0.8653652E-006  0.9683506E+02  0.7561462E-02  0.1287096E+00
          2   -1    0    0  501    0  0.00000000000E+00  0.00000000000E+00  0.15524809413E+03  0.15524809413E+03  0.00000000000E+00 0. -1.
         -2   -1    0    0    0  501 -0.00000000000E+00 -0.00000000000E+00 -0.11418548993E+03  0.11418548993E+03  0.00000000000E+00 0.  1.
         23    2    1    2    0    0  0.28521364741E+02 -0.65773515454E+02 -0.54979145779E+01  0.14428637730E+03  0.12509479617E+03 0.  0.
          5    1    3    3  502    0  0.16717378435E+02  0.67857879861E+00  0.52462380672E+02  0.55224134187E+02  0.41800000000E+01 0. -1.
         -5    1    3    3    0  502  0.11803986306E+02 -0.66452094253E+02 -0.57960295250E+02  0.89062243115E+02  0.41800000000E+01 0. -1.
        -11    1    1    2    0    0 -0.27007580324E+02 -0.13028965404E+02  0.34002888809E+02  0.45336075941E+02  0.00000000000E+00 0.  1.
         11    1    1    2    0    0 -0.15137844172E+01  0.78802480858E+02  0.12557629964E+02  0.79811130821E+02  0.00000000000E+00 0. -1.
</event>
<event>
 7    1  0.8653652E-006  0.1558852E+03  0.7561462E-02  0.1193422E+00
         -1   -1    0    0    0  501 -0.00000000000E+00  0.00000000000E+00  0.44933824931E+03  0.44933824931E+03  0.00000000000E+00 0.  1.
          1   -1    0    0  501    0  0.00000000000E+00 -0.00000000000E+00 -0.59853532042E+02  0.59853532042E+02  0.00000000000E+00 0. -1.
         23    2    1    2    0    0 -0.96382607814E+02  0.58011425670E+02  0.28525469338E+03  0.33116956837E+03  0.12509240714E+03 0.  0.
          5    1    3    3  502    0 -0.11149914515E+03  0.44562559644E+01  0.17490096382E+03  0.20750840256E+03  0.41800000000E+01 0.  1.
         -5    1    3    3    0  502  0.15116537335E+02  0.53555169706E+02  0.11035372955E+03  0.12366116581E+03  0.41800000000E+01 0.  1.
        -11    1    1    2    0    0  0.98952363683E+02 -0.13679769091E+02  0.73502735147E+02  0.12402160471E+03  0.00000000000E+00 0. -1.
         11    1    1    2    0    0 -0.25697558696E+01 -0.44331656579E+02  0.30727288743E+02  0.54000608272E+02  0.00000000000E+00 0.  1.
</event>
<event>
 7    1  0.8653652E-006  0.1188385E+03  0.7561462E-02  0.1245025E+00
          2   -1    0    0  501    0  0.00000000000E+00  0.00000000000E+00  0.30191249631E+03  0.30191249631E+03  0.00000000000E+00 0. -1.
         -2   -1    0    0    0  501 -0.00000000000E+00 -0.00000000000E+00 -0.84537437925E+02  0.84537437925E+02  0.00000000000E+00 0.  1.
         23    2    1    2    0    0 -0.78574467290E+02 -0.28810298998E+02  0.18125271448E+02  0.15159040060E+03  0.12508854405E+03 0.  0.
          5    1    3    3  502    0 -0.70628744074E+02  0.35467590982E+02 -0.11980240937E+02  0.80046037206E+02  0.41800000000E+01 0.  1.
         -5    1    3    3    0  502 -0.79457232156E+01 -0.64277889980E+02  0.30105512385E+02  0.71544363395E+02  0.41800000000E+01 0.  1.
        -11    1    1    2    0    0  0.30480118456E+02 -0.97342493400E+01  0.67064205299E+01  0.32692037373E+02  0.00000000000E+00 0.  1.
         11    1    1    2    0    0  0.48094348834E+02  0.38544548338E+02  0.19254336641E+03  0.20216749626E+03  0.00000000000E+00 0. -1.
</event>
<event>
 7    1  0.8653652E-006  0.1533508E+03  0.7561462E-02  0.1196415E+00
         -1   -1    0    0    0  501 -0.00000000000E+00  0.00000000000E+00  0.37061726479E+02  0.37061726479E+02  0.00000000000E+00 0.  1.
          1   -1    0    0  501    0  0.00000000000E+00 -0.00000000000E+00 -0.73281352861E+03  0.73281352861E+03  0.00000000000E+00 0. -1.
         23    2    1    2    0    0  0.10923054672E+03  0.34200273867E+02 -0.25567534532E+03  0.30679066269E+03  0.12509859089E+03 0.  0.
          5    1    3    3  502    0  0.88306534710E+02 -0.36157348468E+02 -0.15631982213E+03  0.18319049405E+03  0.41800000000E+01 0. -1.
         -5    1    3    3    0  502  0.20924012009E+02  0.70357622335E+02 -0.99355523190E+02  0.12360016864E+03  0.41800000000E+01 0. -1.
        -11    1    1    2    0    0 -0.89697454709E+02  0.91057101713E+01 -0.21660930530E+03  0.23462339713E+03  0.00000000000E+00 0.  1.
         11    1    1    2    0    0 -0.19533092010E+02 -0.43305984039E+02 -0.22346715151E+03  0.22846119527E+03  0.00000000000E+00 0. -1.
</event>
<event>
 7    1  0.8653652E-006  0.9901298E+02  0.7561462E-02  0.1282385E+00
          1   -1    0    0  501    0  0.00000000000E+00  0.00000000000E+00  0.25482914223E+03  0.25482914223E+03  0.00000000000E+00 0. -1.
         -1   -1    0    0    0  501 -0.00000000000E+00 -0.00000000000E+00 -0.59822421522E+02  0.59822421522E+02  0.00000000000E+00 0.  1.
         23    2    1    2    0    0 -0.35004364331E+02 -0.49150677109E+02  0.13011980227E+03  0.19030919486E+03  0.12508130206E+03 0.  0.
          5    1    3    3  502    0  0.41036984068E+02 -0.35814893650E+02  0.84252166245E+02  0.10041235275E+03  0.41800000000E+01 0. -1.
         -5    1    3    3    0  502 -0.76041348399E+02 -0.13335783459E+02  0.45867636025E+02  0.89896842110E+02  0.41800000000E+01 0. -1.
        -11    1    1    2    0    0  0.39819551927E+01  0.28589381625E+02  0.79331616953E+02  0.84419868261E+02  0.00000000000E+00 0. -1.
         11    1    1    2    0    0  0.31022409138E+02  0.20561295484E+02 -0.14444698519E+02  0.39922500623E+02  0.00000000000E+00 0.  1.
</event>
<event>
 7    1  0.8653652E-006  0.1098123E+03  0.7561462E-02  0.1260918E+00
         -3   -1    0    0    0  501 -0.00000000000E+00  0.00000000000E+00  0.10198685616E+04  0.10198685616E+04  0.00000000000E+00 0.  1.
          3   -1    0    0  501    0  0.00000000000E+00 -0.00000000000E+00 -0.14878820486E+02  0.14878820486E+02  0.00000000000E+00 0. -1.
         23    2    1    2    0    0 -0.33703768503E+02 -0.18301379326E+02  0.73566376913E+03  0.74720817978E+03  0.12509195906E+03 0.  0.
          5    1    3    3  502    0 -0.38903847987E+02  0.42938635999E+02  0.20797639296E+03  0.21593723227E+03  0.41800000000E+01 0.  1.
         -5    1    3    3    0  502  0.52000794843E+01 -0.61240015325E+02  0.52768737616E+03  0.53127094751E+03  0.41800000000E+01 0.  1.
        -11    1    1    2    0    0  0.92888615195E+01  0.55040155070E+02  0.16792308591E+03  0.17695723890E+03  0.00000000000E+00 0. -1.
         11    1    1    2    0    0  0.24414906984E+02 -0.36738775744E+02  0.10140288608E+03  0.11058196341E+03  0.00000000000E+00 0.  1.
</event>
<event>
 7    1  0.8653652E-006  0.9488088E+02  0.7561462E-02  0.1291445E+00
          1   -1    0    0  501    0  0.00000000000E+00  0.00000000000E+00  0.75682806513E+02  0.75682806513E+02  0.00000000000E+00 0. -1.
         -1   -1    0    0    0  501 -0.00000000000E+00 -0.00000000000E+00 -0.33883454542E+03  0.33883454542E+03  0.00000000000E+00 0.  1.
         23    2    1    2    0    0  0.14326091421E+02  0.45693590143E+00 -0.29117522523E+03  0.31793051219E+03  0.12685169730E+03 0.  0.
          5    1    3    3  502    0  0.27413553006E+02  0.43907968417E+02 -0.48646025879E+02  0.71157015204E+02  0.41800000000E+01 0. -1.
         -5    1    3    3    0  502 -0.13087461585E+02 -0.43451032516E+02 -0.24252919935E+03  0.24677349699E+03  0.41800000000E+01 0.  1.
        -11    1    1    2    0    0  0.27836596035E+02  0.29482601631E+02  0.93887405103E+01  0.41620287434E+02  0.00000000000E+00 0.  1.
         11    1    1    2    0    0 -0.42162687455E+02 -0.29939537533E+02  0.18634745812E+02  0.54966552308E+02  0.00000000000E+00 0. -1.
</event>
<event>
 7    1  0.8653652E-006  0.1358143E+03  0.7561462E-02  0.1219075E+00
          2   -1    0    0  501    0  0.00000000000E+00  0.00000000000E+00  0.12890556169E+03  0.12890556169E+03  0.00000000000E+00 0. -1.
         -2   -1    0    0    0  501 -0.00000000000E+00 -0.00000000000E+00 -0.37049882843E+03  0.37049882843E+03  0.00000000000E+00 0.  1.
         23    2    1    2    0    0  0.25044399339E+02 -0.10273261522E+03 -0.30591824739E+03  0.34700878468E+03  0.12509160801E+03 0.  0.
          5    1    3    3  502    0  0.61005232642E+02 -0.11004798675E+03 -0.21974684293E+03  0.25325549387E+03  0.41800000000E+01 0. -1.
         -5    1    3    3    0  502 -0.35960833303E+02  0.73153715284E+01 -0.86171404454E+02  0.93753290812E+02  0.41800000000E+01 0. -1.
        -11    1    1    2    0    0 -0.72901836852E+01  0.78072634772E+02  0.84999094996E+02  0.11564311146E+03  0.00000000000E+00 0. -1.
         11    1    1    2    0    0 -0.17754215653E+02  0.24659980445E+02 -0.20674114353E+02  0.36752493974E+02  0.00000000000E+00 0.  1.
</event>
<event>
 6    1  0.8653652E-006  0.1077306E+03  0.7561462E-02  0.1264831E+00
         -2   -1    0    0    0  501 -0.00000000000E+00  0.00000000000E+00  0.27777022349E+02  0.27777022349E+02  0.00000000000E+00 0.  1.
          2   -1    0    0  501    0  0.00000000000E+00 -0.00000000000E+00 -0.61067437887E+03  0.61067437887E+03  0.00000000000E+00 0. -1.
          5    1    1    2  502    0 -0.97756254357E+02 -0.15928822764E+02 -0.19396227258E+03  0.21782756540E+03  0.41800000000E+01 0. -1.
         -5    1    1    2    0  502  0.51737952707E+02  0.15273320025E+02 -0.18036391271E+03  0.18830481529E+03  0.41800000000E+01 0.  1.
        -11    1    1    2    0    0  0.13671478394E+02  0.20226772458E+02 -0.45620853940E+01  0.24836349745E+02  0.00000000000E+00 0. -1.
         11    1    1    2    0    0  0.32346823256E+02 -0.19571269718E+02 -0.20400908584E+03  0.20748267079E+03  0.00000000000E+00 0.  1.
</event>
<event>
 7    1  0.8653652E-006  0.1172680E+03  0.7561462E-02  0.1247673E+00
         -1   -1    0    0    0  501 -0.00000000000E+00  0.00000000000E+00  0.38585281840E+02  0.38585281840E+02  0.00000000000E+00 0.  1.
          1   -1    0    0  501    0  0.00000000000E+00 -0.00000000000E+00 -0.39367862258E+03  0.39367862258E+03  0.00000000000E+00 0. -1.
         23    2    1    2    0    0  0.53668322889E+02  0.93087956865E+01 -0.18655353691E+03  0.23112013143E+03  0.12508936990E+03 0.  0.
          5    1    3    3  502    0 -0.40325502497E+02  0.24069732586E+01 -0.72556625994E+02  0.83149720670E+02  0.41800000000E+01 0.  1.
         -5    1    3    3    0  502  0.93993825386E+02  0.69018224279E+01 -0.11399691091E+03  0.14797041076E+03  0.41800000000E+01 0.  1.
        -11    1    1    2    0    0  0.22477452760E+02  0.21513418400E+01 -0.96063095234E+01  0.24538649860E+02  0.00000000000E+00 0. -1.
         11    1    1    2    0    0 -0.76145775649E+02 -0.11460137526E+02 -0.15893349431E+03  0.17660512313E+03  0.00000000000E+00 0.  1.
</event>
<event>
 6    1  0.8653652E-006  0.6146461E+02  0.7561462E-02  0.1391786E+00
         -2   -1    0    0    0  501 -0.00000000000E+00  0.00000000000E+00  0.61793466786E+02  0.61793466786E+02  0.00000000000E+00 0.  1.
          2   -1    0    0  501    0  0.00000000000E+00 -0.00000000000E+00 -0.26588385509E+03  0.26588385509E+03  0.00000000000E+00 0. -1.
          5    1    1    2  502    0 -0.39092349155E+02  0.11820659813E+02 -0.10791955000E+03  0.11546445961E+03  0.41800000000E+01 0. -1.
         -5    1    1    2    0  502 -0.44612980910E+01  0.68606470638E+01  0.41211106537E+02  0.42223208793E+02  0.41800000000E+01 0.  1.
        -11    1    1    2    0    0 -0.96784564318E+01 -0.16838834103E+02  0.31741138951E+01  0.19679782820E+02  0.00000000000E+00 0. -1.
         11    1    1    2    0    0  0.53232103677E+02 -0.18424727746E+01 -0.14055605873E+03  0.15030987065E+03  0.00000000000E+00 0.  1.
</event>
<event>
 6    1  0.8653652E-006  0.1333624E+03  0.7561462E-02  0.1222550E+00
          3   -1    0    0  501    0  0.00000000000E+00  0.00000000000E+00  0.93709246578E+02  0.93709246578E+02  0.00000000000E+00 0. -1.
         -3   -1    0    0    0  501 -0.00000000000E+00 -0.00000000000E+00 -0.22373747984E+03  0.22373747984E+03  0.00000000000E+00 0.  1.
          5    1    1    2  502    0 -0.44156720290E+02 -0.19114167996E+02 -0.45731449544E+02  0.66513196002E+02  0.41800000000E+01 0. -1.
         -5    1    1    2    0  502  0.11679576044E+03 -0.90687653583E+01 -0.40944262053E+02  0.12416681182E+03  0.41800000000E+01 0.  1.
        -11    1    1    2    0    0  0.76651606859E+01 -0.97422484931E+01  0.15783998383E+02  0.20069895341E+02  0.00000000000E+00 0.  1.
         11    1    1    2    0    0 -0.80304200835E+02  0.37925181848E+02 -0.59136520046E+02  0.10669682326E+03  0.00000000000E+00 0. -1.
</event>
<event>
 7    1  0.8653652E-006  0.1519523E+03  0.7561462E-02  0.1198094E+00
          1   -1    0    0  501    0  0.00000000000E+00  0.00000000000E+00  0.46514932431E+02  0.46514932431E+02  0.00000000000E+00 0. -1.
         -1   -1    0    0    0  501 -0.00000000000E+00 -0.00000000000E+00 -0.60417837851E+03  0.60417837851E+03  0.00000000000E+00 0.  1.
         23    2    1    2    0    0 -0.12650589698E+03  0.65637264691E+01 -0.34791774032E+03  0.39082157880E+03  0.12509167818E+03 0.  0.
          5    1    3    3  502    0  0.15229801783E+02  0.25691288640E+02 -0.10139881065E+03  0.10578837542E+03  0.41800000000E+01 0.  1.
         -5    1    3    3    0  502 -0.14173569877E+03 -0.19127562171E+02 -0.24651892967E+03  0.28503320337E+03  0.41800000000E+01 0.  1.
        -11    1    1    2    0    0  0.81664323661E+02 -0.19569224803E+02 -0.60518127186E+02  0.10351067595E+03  0.00000000000E+00 0. -1.
         11    1    1    2    0    0  0.44841573324E+02  0.13005498334E+02 -0.14922757858E+03  0.15636105619E+03  0.00000000000E+00 0.  1.
</event>
<event>
 7    1  0.8653652E-006  0.2618085E+03  0.7561462E-02  0.1106062E+00
          2   -1    0    0  501    0  0.00000000000E+00  0.00000000000E+00  0.13135338961E+04  0.13135338961E+04  0.00000000000E+00 0. -1.
         -2   -1    0    0    0  501 -0.00000000000E+00 -0.00000000000E+00 -0.67814907635E+02  0.67814907635E+02  0.00000000000E+00 0.  1.
         23    2    1    2    0    0 -0.16727685154E+02  0.25281461655E+03  0.37166351572E+03  0.46687974321E+03  0.12509148613E+03 0.  0.
          5    1    3    3  502    0 -0.14828010433E+02  0.58672656199E+02  0.17778582738E+02  0.63213138532E+02  0.41800000000E+01 0.  1.
         -5    1    3    3    0  502 -0.18996747208E+01  0.19414196036E+03  0.35388493299E+03  0.40366660467E+03  0.41800000000E+01 0.  1.
        -11    1    1    2    0    0  0.53627582438E+02 -0.13348994959E+03  0.45593390607E+03  0.47809121613E+03  0.00000000000E+00 0. -1.
         11    1    1    2    0    0 -0.36899897284E+02 -0.11932466697E+03  0.41812156670E+03  0.43637784443E+03  0.00000000000E+00 0.  1.
</event>
<event>
 7    1  0.8653652E-006  0.8548855E+02  0.7561462E-02  0.1314160E+00
          1   -1    0    0  501    0  0.00000000000E+00  0.00000000000E+00  0.10366124252E+03  0.10366124252E+03  0.00000000000E+00 0. -1.
         -1   -1    0    0    0  501 -0.00000000000E+00 -0.00000000000E+00 -0.15223804420E+03  0.15223804420E+03  0.00000000000E+00 0.  1.
         23    2    1    2    0    0 -0.12928293583E+01  0.52337522182E+02 -0.62829138198E+02  0.14945301881E+03  0.12509123306E+03 0.  0.
          5    1    3    3  502    0  0.41637291278E+02  0.13901239085E+02  0.20037838956E+02  0.48434449136E+02  0.41800000000E+01 0. -1.
         -5    1    3    3    0  502 -0.42930120636E+02  0.38436283097E+02 -0.82866977154E+02  0.10101856967E+03  0.41800000000E+01 0. -1.
        -11    1    1    2    0    0 -0.21731406844E+02 -0.20985738201E+02 -0.33332705122E+02  0.44985825346E+02  0.00000000000E+00 0.  1.
         11    1    1    2    0    0  0.23024236203E+02 -0.31351783981E+02  0.47585041644E+02  0.61460442561E+02  0.00000000000E+00 0. -1.
</event>
<event>
 7    1  0.8653652E-006  0.1047913E+03  0.7561462E-02  0.1270531E+00
          1   -1    0    0  501    0  0.00000000000E+00  0.00000000000E+00  0.14267382926E+03  0.14267382926E+03  0.00000000000E+00 0. -1.
         -1   -1    0    0    0  501 -0.00000000000E+00 -0.00000000000E+00 -0.15901403930E+03  0.15901403930E+03  0.00000000000E+00 0.  1.
         23    2    1    2    0    0 -0.24321828484E+02 -0.97135086180E+01 -0.10956243479E+03  0.16833834595E+03  0.12509183831E+03 0.  0.
          5    1    3    3  502    0  0.45652247900E+02  0.10379909584E+02 -0.72847295022E+02  0.86695276996E+02  0.41800000000E+01 0. -1.
         -5    1    3    3    0  502 -0.69974076385E+02 -0.20093418202E+02 -0.36715139766E+02  0.81643068958E+02  0.41800000000E+01 0. -1.
        -11    1    1    2    0    0 -0.40202492874E+01 -0.35808393887E+02  0.16220993793E+02  0.39516124768E+02  0.00000000000E+00 0.  1.
         11    1    1    2    0    0  0.28342077772E+02  0.45521902505E+02  0.77001230954E+02  0.93833397831E+02  0.00000000000E+00 0. -1.
</event>
<event>
 7    1  0.8653652E-006  0.3090167E+03  0.7561462E-02  0.1080818E+00
         -2   -1    0    0    0  501 -0.00000000000E+00  0.00000000000E+00  0.51757600926E+02  0.51757600926E+02  0.00000000000E+00 0.  1.
          2   -1    0    0  501    0  0.00000000000E+00 -0.00000000000E+00 -0.20074762618E+04  0.20074762618E+04  0.00000000000E+00 0. -1.
         23    2    1    2    0    0  0.23264640769E+03  0.19253190461E+03 -0.91006665164E+03  0.96698570582E+03  0.12508860676E+03 0.  0.
          5    1    3    3  502    0  0.21800919750E+03  0.18790469869E+03 -0.70774833419E+03  0.76404277559E+03  0.41800000000E+01 0.  1.
         -5    1    3    3    0  502  0.14637210187E+02  0.46272059247E+01 -0.20231831745E+03  0.20294293023E+03  0.41800000000E+01 0.  1.
        -11    1    1    2    0    0 -0.12784494837E+02 -0.51522610039E+02 -0.21739618893E+03  0.22378365806E+03  0.00000000000E+00 0.  1.
         11    1    1    2    0    0 -0.21986191285E+03 -0.14100929457E+03 -0.82825582029E+03  0.86846449883E+03  0.00000000000E+00 0. -1.
</event>
<event>
 7    1  0.8653652E-006  0.9728743E+02  0.7561462E-02  0.1286106E+00
          2   -1    0    0  501    0  0.00000000000E+00  0.00000000000E+00  0.28467936813E+03  0.28467936813E+03  0.00000000000E+00 0. -1.
         -2   -1    0    0    0  501 -0.00000000000E+00 -0.00000000000E+00 -0.60769160415E+02  0.60769160415E+02  0.00000000000E+00 0.  1.
         23    2    1    2    0    0  0.38125366682E+02  0.32157267423E+02  0.44123421841E+02  0.13682055098E+03  0.11952135116E+03 0.  0.
          5    1    3    3  502    0 -0.17007766200E+02  0.28339055119E+02  0.68578444374E+02  0.76241993605E+02  0.41800000000E+01 0. -1.
         -5    1    3    3    0  502  0.55133132882E+02  0.38182123037E+01 -0.24455022533E+02  0.60578557376E+02  0.41800000000E+01 0.  1.
        -11    1    1    2    0    0  0.28518912966E+02  0.58564665932E+01  0.50221474981E+02  0.58050177837E+02  0.00000000000E+00 0.  1.
         11    1    1    2    0    0 -0.66644279648E+02 -0.38013734016E+02  0.12956531089E+03  0.15057779972E+03  0.00000000000E+00 0. -1.
</event>
<event>
 7    1  0.8653652E-006  0.1350028E+03  0.7561462E-02  0.1220216E+00
         -2   -1    0    0    0  501 -0.00000000000E+00  0.00000000000E+00  0.23670855780E+02  0.23670855780E+02  0.00000000000E+00 0.  1.
          2   -1    0    0  501    0  0.00000000000E+00 -0.00000000000E+00 -0.90097625663E+03  0.90097625663E+03  0.00000000000E+00 0. -1.
         23    2    1    2    0    0  0.36149120664E+02 -0.68590834797E+02 -0.39342776831E+03  0.42005305183E+03  0.12509075078E+03 0.  0.
          5    1    3    3  502    0  0.56997229275E+02  0.44238759938E+01 -0.85952427914E+02  0.10331286023E+03  0.41800000000E+01 0.  1.
         -5    1    3    3    0  502 -0.20848108611E+02 -0.73014710791E+02 -0.30747534040E+03  0.31674019160E+03  0.41800000000E+01 0.  1.
        -11    1    1    2    0    0 -0.23188348519E+02 -0.29595883622E+02 -0.75046694604E+02  0.83938204683E+02  0.00000000000E+00 0.  1.
         11    1    1    2    0    0 -0.12960772145E+02  0.98186718419E+02 -0.40883093794E+03  0.42065585590E+03  0.00000000000E+00 0. -1.
</event>
<event>
 7    1  0.8653652E-006  0.2718386E+03  0.7561462E-02  0.1100232E+00
          2   -1    0    0  501    0  0.00000000000E+00  0.00000000000E+00  0.11003408780E+04  0.11003408780E+04  0.00000000000E+00 0.  1.
         -2   -1    0    0    0  501 -0.00000000000E+00 -0.00000000000E+00 -0.93535712400E+02  0.93535712400E+02  0.00000000000E+00 0. -1.
         23    2    1    2    0    0  0.26221426469E+03 -0.97687223433E+01  0.23593463983E+03  0.37438527158E+03  0.12508968286E+03 0.  0.
          5    1    3    3  502    0  0.17310532678E+03  0.41950923068E+02  0.10180421627E+03  0.20519967095E+03  0.41800000000E+01 0.  1.
         -5    1    3    3    0  502  0.89108937909E+02 -0.51719645412E+02  0.13413042355E+03  0.16918560063E+03  0.41800000000E+01 0.  1.
        -11    1    1    2    0    0 -0.56801828674E+02  0.18976551551E+01  0.76302254829E+02  0.95142434947E+02  0.00000000000E+00 0. -1.
         11    1    1    2    0    0 -0.20541243602E+03  0.78710671882E+01  0.69456827093E+03  0.72434888386E+03  0.00000000000E+00 0.  1.
</event>
<event>
 7    1  0.8653652E-006  0.1094747E+03  0.7561462E-02  0.1261546E+00
          1   -1    0    0  501    0  0.00000000000E+00  0.00000000000E+00  0.64812602189E+03  0.64812602189E+03  0.00000000000E+00 0. -1.
         -1   -1    0    0    0  501 -0.00000000000E+00 -0.00000000000E+00 -0.30503260637E+02  0.30503260637E+02  0.00000000000E+00 0.  1.
         23    2    1    2    0    0  0.61991305509E+02 -0.63202683508E+02  0.36171268830E+03  0.39283748915E+03  0.12509085836E+03 0.  0.
          5    1    3    3  502    0  0.86371868855E+01 -0.36985594350E+02  0.15013542573E+02  0.41053794555E+02  0.41800000000E+01 0. -1.
         -5    1    3    3    0  502  0.53354118624E+02 -0.26217089158E+02  0.34669914573E+03  0.35178369460E+03  0.41800000000E+01 0. -1.
        -11    1    1    2    0    0  0.10029679261E+02  0.46023365611E+02  0.59491871799E+02  0.75881667473E+02  0.00000000000E+00 0.  1.
         11    1    1    2    0    0 -0.72020984770E+02  0.17179317897E+02  0.19641820115E+03  0.20991012590E+03  0.00000000000E+00 0. -1.
</event>
<event>
 6    1  0.8653652E-006  0.1065158E+03  0.7561462E-02  0.1267162E+00
          2   -1    0    0  501    0  0.00000000000E+00  0.00000000000E+00  0.16621855248E+03  0.16621855248E+03  0.00000000000E+00 0.  1.
         -2   -1    0    0    0  501 -0.00000000000E+00 -0.00000000000E+00 -0.25662739987E+03  0.25662739987E+03  0.00000000000E+00 0. -1.
          5    1    1    2  502    0 -0.59666684382E+02 -0.44030909181E+02 -0.20820842671E+03  0.22105894133E+03  0.41800000000E+01 0. -1.
         -5    1    1    2    0  502  0.43065066724E+02  0.44857177606E+02  0.43706366972E+01  0.62476725425E+02  0.41800000000E+01 0.  1.
        -11    1    1    2    0    0  0.27867865944E+02  0.31585591876E+02  0.39229532148E+02  0.57560609439E+02  0.00000000000E+00 0.  1.
         11    1    1    2    0    0 -0.11266248286E+02 -0.32411860301E+02  0.74199410474E+02  0.81749676167E+02  0.00000000000E+00 0. -1.
</event>
<event>
 7    1  0.8653652E-006  0.1441359E+03  0.7561462E-02  0.1207870E+00
         -3   -1    0    0    0  501 -0.00000000000E+00  0.00000000000E+00  0.15271019259E+03  0.15271019259E+03  0.00000000000E+00 0.  1.
          3   -1    0    0  501    0  0.00000000000E+00 -0.00000000000E+00 -0.18078101755E+03  0.18078101755E+03  0.00000000000E+00 0. -1.
         23    2    1    2    0    0 -0.34814291192E+02 -0.10428795582E+03  0.45463354892E+02  0.17263678352E+03  0.12509408373E+03 0.  0.
          5    1    3    3  502    0 -0.33083206172E+02  0.19302378144E+02  0.28238476471E+02  0.47769909839E+02  0.41800000000E+01 0. -1.
         -5    1    3    3    0  502 -0.17310850192E+01 -0.12359033397E+03  0.17224878421E+02  0.12486687368E+03  0.41800000000E+01 0. -1.
        -11    1    1    2    0    0 -0.12356565268E+02  0.60358475167E+02  0.18896625557E+01  0.61639281747E+02  0.00000000000E+00 0.  1.
         11    1    1    2    0    0  0.47170856460E+02  0.43929480658E+02 -0.75423842408E+02  0.99215144880E+02  0.00000000000E+00 0. -1.
</event>
<event>
 7    1  0.8653652E-006  0.9512369E+02  0.7561462E-02  0.1290898E+00
         -1   -1    0    0    0  501 -0.00000000000E+00  0.00000000000E+00  0.91880620051E+02  0.91880620051E+02  0.00000000000E+00 0.  1.
          1   -1    0    0  501    0  0.00000000000E+00 -0.00000000000E+00 -0.20226197525E+03  0.20226197525E+03  0.00000000000E+00 0. -1.
         23    2    1    2    0    0  0.99441186915E+01  0.72274491591E+02 -0.20941290385E+02  0.14631265524E+03  0.12508544204E+03 0.  0.
          5    1    3    3  502    0  0.40576732068E+02  0.53053826716E+02 -0.62147504708E+02  0.91328880733E+02  0.41800000000E+01 0.  1.
         -5    1    3    3    0  502 -0.30632613376E+02  0.19220664875E+02  0.41206214323E+02  0.54983774509E+02  0.41800000000E+01 0.  1.
        -11    1    1    2    0    0  0.18926849856E+02 -0.22736247097E+02 -0.85367597735E+02  0.90348156155E+02  0.00000000000E+00 0. -1.
         11    1    1    2    0    0 -0.28870968548E+02 -0.49538244494E+02 -0.40724670774E+01  0.57481783902E+02  0.00000000000E+00 0.  1.
</event>
<event>
 7    1  0.8653652E-006  0.1322089E+03  0.7561462E-02  0.1224214E+00
         -1   -1    0    0    0  501 -0.00000000000E+00  0.00000000000E+00  0.75676468440E+02  0.75676468440E+02  0.00000000000E+00 0.  1.
          1   -1    0    0  501    0  0.00000000000E+00 -0.00000000000E+00 -0.43203244087E+03  0.43203244087E+03  0.00000000000E+00 0. -1.
         23    2    1    2    0    0  0.93922772739E+02 -0.14978273727E+02 -0.35504459359E+02  0.16102779699E+03  0.12499419526E+03 0.  0.
          5    1    3    3  502    0  0.60233126877E+02 -0.65310870235E+02 -0.44832914620E+02  0.99604226705E+02  0.41800000000E+01 0.  1.
         -5    1    3    3    0  502  0.33689645861E+02  0.50332596507E+02  0.93284552611E+01  0.61423570289E+02  0.41800000000E+01 0.  1.
        -11    1    1    2    0    0 -0.70549260501E+02  0.39526068049E+02 -0.28924157151E+03  0.30033347283E+03  0.00000000000E+00 0. -1.
         11    1    1    2    0    0 -0.23373512237E+02 -0.24547794321E+02 -0.31609941560E+02  0.46347639485E+02  0.00000000000E+00 0.  1.
</event>
<event>
 7    1  0.8653652E-006  0.1208201E+03  0.7561462E-02  0.1241750E+00
         -1   -1    0    0    0  501 -0.00000000000E+00  0.00000000000E+00  0.92243140360E+02  0.92243140360E+02  0.00000000000E+00 0.  1.
          1   -1    0    0  501    0  0.00000000000E+00 -0.00000000000E+00 -0.36155518729E+03  0.36155518729E+03  0.00000000000E+00 0. -1.
         23    2    1    2    0    0  0.87884896155E+02 -0.21803652334E+02  0.16502102656E+01  0.15443198916E+03  0.12508941544E+03 0.  0.
          5    1    3    3  502    0  0.10901389618E+03 -0.23624209811E+02 -0.30478546320E+02  0.11570888918E+03  0.41800000000E+01 0.  1.
         -5    1    3    3    0  502 -0.21129000030E+02  0.18205574771E+01  0.32128756586E+02  0.38723099973E+02  0.41800000000E+01 0.  1.
        -11    1    1    2    0    0 -0.21996934474E+02 -0.20527913176E+02 -0.16434905668E+03  0.16708043805E+03  0.00000000000E+00 0. -1.
         11    1    1    2    0    0 -0.65887961681E+02  0.42331565510E+02 -0.10661320051E+03  0.13228590045E+03  0.00000000000E+00 0.  1.
</event>
<event>
 7    1  0.8653652E-006  0.1040048E+03  0.7561462E-02  0.1272093E+00
         -1   -1    0    0    0  501 -0.00000000000E+00  0.00000000000E+00  0.18012796453E+03  0.18012796453E+03  0.00000000000E+00 0.  1.
          1   -1    0    0  501    0  0.00000000000E+00 -0.00000000000E+00 -0.76482246184E+02  0.76482246184E+02  0.00000000000E+00 0. -1.
         23    2    1    2    0    0 -0.98685955566E+00  0.34839490962E+02  0.90687630122E+02  0.15838745601E+03  0.12509027117E+03 0.  0.
          5    1    3    3  502    0 -0.42408602769E+02  0.56773082645E+02  0.85375468817E+02  0.11103204752E+03  0.41800000000E+01 0.  1.
         -5    1    3    3    0  502  0.41421743213E+02 -0.21933591682E+02  0.53121613053E+01  0.47355408483E+02  0.41800000000E+01 0.  1.
        -11    1    1    2    0    0 -0.20882100631E+02  0.21232484152E+02 -0.13229212864E+02  0.32586693343E+02  0.00000000000E+00 0.  1.
         11    1    1    2    0    0  0.21868960186E+02 -0.56071975114E+02  0.26187301085E+02  0.65636061361E+02  0.00000000000E+00 0. -1.
</event>
<event>
 7    1  0.8653652E-006  0.1005792E+03  0.7561462E-02  0.1279083E+00
          1   -1    0    0  501    0  0.00000000000E+00  0.00000000000E+00  0.13967638613E+03  0.13967638613E+03  0.00000000000E+00 0. -1.
         -1   -1    0    0    0  501 -0.00000000000E+00 -0.00000000000E+00 -0.12016051353E+03  0.12016051353E+03  0.00000000000E+00 0.  1.
         23    2    1    2    0    0  0.19340443170E+02 -0.21941128501E+02 -0.48305215999E+02  0.13724470080E+03  0.12508896091E+03 0.  0.
          5    1    3    3  502    0  0.10960309578E+02  0.41265397352E+02  0.16753810399E+02  0.46055661623E+02  0.41800000000E+01 0. -1.
         -5    1    3    3    0  502  0.83801335920E+01 -0.63206525852E+02 -0.65059026398E+02  0.91189039172E+02  0.41800000000E+01 0. -1.
        -11    1    1    2    0    0  0.35062878000E+02  0.18997619020E+02  0.52628251527E+02  0.66030658037E+02  0.00000000000E+00 0. -1.
         11    1    1    2    0    0 -0.54403321169E+02  0.29435094811E+01  0.15192837077E+02  0.56561540827E+02  0.00000000000E+00 0.  1.
</event>
<event>
 7    1  0.8653652E-006  0.1685290E+03  0.7561462E-02  0.1179391E+00
         -1   -1    0    0    0  501 -0.00000000000E+00  0.00000000000E+00  0.47095186542E+02  0.47095186542E+02  0.00000000000E+00 0.  1.
          1   -1    0    0  501    0  0.00000000000E+00 -0.00000000000E+00 -0.63433479577E+03  0.63433479577E+03  0.00000000000E+00 0. -1.
         23    2    1    2    0    0  0.11601623197E+03  0.56538374957E+02 -0.23859152994E+03  0.29870525547E+03  0.12507021055E+03 0.  0.
          5    1    3    3  502    0 -0.26913267235E+02  0.75257582134E+01 -0.31507448554E+02  0.42322012054E+02  0.41800000000E+01 0.  1.
         -5    1    3    3    0  502  0.14292949921E+03  0.49012616744E+02 -0.20708408139E+03  0.25638324342E+03  0.41800000000E+01 0.  1.
        -11    1    1    2    0    0 -0.82816536428E+02 -0.81434173231E+02 -0.24763332405E+03  0.27351849381E+03  0.00000000000E+00 0.  1.
         11    1    1    2    0    0 -0.33199695543E+02  0.24895798274E+02 -0.10101475524E+03  0.10920623303E+03  0.00000000000E+00 0. -1.
</event>
<event>
 7    1  0.8653652E-006  0.1301291E+03  0.7561462E-02  0.1227264E+00
         -2   -1    0    0    0  501 -0.00000000000E+00  0.00000000000E+00  0.75287078900E+03  0.75287078900E+03  0.00000000000E+00 0.  1.
          2   -1    0    0  501    0  0.00000000000E+00 -0.00000000000E+00 -0.24177979964E+02  0.24177979964E+02  0.00000000000E+00 0. -1.
         23    2    1    2    0    0 -0.67424211866E+02  0.38475630390E+02  0.48738990773E+03  0.50913761279E+03  0.12508312481E+03 0.  0.
          5    1    3    3  502    0 -0.71100438720E+02 -0.30884786918E+02  0.25723237187E+03  0.26869147360E+03  0.41800000000E+01 0.  1.
         -5    1    3    3    0  502  0.36762268547E+01  0.69360417308E+02  0.23015753587E+03  0.24044613919E+03  0.41800000000E+01 0.  1.
        -11    1    1    2    0    0  0.47216314779E+02  0.19922979740E+02  0.78221715749E+02  0.93514396313E+02  0.00000000000E+00 0. -1.
         11    1    1    2    0    0  0.20207897087E+02 -0.58398610130E+02  0.16308118555E+03  0.17439675986E+03  0.00000000000E+00 0.  1.
</event>
<event>
 7    1  0.8653652E-006  0.1069804E+03  0.7561462E-02  0.1266266E+00
          3   -1    0    0  501    0  0.00000000000E+00  0.00000000000E+00  0.72879370581E+03  0.72879370581E+03  0.00000000000E+00 0. -1.
         -3   -1    0    0    0  501 -0.00000000000E+00 -0.00000000000E+00 -0.17586446105E+02  0.17586446105E+02  0.00000000000E+00 0.  1.
         23    2    1    2    0    0 -0.25183964460E+02 -0.20688607551E+02  0.39683746486E+03  0.41736584371E+03  0.12510804702E+03 0.  0.
          5    1    3    3  502    0 -0.66351629235E+02  0.77315971545E+01  0.13409421657E+03  0.14987010247E+03  0.41800000000E+01 0. -1.
         -5    1    3    3    0  502  0.41167664775E+02 -0.28420204706E+02  0.26274324829E+03  0.26749574124E+03  0.41800000000E+01 0. -1.
        -11    1    1    2    0    0 -0.29671454864E+02  0.28833645619E+02  0.14579778893E+03  0.15155451036E+03  0.00000000000E+00 0.  1.
         11    1    1    2    0    0  0.54855419324E+02 -0.81450380678E+01  0.16857200591E+03  0.17745979785E+03  0.00000000000E+00 0. -1.
</event>
<event>
 7    1  0.8653652E-006  0.6707806E+02  0.7561462E-02  0.1370321E+00
          2   -1    0    0  501    0  0.00000000000E+00  0.00000000000E+00  0.69096487378E+02  0.69096487378E+02  0.00000000000E+00 0. -1.
         -2   -1    0    0    0  501 -0.00000000000E+00 -0.00000000000E+00 -0.26343168511E+03  0.26343168511E+03  0.00000000000E+00 0.  1.
         23    2    1    2    0    0  0.95876479602E+01 -0.30101928667E+02 -0.19805640476E+03  0.23637393551E+03  0.12509296072E+03 0.  0.
          5    1    3    3  502    0  0.32695265257E+02 -0.61009325287E+01 -0.19995207730E+03  0.20274246562E+03  0.41800000000E+01 0. -1.
         -5    1    3    3    0  502 -0.23107617296E+02 -0.24000996138E+02  0.18956725437E+01  0.33631469893E+02  0.41800000000E+01 0. -1.
        -11    1    1    2    0    0  0.22296258286E+02 -0.12625694420E+01 -0.31925926577E+02  0.38961288518E+02  0.00000000000E+00 0.  1.
         11    1    1    2    0    0 -0.31883906246E+02  0.31364498109E+02  0.35647133603E+02  0.57192948458E+02  0.00000000000E+00 0. -1.
</event>
<event>
 7    1  0.8653652E-006  0.3242690E+03  0.7561462E-02  0.1073701E+00
          1   -1    0    0  501    0  0.00000000000E+00  0.00000000000E+00  0.18789495219E+04  0.18789495219E+04  0.00000000000E+00 0.  1.
         -1   -1    0    0    0  501 -0.00000000000E+00 -0.00000000000E+00 -0.67523772382E+02  0.67523772382E+02  0.00000000000E+00 0. -1.
         23    2    1    2    0    0 -0.30255537803E+03  0.98789042939E+02  0.59936951959E+03  0.69006942222E+03  0.12511176881E+03 0.  0.
          5    1    3    3  502    0 -0.11308297944E+03  0.80779465340E+02  0.16469418044E+03  0.21553358840E+03  0.41800000000E+01 0. -1.
         -5    1    3    3    0  502 -0.18947239859E+03  0.18009577598E+02  0.43467533915E+03  0.47453583382E+03  0.41800000000E+01 0. -1.
        -11    1    1    2    0    0  0.62953141340E+02 -0.30714380423E+02  0.15028908332E+03  0.16581097591E+03  0.00000000000E+00 0. -1.
         11    1    1    2    0    0  0.23960223669E+03 -0.68074662516E+02  0.10617671466E+04  0.10905928962E+04  0.00000000000E+00 0.  1.
</event>
<event>
 7    1  0.8653652E-006  0.2434652E+03  0.7561462E-02  0.1117506E+00
         -2   -1    0    0    0  501 -0.00000000000E+00  0.00000000000E+00  0.44318305800E+02  0.44318305800E+02  0.00000000000E+00 0.  1.
          2   -1    0    0  501    0  0.00000000000E+00 -0.00000000000E+00 -0.14028831202E+04  0.14028831202E+04  0.00000000000E+00 0. -1.
         23    2    1    2    0    0  0.15790377277E+02 -0.22346457969E+03 -0.65724230340E+03  0.70554851700E+03  0.12508201337E+03 0.  0.
          5    1    3    3  502    0 -0.37000589660E+02 -0.39228218814E+02 -0.24523573124E+03  0.25112931542E+03  0.41800000000E+01 0.  1.
         -5    1    3    3    0  502  0.52790966937E+02 -0.18423636088E+03 -0.41200657215E+03  0.45441920157E+03  0.41800000000E+01 0.  1.
        -11    1    1    2    0    0  0.36286813702E+02  0.66313594963E+02 -0.21051881183E+03  0.22367922537E+03  0.00000000000E+00 0.  1.
         11    1    1    2    0    0 -0.52077190980E+02  0.15715098473E+03 -0.49080369921E+03  0.51797368367E+03  0.00000000000E+00 0. -1.
</event>
<event>
 7    1  0.8653652E-006  0.1430969E+03  0.7561462E-02  0.1209222E+00
         -3   -1    0    0    0  501 -0.00000000000E+00  0.00000000000E+00  0.90183182366E+03  0.90183182366E+03  0.00000000000E+00 0.  1.
          3   -1    0    0  501    0  0.00000000000E+00 -0.00000000000E+00 -0.37608261828E+02  0.37608261828E+02  0.00000000000E+00 0. -1.
         23    2    1    2    0    0  0.96822715116E+02 -0.83505150739E+02  0.64649225530E+03  0.67077719245E+03  0.12506821089E+03 0.  0.
          5    1    3    3  502    0  0.70606319993E+02 -0.51636260144E+02  0.15898212082E+03  0.18150576555E+03  0.41800000000E+01 0. -1.
         -5    1    3    3    0  502  0.26216395123E+02 -0.31868890595E+02  0.48751013448E+03  0.48927142690E+03  0.41800000000E+01 0. -1.
        -11    1    1    2    0    0  0.40488115666E+01  0.51004590949E+02  0.63907974058E+02  0.81866295392E+02  0.00000000000E+00 0. -1.
         11    1    1    2    0    0 -0.10087152668E+03  0.32500559790E+02  0.15382333247E+03  0.18679659765E+03  0.00000000000E+00 0.  1.
</event>
<event>
 7    1  0.8653652E-006  0.1340882E+03  0.7561462E-02  0.1221513E+00
          2   -1    0    0  501    0  0.00000000000E+00  0.00000000000E+00  0.10845099843E+04  0.10845099843E+04  0.00000000000E+00 0. -1.
         -2   -1    0    0    0  501 -0.00000000000E+00 -0.00000000000E+00 -0.19801497341E+02  0.19801497341E+02  0.00000000000E+00 0.  1.
         23    2    1    2    0    0 -0.80744862347E+02  0.52415033565E+02  0.49701037263E+03  0.52147460588E+03  0.12509750413E+03 0.  0.
          5    1    3    3  502    0 -0.80749422530E+01 -0.28360402779E+02  0.24770367740E+03  0.24948767772E+03  0.41800000000E+01 0.  1.
         -5    1    3    3    0  502 -0.72669920094E+02  0.80775436344E+02  0.24930669523E+03  0.27198692816E+03  0.41800000000E+01 0.  1.
        -11    1    1    2    0    0  0.80741332295E+02 -0.35753890911E+01  0.29869081014E+03  0.30943197347E+03  0.00000000000E+00 0.  1.
         11    1    1    2    0    0  0.35300520501E-02 -0.48839644474E+02  0.26900730418E+03  0.27340490228E+03  0.00000000000E+00 0. -1.
</event>
<event>
 7    1  0.8653652E-006  0.1150498E+03  0.7561462E-02  0.1251494E+00
          3   -1    0    0  501    0  0.00000000000E+00  0.00000000000E+00  0.41687677032E+02  0.41687677032E+02  0.00000000000E+00 0. -1.
         -3   -1    0    0    0  501 -0.00000000000E+00 -0.00000000000E+00 -0.48354435342E+03  0.48354435342E+03  0.00000000000E+00 0.  1.
         23    2    1    2    0    0  0.33321131242E+02  0.49433620405E+02 -0.37207548457E+03  0.39704158896E+03  0.12509147264E+03 0.  0.
          5    1    3    3  502    0  0.72849064687E+02  0.47797408605E+02 -0.31900346694E+03  0.33071477563E+03  0.41800000000E+01 0. -1.
         -5    1    3    3    0  502 -0.39527933446E+02  0.16362118009E+01 -0.53072017630E+02  0.66326813333E+02  0.41800000000E+01 0. -1.
        -11    1    1    2    0    0 -0.48617400272E+02 -0.65061560799E+02 -0.68560725092E+02  0.10628843459E+03  0.00000000000E+00 0.  1.
         11    1    1    2    0    0  0.15296269030E+02  0.15627940394E+02 -0.12204667193E+01  0.21902006899E+02  0.00000000000E+00 0. -1.
</event>
<event>
 7    1  0.8653652E-006  0.8634494E+02  0.7561462E-02  0.1311952E+00
          2   -1    0    0  501    0  0.00000000000E+00  0.00000000000E+00  0.21324400044E+03  0.21324400044E+03  0.00000000000E+00 0. -1.
         -2   -1    0    0    0  501 -0.00000000000E+00 -0.00000000000E+00 -0.63945306068E+02  0.63945306068E+02  0.00000000000E+00 0.  1.
         23    2    1    2    0    0  0.32667205032E+02 -0.62851585095E+01  0.10714514658E+03  0.16802976119E+03  0.12508904311E+03 0.  0.
          5    1    3    3  502    0 -0.39619410699E+02 -0.67227193714E+01  0.21137796126E+01  0.40457794355E+02  0.41800000000E+01 0. -1.
         -5    1    3    3    0  502  0.72286615731E+02  0.43756086189E+00  0.10503136697E+03  0.12757196683E+03  0.41800000000E+01 0. -1.
        -11    1    1    2    0    0 -0.44670878547E+02 -0.28985200574E+01  0.66702402013E+02  0.80331184748E+02  0.00000000000E+00 0. -1.
         11    1    1    2    0    0  0.12003673515E+02  0.91836785669E+01 -0.24548854223E+02  0.28828360576E+02  0.00000000000E+00 0.  1.
</event>
<event>
 7    1  0.8653652E-006  0.9269747E+02  0.7561462E-02  0.1296448E+00
         -1   -1    0    0    0  501 -0.00000000000E+00  0.00000000000E+00  0.21744314198E+02  0.21744314198E+02  0.00000000000E+00 0.  1.
          1   -1    0    0  501    0  0.00000000000E+00 -0.00000000000E+00 -0.56307430067E+03  0.56307430067E+03  0.00000000000E+00 0. -1.
         23    2    1    2    0    0  0.14473325832E+02 -0.51605461764E+01 -0.31575091241E+03  0.33997403084E+03  0.12509034559E+03 0.  0.
          5    1    3    3  502    0  0.55444168125E+02 -0.12076026541E+02 -0.27773020651E+03  0.28349854710E+03  0.41800000000E+01 0. -1.
         -5    1    3    3    0  502 -0.40970842294E+02  0.69154803648E+01 -0.38020705895E+02  0.56475483740E+02  0.41800000000E+01 0. -1.
        -11    1    1    2    0    0 -0.49472084652E+02 -0.63865752412E+01 -0.76869044260E+02  0.91635830703E+02  0.00000000000E+00 0.  1.
         11    1    1    2    0    0  0.34998758820E+02  0.11547121418E+02 -0.14871002980E+03  0.15320875332E+03  0.00000000000E+00 0. -1.
</event>
<event>
 7    1  0.8653652E-006  0.1179333E+03  0.7561462E-02  0.1246546E+00
          3   -1    0    0  501    0  0.00000000000E+00  0.00000000000E+00  0.15579731218E+03  0.15579731218E+03  0.00000000000E+00 0. -1.
         -3   -1    0    0    0  501 -0.00000000000E+00 -0.00000000000E+00 -0.13310400626E+03  0.13310400626E+03  0.00000000000E+00 0.  1.
         23    2    1    2    0    0  0.76065950945E+02 -0.54971209894E+02 -0.55284507206E+01  0.15648000588E+03  0.12509023009E+03 0.  0.
          5    1    3    3  502    0  0.42655345635E+02  0.38487082330E+00 -0.58686436409E+02  0.72671843621E+02  0.41800000000E+01 0.  1.
         -5    1    3    3    0  502  0.33410605309E+02 -0.55356080718E+02  0.53157985689E+02  0.83808162264E+02  0.41800000000E+01 0.  1.
        -11    1    1    2    0    0 -0.28016900182E+02  0.71981583422E+02  0.82658105379E+01  0.77682808082E+02  0.00000000000E+00 0.  1.
         11    1    1    2    0    0 -0.48049050763E+02 -0.17010373527E+02  0.19955946109E+02  0.54738504472E+02  0.00000000000E+00 0. -1.
</event>
<event>
 7    1  0.8653652E-006  0.2024923E+03  0.7561462E-02  0.1147653E+00
          2   -1    0    0  501    0  0.00000000000E+00  0.00000000000E+00  0.55208408628E+03  0.55208408628E+03  0.00000000000E+00 0. -1.
         -2   -1    0    0    0  501 -0.00000000000E+00 -0.00000000000E+00 -0.83479160887E+02  0.83479160887E+02  0.00000000000E+00 0.  1.
         23    2    1    2    0    0 -0.17145488336E+03  0.44282635341E+02  0.16479747652E+03  0.27233084512E+03  0.12509257418E+03 0.  0.
          5    1    3    3  502    0 -0.17032403191E+03  0.92868683680E+01  0.16458134134E+03  0.23706752643E+03  0.41800000000E+01 0.  1.
         -5    1    3    3    0  502 -0.11308514553E+01  0.34995766973E+02  0.21613518524E+00  0.35263318696E+02  0.41800000000E+01 0.  1.
        -11    1    1    2    0    0  0.11374851966E+03  0.16892396981E+02  0.17481216779E+03  0.20924476769E+03  0.00000000000E+00 0.  1.
         11    1    1    2    0    0  0.57706363705E+02 -0.61175032321E+02  0.12899528109E+03  0.15398763435E+03  0.00000000000E+00 0. -1.
</event>
<event>
 7    1  0.8653652E-006  0.1648449E+03  0.7561462E-02  0.1183333E+00
         -1   -1    0    0    0  501 -0.00000000000E+00  0.00000000000E+00  0.55084238770E+02  0.55084238770E+02  0.00000000000E+00 0.  1.
          1   -1    0    0  501    0  0.00000000000E+00 -0.00000000000E+00 -0.56489448852E+03  0.56489448852E+03  0.00000000000E+00 0. -1.
         23    2    1    2    0    0  0.48474169503E+02 -0.13078808815E+03 -0.27645083378E+03  0.33396223895E+03  0.12510173633E+03 0.  0.
          5    1    3    3  502    0 -0.38786251510E+02 -0.30201908161E+02 -0.44333802922E+02  0.66328629146E+02  0.41800000000E+01 0.  1.
         -5    1    3    3    0  502  0.87260421013E+02 -0.10058617999E+03 -0.23211703086E+03  0.26763360980E+03  0.41800000000E+01 0.  1.
        -11    1    1    2    0    0 -0.88968386038E+01  0.89473521341E+02 -0.20121856739E+03  0.22039413926E+03  0.00000000000E+00 0. -1.
         11    1    1    2    0    0 -0.39577330899E+02  0.41314566807E+02 -0.32140848571E+02  0.65622349077E+02  0.00000000000E+00 0.  1.
</event>
<event>
 7    1  0.8653652E-006  0.1078238E+03  0.7561462E-02  0.1264654E+00
          1   -1    0    0  501    0  0.00000000000E+00  0.00000000000E+00  0.50681531836E+03  0.50681531836E+03  0.00000000000E+00 0. -1.
         -1   -1    0    0    0  501 -0.00000000000E+00 -0.00000000000E+00 -0.35136737099E+02  0.35136737099E+02  0.00000000000E+00 0.  1.
         23    2    1    2    0    0 -0.91753737926E+01  0.42413005860E+01  0.10939128508E+03  0.16648416303E+03  0.12509335384E+03 0.  0.
          5    1    3    3  502    0  0.32909144949E+02 -0.45011926089E+02  0.28487295508E+02  0.62754152985E+02  0.41800000000E+01 0. -1.
         -5    1    3    3    0  502 -0.42084518742E+02  0.49253226675E+02  0.80903989572E+02  0.10373001005E+03  0.41800000000E+01 0. -1.
        -11    1    1    2    0    0  0.32227323752E+02 -0.40555006616E+02  0.14527444406E+03  0.15423350172E+03  0.00000000000E+00 0.  1.
         11    1    1    2    0    0 -0.23051949960E+02  0.36313706030E+02  0.21701285213E+03  0.22123439070E+03  0.00000000000E+00 0. -1.
</event>
<event>
 7    1  0.8653652E-006  0.1275452E+03  0.7561462E-02  0.1231144E+00
          2   -1    0    0  501    0  0.00000000000E+00  0.00000000000E+00  0.23320197078E+03  0.23320197078E+03  0.00000000000E+00 0. -1.
         -2   -1    0    0    0  501 -0.00000000000E+00 -0.00000000000E+00 -0.81389880699E+02  0.81389880699E+02  0.00000000000E+00 0.  1.
         23    2    1    2    0    0 -0.19148416901E+02  0.79430123774E+02  0.58506873690E+02  0.16045738816E+03  0.12509081786E+03 0.  0.
          5    1    3    3  502    0  0.45210888708E+02 -0.57879270534E-01  0.72482943878E+01  0.45978668742E+02  0.41800000000E+01 0.  1.
         -5    1    3    3    0  502 -0.64359305609E+02  0.79488003044E+02  0.51258579302E+02  0.11447871941E+03  0.41800000000E+01 0.  1.
        -11    1    1    2    0    0  0.39180746040E+02 -0.77943883509E+02  0.10023876052E+03  0.13288411849E+03  0.00000000000E+00 0.  1.
         11    1    1    2    0    0 -0.20032329139E+02 -0.14862402652E+01 -0.69335441363E+01  0.21250344824E+02  0.00000000000E+00 0. -1.
</event>
<event>
 7    1  0.8653652E-006  0.1819438E+03  0.7561462E-02  0.1165935E+00
          1   -1    0    0  501    0  0.00000000000E+00  0.00000000000E+00  0.39390287788E+03  0.39390287788E+03  0.00000000000E+00 0. -1.
         -1   -1    0    0    0  501 -0.00000000000E+00 -0.00000000000E+00 -0.13635384278E+03  0.13635384278E+03  0.00000000000E+00 0.  1.
         23    2    1    2    0    0 -0.71452809172E+02  0.15330167087E+03  0.22039434283E+01  0.21038296376E+03  0.12509687384E+03 0.  0.
          5    1    3    3  502    0 -0.92918318094E+02  0.13981757788E+03 -0.28518756670E+02  0.17033367490E+03  0.41800000000E+01 0.  1.
         -5    1    3    3    0  502  0.21465508922E+02  0.13484092988E+02  0.30722700098E+02  0.40049288861E+02  0.41800000000E+01 0.  1.
        -11    1    1    2    0    0  0.15145399694E+01 -0.17015533281E+02  0.10093471758E+03  0.10237010998E+03  0.00000000000E+00 0. -1.
         11    1    1    2    0    0  0.69938269203E+02 -0.13628613759E+03  0.15441037409E+03  0.21750364692E+03  0.00000000000E+00 0.  1.
</event>
<event>
 7    1  0.8653652E-006  0.3355251E+03  0.7561462E-02  0.1068718E+00
          2   -1    0    0  501    0  0.00000000000E+00  0.00000000000E+00  0.45911732351E+03  0.45911732351E+03  0.00000000000E+00 0. -1.
         -2   -1    0    0    0  501 -0.00000000000E+00 -0.00000000000E+00 -0.24659019655E+03  0.24659019655E+03  0.00000000000E+00 0.  1.
         23    2    1    2    0    0 -0.23070374998E+03  0.21899894964E+03  0.10030026426E+03  0.35621864597E+03  0.12508725166E+03 0.  0.
          5    1    3    3  502    0 -0.16669677580E+03  0.22011554928E+03  0.94226893244E+02  0.29177876877E+03  0.41800000000E+01 0. -1.
         -5    1    3    3    0  502 -0.64006974177E+02 -0.11165996328E+01  0.60733710124E+01  0.64439877199E+02  0.41800000000E+01 0.  1.
        -11    1    1    2    0    0  0.22096522156E+03 -0.16471757942E+03  0.88627964146E+02  0.28950375842E+03  0.00000000000E+00 0. -1.
         11    1    1    2    0    0  0.97385284185E+01 -0.54281370226E+02  0.23598898550E+02  0.59985115672E+02  0.00000000000E+00 0.  1.
</event>
<event>
 7    1  0.8653652E-006  0.1063280E+03  0.7561462E-02  0.1267525E+00
          1   -1    0    0  501    0  0.00000000000E+00  0.00000000000E+00  0.36107424476E+03  0.36107424476E+03  0.00000000000E+00 0. -1.
         -1   -1    0    0    0  501 -0.00000000000E+00 -0.00000000000E+00 -0.39966334117E+02  0.39966334117E+02  0.00000000000E+00 0.  1.
         23    2    1    2    0    0  0.37896335002E+02 -0.32371118828E+02  0.15569396987E+03  0.20584393375E+03  0.12508833385E+03 0.  0.
          5    1    3    3  502    0 -0.42531044799E+02  0.90659391799E+01  0.43445289538E+02  0.61612065441E+02  0.41800000000E+01 0. -1.
         -5    1    3    3    0  502  0.80427379801E+02 -0.41437058008E+02  0.11224868034E+03  0.14423186831E+03  0.41800000000E+01 0. -1.
        -11    1    1    2    0    0  0.16707989531E+02  0.92797994007E+01 -0.38582268831E+00  0.19115973693E+02  0.00000000000E+00 0.  1.
         11    1    1    2    0    0 -0.54604324534E+02  0.23091319427E+02  0.16579976346E+03  0.17608067143E+03  0.00000000000E+00 0. -1.
</event>
<event>
 7    1  0.8653652E-006  0.1237979E+03  0.7561462E-02  0.1236960E+00
          2   -1    0    0  501    0  0.00000000000E+00  0.00000000000E+00  0.17264221361E+03  0.17264221361E+03  0.00000000000E+00 0. -1.
         -2   -1    0    0    0  501 -0.00000000000E+00 -0.00000000000E+00 -0.13282894774E+03  0.13282894774E+03  0.00000000000E+00 0.  1.
         23    2    1    2    0    0 -0.75554280070E+02  0.72232554139E+02  0.77534641789E+01  0.16319557930E+03  0.12508672903E+03 0.  0.
          5    1    3    3  502    0 -0.52601303630E+02  0.96436967369E+01  0.58454738739E+02  0.79336794184E+02  0.41800000000E+01 0.  1.
         -5    1    3    3    0  502 -0.22952976439E+02  0.62588857402E+02 -0.50701274560E+02  0.83858785112E+02  0.41800000000E+01 0.  1.
        -11    1    1    2    0    0  0.63835669937E+02 -0.10952634352E+02  0.44597809077E+02  0.78637888642E+02  0.00000000000E+00 0. -1.
         11    1    1    2    0    0  0.11718610133E+02 -0.61279919788E+02 -0.12538007385E+02  0.63637693404E+02  0.00000000000E+00 0.  1.
</event>
<event>
 6    1  0.8653652E-006  0.9475475E+02  0.7561462E-02  0.1291729E+00
          3   -1    0    0  501    0  0.00000000000E+00  0.00000000000E+00  0.43062957503E+02  0.43062957503E+02  0.00000000000E+00 0. -1.
         -3   -1    0    0    0  501 -0.00000000000E+00 -0.00000000000E+00 -0.14860758314E+04  0.14860758314E+04  0.00000000000E+00 0.  1.
          5    1    1    2  502    0 -0.29776486124E+02 -0.16996664050E+02 -0.12263679465E+02  0.36652366209E+02  0.41800000000E+01 0. -1.
         -5    1    1    2    0  502  0.51150977178E+02 -0.24203959342E+02 -0.13684755173E+04  0.13696514038E+04  0.41800000000E+01 0.  1.
        -11    1    1    2    0    0 -0.45237194406E+02  0.54563784153E+02 -0.63910159953E+02  0.95436464960E+02  0.00000000000E+00 0. -1.
         11    1    1    2    0    0  0.23862703351E+02 -0.13363160760E+02  0.16364828944E+01  0.27398553849E+02  0.00000000000E+00 0.  1.
</event>
<event>
 7    1  0.8653652E-006  0.1047969E+03  0.7561462E-02  0.1270520E+00
         -2   -1    0    0    0  501 -0.00000000000E+00  0.00000000000E+00  0.48990616558E+02  0.48990616558E+02  0.00000000000E+00 0.  1.
          2   -1    0    0  501    0  0.00000000000E+00 -0.00000000000E+00 -0.29841765472E+03  0.29841765472E+03  0.00000000000E+00 0. -1.
         23    2    1    2    0    0  0.13631612627E+02  0.24914798280E+02 -0.81386789822E+02  0.15191440508E+03  0.12509040282E+03 0.  0.
          5    1    3    3  502    0  0.15421132439E+02  0.73732863857E+02 -0.66783648838E+02  0.10075651190E+03  0.41800000000E+01 0.  1.
         -5    1    3    3    0  502 -0.17895198113E+01 -0.48818065577E+02 -0.14603140984E+02  0.51157893179E+02  0.41800000000E+01 0.  1.
        -11    1    1    2    0    0 -0.34904650064E+02 -0.44259474865E+02 -0.54633404624E+02  0.78498691787E+02  0.00000000000E+00 0.  1.
         11    1    1    2    0    0  0.21273037437E+02  0.19344676586E+02 -0.11340684372E+03  0.11699517442E+03  0.00000000000E+00 0. -1.
</event>
<event>
 7    1  0.8653652E-006  0.4300134E+02  0.7561462E-02  0.1487219E+00
         -1   -1    0    0    0  501 -0.00000000000E+00  0.00000000000E+00  0.66078963371E+03  0.66078963371E+03  0.00000000000E+00 0.  1.
          1   -1    0    0  501    0  0.00000000000E+00 -0.00000000000E+00 -0.19677736022E+02  0.19677736022E+02  0.00000000000E+00 0. -1.
         23    2    1    2    0    0 -0.28300943640E+02 -0.57025591603E+01  0.44142050484E+03  0.45971014751E+03  0.12509154664E+03 0.  0.
          5    1    3    3  502    0 -0.22767543535E+02 -0.69968701465E+01  0.69209298629E+01  0.25153307946E+02  0.41800000000E+01 0.  1.
         -5    1    3    3    0  502 -0.55334001047E+01  0.12943109862E+01  0.43449957498E+03  0.43455683957E+03  0.41800000000E+01 0.  1.
        -11    1    1    2    0    0  0.34813371881E+02  0.19216211580E+02  0.20173580897E+03  0.20561753396E+03  0.00000000000E+00 0.  1.
         11    1    1    2    0    0 -0.65124282411E+01 -0.13513652420E+02 -0.20444161266E+01  0.15139688260E+02  0.00000000000E+00 0. -1.
</event>
<event>
 7    1  0.8653652E-006  0.1350435E+03  0.7561462E-02  0.1220158E+00
          2   -1    0    0  501    0  0.00000000000E+00  0.00000000000E+00  0.36492189063E+02  0.36492189063E+02  0.00000000000E+00 0.  1.
         -2   -1    0    0    0  501 -0.00000000000E+00 -0.00000000000E+00 -0.61978998223E+03  0.61978998223E+03  0.00000000000E+00 0. -1.
         23    2    1    2    0    0  0.63341400227E+02 -0.72967680624E+02 -0.32450607118E+03  0.36095717830E+03  0.12509787744E+03 0.  0.
          5    1    3    3  502    0  0.33452947525E+02  0.24770839376E+02 -0.17414757260E+03  0.17910204807E+03  0.41800000000E+01 0.  1.
         -5    1    3    3    0  502  0.29888452702E+02 -0.97738520000E+02 -0.15035849858E+03  0.18185513023E+03  0.41800000000E+01 0.  1.
        -11    1    1    2    0    0  0.15600217222E+02  0.35090369427E+02 -0.15425746122E+03  0.15896560995E+03  0.00000000000E+00 0. -1.
         11    1    1    2    0    0 -0.78941617448E+02  0.37877311197E+02 -0.10453426077E+03  0.13635938304E+03  0.00000000000E+00 0.  1.
</event>
<event>
 7    1  0.8653652E-006  0.1174778E+03  0.7561462E-02  0.1247317E+00
         -2   -1    0    0    0  501 -0.00000000000E+00  0.00000000000E+00  0.33055223069E+02  0.33055223069E+02  0.00000000000E+00 0. -1.
          2   -1    0    0  501    0  0.00000000000E+00 -0.00000000000E+00 -0.73076683922E+03  0.73076683922E+03  0.00000000000E+00 0.  1.
         23    2    1    2    0    0 -0.10608762211E+03  0.98449713897E+01 -0.30202078773E+03  0.34382447774E+03  0.12508880145E+03 0.  0.
          5    1    3    3  502    0 -0.55277193954E+02  0.58193462032E+01 -0.28428149276E+03  0.28969444676E+03  0.41800000000E+01 0. -1.
         -5    1    3    3    0  502 -0.50810428157E+02  0.40256251866E+01 -0.17739294971E+02  0.54130030978E+02  0.41800000000E+01 0. -1.
        -11    1    1    2    0    0  0.76386466152E+02  0.26758271252E+02 -0.32575320085E+03  0.33565763086E+03  0.00000000000E+00 0. -1.
         11    1    1    2    0    0  0.29701155958E+02 -0.36603242642E+02 -0.69937627579E+02  0.84339953690E+02  0.00000000000E+00 0.  1.
</event>
<event>
 7    1  0.1592147E-005  0.2482376E+03  0.7561462E-02  0.1114424E+00
          2   -1    0    0  501    0  0.00000000000E+00  0.00000000000E+00  0.68041393417E+03  0.68041393417E+03  0.00000000000E+00 0. -1.
         -2   -1    0    0    0  501 -0.00000000000E+00 -0.00000000000E+00 -0.10768158136E+03  0.10768158136E+03  0.00000000000E+00 0.  1.
         23    2    1    2    0    0 -0.27669521635E+02  0.23964063939E+03  0.21181711716E+03  0.34453949497E+03  0.12509090294E+03 0.  0.
          5    1    3    3  502    0  0.20192622302E+02  0.71841460178E+02  0.64493390242E+01  0.75020022459E+02  0.41800000000E+01 0. -1.
         -5    1    3    3    0  502 -0.47862143937E+02  0.16779917921E+03  0.20536777813E+03  0.26951947251E+03  0.41800000000E+01 0. -1.
        -11    1    1    2    0    0 -0.10460407711E+02 -0.14176795093E+03  0.26778556115E+03  0.30317763572E+03  0.00000000000E+00 0. -1.
         11    1    1    2    0    0  0.38129929346E+02 -0.97872688458E+02  0.93129674505E+02  0.14037838484E+03  0.00000000000E+00 0.  1.
</event>
<event>
 7    1  0.8653652E-006  0.1297081E+03  0.7561462E-02  0.1227889E+00
         -1   -1    0    0    0  501 -0.00000000000E+00  0.00000000000E+00  0.27242174997E+03  0.27242174997E+03  0.00000000000E+00 0.  1.
          1   -1    0    0  501    0  0.00000000000E+00 -0.00000000000E+00 -0.86309933835E+02  0.86309933835E+02  0.00000000000E+00 0. -1.
         23    2    1    2    0    0  0.31665537059E+02 -0.84104097984E+02  0.16555118963E+03  0.22612110814E+03  0.12508938254E+03 0.  0.
          5    1    3    3  502    0  0.60580760125E+02 -0.82527482588E+02  0.16797941416E+03  0.19676221655E+03  0.41800000000E+01 0.  1.
         -5    1    3    3    0  502 -0.28915223065E+02 -0.15766153962E+01 -0.24282245308E+01  0.29358891590E+02  0.41800000000E+01 0.  1.
        -11    1    1    2    0    0 -0.61168523606E+02  0.75083010701E+02  0.25338004179E+01  0.96878619523E+02  0.00000000000E+00 0. -1.
         11    1    1    2    0    0  0.29502986546E+02  0.90210872825E+01  0.18026826084E+02  0.35731956140E+02  0.00000000000E+00 0.  1.
</event>
<event>
 7    1  0.8653652E-006  0.9472173E+02  0.7561462E-02  0.1291804E+00
         -2   -1    0    0    0  501 -0.00000000000E+00  0.00000000000E+00  0.19342028841E+03  0.19342028841E+03  0.00000000000E+00 0.  1.
          2   -1    0    0  501    0  0.00000000000E+00 -0.00000000000E+00 -0.87405752781E+02  0.87405752781E+02  0.00000000000E+00 0. -1.
         23    2    1    2    0    0 -0.36972307304E+02  0.36997549582E+02  0.10806505621E+03  0.17573653342E+03  0.12833356000E+03 0.  0.
          5    1    3    3  502    0 -0.68854943712E+02  0.50504963474E+02  0.30640270090E+02  0.90818792990E+02  0.41800000000E+01 0. -1.
         -5    1    3    3    0  502  0.31882636408E+02 -0.13507413892E+02  0.77424786119E+02  0.84917740431E+02  0.41800000000E+01 0.  1.
        -11    1    1    2    0    0  0.21118429540E+02  0.70454286418E+01 -0.39366978690E+02  0.45225934398E+02  0.00000000000E+00 0.  1.
         11    1    1    2    0    0  0.15853877764E+02 -0.44042978224E+02  0.37316458116E+02  0.59863573376E+02  0.00000000000E+00 0. -1.
</event>
<event>
 7    1  0.8653652E-006  0.3586868E+03  0.7561462E-02  0.1059105E+00
          2   -1    0    0  501    0  0.00000000000E+00  0.00000000000E+00  0.83781978258E+03  0.83781978258E+03  0.00000000000E+00 0. -1.
         -2   -1    0    0    0  501 -0.00000000000E+00 -0.00000000000E+00 -0.18830836741E+03  0.18830836741E+03  0.00000000000E+00 0.  1.
         23    2    1    2    0    0  0.24057172523E+03 -0.24965068854E+03  0.53524433647E+03  0.64987316812E+03  0.12509361958E+03 0.  0.
          5    1    3    3  502    0  0.18265065896E+03 -0.24432566202E+03  0.40395009215E+03  0.50621086682E+03  0.41800000000E+01 0. -1.
         -5    1    3    3    0  502  0.57921066274E+02 -0.53250265208E+01  0.13129424431E+03  0.14366230130E+03  0.41800000000E+01 0. -1.
        -11    1    1    2    0    0 -0.18605090292E+03  0.23044116035E+03  0.72437467423E+02  0.30490203926E+03  0.00000000000E+00 0.  1.
         11    1    1    2    0    0 -0.54520822315E+02  0.19209528194E+02  0.41829611281E+02  0.71352942611E+02  0.00000000000E+00 0. -1.
</event>
<event>
 7    1  0.8653652E-006  0.1089961E+03  0.7561462E-02  0.1262440E+00
         -1   -1    0    0    0  501 -0.00000000000E+00  0.00000000000E+00  0.17361051223E+03  0.17361051223E+03  0.00000000000E+00 0.  1.
          1   -1    0    0  501    0  0.00000000000E+00 -0.00000000000E+00 -0.91532562446E+02  0.91532562446E+02  0.00000000000E+00 0. -1.
         23    2    1    2    0    0  0.23924123356E+02 -0.26459519015E+02  0.10342810616E+03  0.16618353095E+03  0.12508846066E+03 0.  0.
          5    1    3    3  502    0 -0.41854278152E+02 -0.42474685911E+02  0.64655338097E+02  0.88054895873E+02  0.41800000000E+01 0. -1.
         -5    1    3    3    0  502  0.65778401508E+02  0.16015166896E+02  0.38772768063E+02  0.78128635076E+02  0.41800000000E+01 0. -1.
        -11    1    1    2    0    0  0.16751480451E+02  0.43250137612E+02  0.65710656715E+01  0.46844054103E+02  0.00000000000E+00 0.  1.
         11    1    1    2    0    0 -0.40675603807E+02 -0.16790618597E+02 -0.27921222048E+02  0.52115489623E+02  0.00000000000E+00 0. -1.
</event>
<event>
 7    1  0.8653652E-006  0.9303753E+02  0.7561462E-02  0.1295658E+00
         -2   -1    0    0    0  501 -0.00000000000E+00  0.00000000000E+00  0.10217183134E+03  0.10217183134E+03  0.00000000000E+00 0.  1.
          2   -1    0    0  501    0  0.00000000000E+00 -0.00000000000E+00 -0.15630545386E+03  0.15630545386E+03  0.00000000000E+00 0. -1.
         23    2    1    2    0    0  0.58442637123E+01  0.54229931589E+02 -0.42908973934E+02  0.14305287290E+03  0.12509158046E+03 0.  0.
          5    1    3    3  502    0 -0.25958921995E+02  0.19146969849E+02 -0.77641641898E+02  0.84179386088E+02  0.41800000000E+01 0.  1.
         -5    1    3    3    0  502  0.31803185707E+02  0.35082961740E+02  0.34732667964E+02  0.58873486813E+02  0.41800000000E+01 0.  1.
        -11    1    1    2    0    0  0.28777270784E+02  0.12078718703E+02  0.16921211458E+02  0.35501466962E+02  0.00000000000E+00 0.  1.
         11    1    1    2    0    0 -0.34621534496E+02 -0.66308650292E+02 -0.28145860040E+02  0.79922945340E+02  0.00000000000E+00 0. -1.
</event>
<event>
 7    1  0.8653652E-006  0.8753932E+02  0.7561462E-02  0.1308922E+00
         -1   -1    0    0    0  501 -0.00000000000E+00  0.00000000000E+00  0.14908632689E+03  0.14908632689E+03  0.00000000000E+00 0.  1.
          1   -1    0    0  501    0  0.00000000000E+00 -0.00000000000E+00 -0.81664229580E+02  0.81664229580E+02  0.00000000000E+00 0. -1.
         23    2    1    2    0    0 -0.12836854942E+02 -0.11410018245E+02  0.56405380079E+02  0.13829177392E+03  0.12509226383E+03 0.  0.
          5    1    3    3  502    0 -0.23206028368E+02  0.54441093049E+02  0.29835622181E+02  0.66407748915E+02  0.41800000000E+01 0. -1.
         -5    1    3    3    0  502  0.10369173426E+02 -0.65851111294E+02  0.26569757898E+02  0.71884025005E+02  0.41800000000E+01 0. -1.
        -11    1    1    2    0    0  0.89999700341E+01 -0.17561108724E+02 -0.33692400326E+02  0.39045740357E+02  0.00000000000E+00 0. -1.
         11    1    1    2    0    0  0.38368849082E+01  0.28971126969E+02  0.44709117555E+02  0.53413042192E+02  0.00000000000E+00 0.  1.
</event>
<event>
 7    1  0.8653652E-006  0.1559761E+03  0.7561462E-02  0.1193316E+00
         -1   -1    0    0    0  501 -0.00000000000E+00  0.00000000000E+00  0.10427860603E+03  0.10427860603E+03  0.00000000000E+00 0.  1.
          1   -1    0    0  501    0  0.00000000000E+00 -0.00000000000E+00 -0.31785276865E+03  0.31785276865E+03  0.00000000000E+00 0. -1.
         23    2    1    2    0    0  0.58383192542E+02  0.96335806905E+02 -0.51564478643E+01  0.16841445980E+03  0.12509059298E+03 0.  0.
          5    1    3    3  502    0  0.77924742780E+02  0.10030485862E+02 -0.11881734423E+02  0.79570875306E+02  0.41800000000E+01 0. -1.
         -5    1    3    3    0  502 -0.19541550238E+02  0.86305321043E+02  0.67252865588E+01  0.88843584492E+02  0.41800000000E+01 0. -1.
        -11    1    1    2    0    0  0.14168093141E+02 -0.63477640965E+02 -0.94400317383E+02  0.11463666816E+03  0.00000000000E+00 0.  1.
         11    1    1    2    0    0 -0.72551285684E+02 -0.32858165940E+02 -0.11401739737E+03  0.13908024672E+03  0.00000000000E+00 0. -1.
</event>
<event>
 6    1  0.8653652E-006  0.1211455E+03  0.7561462E-02  0.1241219E+00
         -1   -1    0    0    0  501 -0.00000000000E+00  0.00000000000E+00  0.25230248000E+02  0.25230248000E+02  0.00000000000E+00 0.  1.
          1   -1    0    0  501    0  0.00000000000E+00 -0.00000000000E+00 -0.62383309358E+03  0.62383309358E+03  0.00000000000E+00 0. -1.
          5    1    1    2  502    0  0.40433831321E+02  0.64760423784E+02 -0.24164543266E+03  0.25345373292E+03  0.41800000000E+01 0. -1.
         -5    1    1    2    0  502  0.14955987569E+02 -0.56109014974E+02 -0.84152347762E+02  0.10232787088E+03  0.41800000000E+01 0.  1.
        -11    1    1    2    0    0  0.25508196289E+02 -0.79232012474E+01 -0.63824102837E+02  0.69187869594E+02  0.00000000000E+00 0.  1.
         11    1    1    2    0    0 -0.80898015179E+02 -0.72820756276E+00 -0.20898096232E+03  0.22409386818E+03  0.00000000000E+00 0. -1.
</event>
<event>
 7    1  0.8653652E-006  0.1329524E+03  0.7561462E-02  0.1223140E+00
         -1   -1    0    0    0  501 -0.00000000000E+00  0.00000000000E+00  0.16621367132E+03  0.16621367132E+03  0.00000000000E+00 0.  1.
          1   -1    0    0  501    0  0.00000000000E+00 -0.00000000000E+00 -0.12205950266E+03  0.12205950266E+03  0.00000000000E+00 0. -1.
         23    2    1    2    0    0  0.47291566306E+02  0.75621888329E+02  0.21985955016E+01  0.15365160168E+03  0.12509523827E+03 0.  0.
          5    1    3    3  502    0  0.84813795825E+02  0.75053938734E+02  0.13758122099E+02  0.11416318148E+03  0.41800000000E+01 0. -1.
         -5    1    3    3    0  502 -0.37522229519E+02  0.56794959540E+00 -0.11559526597E+02  0.39488420201E+02  0.41800000000E+01 0. -1.
        -11    1    1    2    0    0  0.16867962886E+02 -0.17312251174E+01  0.32054967635E+02  0.36263566598E+02  0.00000000000E+00 0.  1.
         11    1    1    2    0    0 -0.64159529191E+02 -0.73890663211E+02  0.99006055176E+01  0.98358005701E+02  0.00000000000E+00 0. -1.
</event>
<event>
 7    1  0.8653652E-006  0.1349856E+03  0.7561462E-02  0.1220240E+00
         -2   -1    0    0    0  501 -0.00000000000E+00  0.00000000000E+00  0.76010335811E+02  0.76010335811E+02  0.00000000000E+00 0.  1.
          2   -1    0    0  501    0  0.00000000000E+00 -0.00000000000E+00 -0.37409015274E+03  0.37409015274E+03  0.00000000000E+00 0. -1.
         23    2    1    2    0    0 -0.66832903451E+02 -0.11106926065E+03 -0.15112247350E+03  0.23513494098E+03  0.12508965115E+03 0.  0.
          5    1    3    3  502    0 -0.61819845339E+02 -0.81462630228E+02 -0.17070962354E+03  0.19904045160E+03  0.41800000000E+01 0. -1.
         -5    1    3    3    0  502 -0.50130581123E+01 -0.29606630425E+02  0.19587150043E+02  0.36094489379E+02  0.41800000000E+01 0. -1.
        -11    1    1    2    0    0  0.66409850733E+02  0.70942549661E+02 -0.48420873344E+02  0.10857114995E+03  0.00000000000E+00 0.  1.
         11    1    1    2    0    0  0.42305271779E+00  0.40126710992E+02 -0.98536470084E+02  0.10639439762E+03  0.00000000000E+00 0. -1.
</event>
<event>
 7    1  0.8653652E-006  0.1379545E+03  0.7561462E-02  0.1216108E+00
         -4   -1    0    0    0  501 -0.00000000000E+00  0.00000000000E+00  0.16468978923E+03  0.16468978923E+03  0.00000000000E+00 0.  1.
          4   -1    0    0  501    0  0.00000000000E+00 -0.00000000000E+00 -0.22875880158E+03  0.22875880158E+03  0.00000000000E+00 0. -1.
         23    2    1    2    0    0 -0.95392454097E+02 -0.81617273665E+01  0.97375256322E+02  0.18519444524E+03  0.12509479570E+03 0.  0.
          5    1    3    3  502    0  0.20287415863E+02  0.26238910991E+02  0.64843909639E+01  0.34052597824E+02  0.41800000000E+01 0.  1.
         -5    1    3    3    0  502 -0.11567986996E+03 -0.34400638358E+02  0.90890865358E+02  0.15114184741E+03  0.41800000000E+01 0.  1.
        -11    1    1    2    0    0  0.10138533351E+03 -0.10682334888E+02 -0.96535396619E+02  0.14040007454E+03  0.00000000000E+00 0.  1.
         11    1    1    2    0    0 -0.59928794137E+01  0.18844062254E+02 -0.64908872048E+02  0.67854071039E+02  0.00000000000E+00 0. -1.
</event>
<event>
 7    1  0.8653652E-006  0.1311262E+03  0.7561462E-02  0.1225794E+00
         -2   -1    0    0    0  501 -0.00000000000E+00  0.00000000000E+00  0.12294675678E+03  0.12294675678E+03  0.00000000000E+00 0.  1.
          2   -1    0    0  501    0  0.00000000000E+00 -0.00000000000E+00 -0.33438103484E+03  0.33438103484E+03  0.00000000000E+00 0. -1.
         23    2    1    2    0    0  0.90076035389E+02 -0.65380705399E+02  0.35534961587E+02  0.17130086950E+03  0.12527140778E+03 0.  0.
          5    1    3    3  502    0  0.73546941418E+02 -0.68630250882E+02  0.76737832461E+02  0.12659159237E+03  0.41800000000E+01 0. -1.
         -5    1    3    3    0  502  0.16529093971E+02  0.32495454827E+01 -0.41202870874E+02  0.44709277131E+02  0.41800000000E+01 0. -1.
        -11    1    1    2    0    0  0.31542647598E+01  0.49549405985E+02 -0.80876582188E+02  0.94900550926E+02  0.00000000000E+00 0. -1.
         11    1    1    2    0    0 -0.93230300148E+02  0.15831299414E+02 -0.16609265746E+03  0.19112637120E+03  0.00000000000E+00 0.  1.
</event>
<event>
 7    1  0.8653652E-006  0.1535265E+03  0.7561462E-02  0.1196205E+00
          1   -1    0    0  501    0  0.00000000000E+00  0.00000000000E+00  0.13148006384E+04  0.13148006384E+04  0.00000000000E+00 0. -1.
         -1   -1    0    0    0  501 -0.00000000000E+00 -0.00000000000E+00 -0.19208437976E+02  0.19208437976E+02  0.00000000000E+00 0.  1.
         23    2    1    2    0    0  0.53150110767E+02  0.10095369830E+03  0.76653260390E+03  0.78500671337E+03  0.12508686470E+03 0.  0.
          5    1    3    3  502    0 -0.37915542083E+02  0.49299194081E+02  0.34933912703E+03  0.35485672734E+03  0.41800000000E+01 0. -1.
         -5    1    3    3    0  502  0.91065652850E+02  0.51654504214E+02  0.41719347688E+03  0.43014998603E+03  0.41800000000E+01 0. -1.
        -11    1    1    2    0    0 -0.19866509257E+02 -0.10458891089E+03  0.46126306074E+03  0.47338898348E+03  0.00000000000E+00 0. -1.
         11    1    1    2    0    0 -0.33283601510E+02  0.36352125972E+01  0.67796535802E+02  0.75613379549E+02  0.00000000000E+00 0.  1.
</event>
<event>
 7    1  0.8653652E-006  0.9644284E+02  0.7561462E-02  0.1287959E+00
          1   -1    0    0  501    0  0.00000000000E+00  0.00000000000E+00  0.18308776521E+03  0.18308776521E+03  0.00000000000E+00 0. -1.
         -1   -1    0    0    0  501 -0.00000000000E+00 -0.00000000000E+00 -0.65938639229E+02  0.65938639229E+02  0.00000000000E+00 0.  1.
         23    2    1    2    0    0 -0.32665450043E+02  0.26471918315E+02  0.60749106394E+02  0.14527976109E+03  0.12509181016E+03 0.  0.
          5    1    3    3  502    0  0.30508092922E+02 -0.10449463760E+02 -0.18437646183E+02  0.37381201470E+02  0.41800000000E+01 0.  1.
         -5    1    3    3    0  502 -0.63173542965E+02  0.36921382075E+02  0.79186752577E+02  0.10789855962E+03  0.41800000000E+01 0.  1.
        -11    1    1    2    0    0 -0.25021254811E+02 -0.49494122238E+01  0.16563619166E+02  0.30412388160E+02  0.00000000000E+00 0.  1.
         11    1    1    2    0    0  0.57686704854E+02 -0.21522506091E+02  0.39836400420E+02  0.73334255187E+02  0.00000000000E+00 0. -1.
</event>
<event>
 7    1  0.8653652E-006  0.4624736E+02  0.7561462E-02  0.1466702E+00
          2   -1    0    0  501    0  0.00000000000E+00  0.00000000000E+00  0.24446643033E+03  0.24446643033E+03  0.00000000000E+00 0. -1.
         -2   -1    0    0    0  501 -0.00000000000E+00 -0.00000000000E+00 -0.46467911430E+02  0.46467911430E+02  0.00000000000E+00 0.  1.
         23    2    1    2    0    0  0.18420900966E+02  0.14958730024E+02  0.10690385584E+03  0.16625041570E+03  0.12509065964E+03 0.  0.
          5    1    3    3  502    0  0.12548600981E+00  0.20225240398E+02 -0.25276154306E+02  0.32640963105E+02  0.41800000000E+01 0.  1.
         -5    1    3    3    0  502  0.18295414957E+02 -0.52665103746E+01  0.13218001014E+03  0.13360945259E+03  0.41800000000E+01 0.  1.
        -11    1    1    2    0    0 -0.31328713162E+02 -0.21384222443E+02  0.60318839535E+01  0.38407770853E+02  0.00000000000E+00 0.  1.
         11    1    1    2    0    0  0.12907812196E+02  0.64254924193E+01  0.85062779109E+02  0.86276155213E+02  0.00000000000E+00 0. -1.
</event>
<event>
 7    1  0.8653652E-006  0.6252175E+02  0.7561462E-02  0.1387544E+00
          1   -1    0    0  501    0  0.00000000000E+00  0.00000000000E+00  0.24049968538E+03  0.24049968538E+03  0.00000000000E+00 0.  1.
         -1   -1    0    0    0  501 -0.00000000000E+00 -0.00000000000E+00 -0.50296271925E+02  0.50296271925E+02  0.00000000000E+00 0. -1.
         23    2    1    2    0    0 -0.92105180594E+01  0.11700924527E+02  0.88947426619E+02  0.15419997741E+03  0.12507694853E+03 0.  0.
          5    1    3    3  502    0  0.24497475451E+02  0.16171368650E+02  0.11004257498E+03  0.11396701354E+03  0.41800000000E+01 0.  1.
         -5    1    3    3    0  502 -0.33707993510E+02 -0.44704441227E+01 -0.21095148360E+02  0.40232963866E+02  0.41800000000E+01 0.  1.
        -11    1    1    2    0    0  0.39721280667E-01 -0.35567068207E+02  0.10490411087E+03  0.11076953731E+03  0.00000000000E+00 0.  1.
         11    1    1    2    0    0  0.91707967788E+01  0.23866143680E+02 -0.36481240338E+01  0.25826442586E+02  0.00000000000E+00 0. -1.
</event>
<event>
 7    1  0.8653652E-006  0.9801898E+02  0.7561462E-02  0.1284518E+00
          1   -1    0    0  501    0  0.00000000000E+00  0.00000000000E+00  0.76471360504E+02  0.76471360504E+02  0.00000000000E+00 0. -1.
         -1   -1    0    0    0  501 -0.00000000000E+00 -0.00000000000E+00 -0.22423128723E+03  0.22423128723E+03  0.00000000000E+00 0.  1.
         23    2    1    2    0    0 -0.72566103930E+02  0.37839475988E+02 -0.10633700136E+03  0.18344805519E+03  0.12509182912E+03 0.  0.
          5    1    3    3  502    0 -0.79531127505E+02  0.16050997053E+02 -0.12804041187E+03  0.15163988335E+03  0.41800000000E+01 0.  1.
         -5    1    3    3    0  502  0.69650235751E+01  0.21788478936E+02  0.21703410517E+02  0.31808171840E+02  0.41800000000E+01 0.  1.
        -11    1    1    2    0    0  0.36978384749E+02 -0.41713612108E+02 -0.55617847758E+02  0.78744976747E+02  0.00000000000E+00 0.  1.
         11    1    1    2    0    0  0.35587719182E+02  0.38741361196E+01  0.14194922390E+02  0.38509615798E+02  0.00000000000E+00 0. -1.
</event>
<event>
 7    1  0.8653652E-006  0.8242939E+02  0.7561462E-02  0.1322295E+00
          1   -1    0    0  501    0  0.00000000000E+00  0.00000000000E+00  0.41968471287E+03  0.41968471287E+03  0.00000000000E+00 0. -1.
         -1   -1    0    0    0  501 -0.00000000000E+00 -0.00000000000E+00 -0.37891148294E+02  0.37891148294E+02  0.00000000000E+00 0.  1.
         23    2    1    2    0    0  0.16454945444E+02  0.60625528433E+02  0.18483498268E+03  0.23185643264E+03  0.12508882687E+03 0.  0.
          5    1    3    3  502    0  0.12617145941E+02  0.62475965181E+02  0.20296009569E+03  0.21277385046E+03  0.41800000000E+01 0. -1.
         -5    1    3    3    0  502  0.38377995027E+01 -0.18504367476E+01 -0.18125113008E+02  0.19082582182E+02  0.41800000000E+01 0. -1.
        -11    1    1    2    0    0 -0.34175570499E+02 -0.67777666906E+02  0.93123785431E+02  0.12014083887E+03  0.00000000000E+00 0.  1.
         11    1    1    2    0    0  0.17720625056E+02  0.71521384731E+01  0.10383479646E+03  0.10557858966E+03  0.00000000000E+00 0. -1.
</event>
<event>
 7    1  0.8653652E-006  0.1669620E+03  0.7561462E-02  0.1181053E+00
         -2   -1    0    0    0  501 -0.00000000000E+00  0.00000000000E+00  0.71304941120E+02  0.71304941120E+02  0.00000000000E+00 0.  1.
          2   -1    0    0  501    0  0.00000000000E+00 -0.00000000000E+00 -0.54317367616E+03  0.54317367616E+03  0.00000000000E+00 0. -1.
         23    2    1    2    0    0 -0.11758483782E+03  0.79122955782E+02 -0.11987809963E+03  0.22384042875E+03  0.12508853886E+03 0.  0.
          5    1    3    3  502    0 -0.65979087264E+02 -0.12380025811E+02 -0.93968306684E+02  0.11555959526E+03  0.41800000000E+01 0. -1.
         -5    1    3    3    0  502 -0.51605750554E+02  0.91502981593E+02 -0.25909792947E+02  0.10828083349E+03  0.41800000000E+01 0. -1.
        -11    1    1    2    0    0  0.50068966992E+02  0.86308272641E+01 -0.61563195710E+02  0.79821173261E+02  0.00000000000E+00 0.  1.
         11    1    1    2    0    0  0.67515870826E+02 -0.87753783046E+02 -0.29042743970E+03  0.31081701527E+03  0.00000000000E+00 0. -1.
</event>
<event>
 7    1  0.8653652E-006  0.1314216E+03  0.7561462E-02  0.1225361E+00
          1   -1    0    0  501    0  0.00000000000E+00  0.00000000000E+00  0.21296846346E+03  0.21296846346E+03  0.00000000000E+00 0. -1.
         -1   -1    0    0    0  501 -0.00000000000E+00 -0.00000000000E+00 -0.10539694833E+03  0.10539694833E+03  0.00000000000E+00 0.  1.
         23    2    1    2    0    0 -0.29632619715E+02  0.81939298618E+02  0.17882198621E+01  0.15245611061E+03  0.12509007604E+03 0.  0.
          5    1    3    3  502    0 -0.69636075305E+02  0.68603813726E+02 -0.26670357225E+02  0.10141226058E+03  0.41800000000E+01 0.  1.
         -5    1    3    3    0  502  0.40003455590E+02  0.13335484892E+02  0.28458577087E+02  0.51043850033E+02  0.41800000000E+01 0.  1.
        -11    1    1    2    0    0 -0.22496593806E+02 -0.63442261745E+02  0.34370739120E+02  0.75580189308E+02  0.00000000000E+00 0. -1.
         11    1    1    2    0    0  0.52129213522E+02 -0.18497036873E+02  0.71412556148E+02  0.90329111869E+02  0.00000000000E+00 0.  1.
</event>
<event>
 7    1  0.8653652E-006  0.1436027E+03  0.7561462E-02  0.1208562E+00
          1   -1    0    0  501    0  0.00000000000E+00  0.00000000000E+00  0.15485027592E+04  0.15485027592E+04  0.00000000000E+00 0. -1.
         -1   -1    0    0    0  501 -0.00000000000E+00 -0.00000000000E+00 -0.16585293447E+02  0.16585293447E+02  0.00000000000E+00 0.  1.
         23    2    1    2    0    0  0.27767591519E+02  0.11698864113E+03  0.87523782911E+03  0.89227039941E+03  0.12509127416E+03 0.  0.
          5    1    3    3  502    0 -0.11682036503E+02  0.95265545657E+02  0.78959797483E+03  0.79542091274E+03  0.41800000000E+01 0.  1.
         -5    1    3    3    0  502  0.39449628022E+02  0.21723095469E+02  0.85639854278E+02  0.96849486672E+02  0.41800000000E+01 0.  1.
        -11    1    1    2    0    0 -0.52540743915E+02 -0.43040337667E+02  0.27627544466E+03  0.28450153208E+03  0.00000000000E+00 0. -1.
         11    1    1    2    0    0  0.24773152395E+02 -0.73948303459E+02  0.38040419196E+03  0.38831612113E+03  0.00000000000E+00 0.  1.
</event>
<event>
 7    1  0.8653652E-006  0.9152524E+02  0.7561462E-02  0.1299200E+00
         -1   -1    0    0    0  501 -0.00000000000E+00  0.00000000000E+00  0.31782650121E+02  0.31782650121E+02  0.00000000000E+00 0.  1.
          1   -1    0    0  501    0  0.00000000000E+00 -0.00000000000E+00 -0.42970673539E+03  0.42970673539E+03  0.00000000000E+00 0. -1.
         23    2    1    2    0    0  0.50163878867E+01 -0.21367278208E+01 -0.13980321455E+03  0.18767387197E+03  0.12508722425E+03 0.  0.
          5    1    3    3  502    0 -0.45590983445E+01 -0.48388341121E+02 -0.13054467134E+03  0.13936140265E+03  0.41800000000E+01 0.  1.
         -5    1    3    3    0  502  0.95754862312E+01  0.46251613301E+02 -0.92585432113E+01  0.48312469321E+02  0.41800000000E+01 0.  1.
        -11    1    1    2    0    0 -0.18716595545E+02  0.41309595743E+02 -0.17671804545E+03  0.18244467994E+03  0.00000000000E+00 0. -1.
         11    1    1    2    0    0  0.13700207658E+02 -0.39172867922E+02 -0.81402825260E+02  0.91370833593E+02  0.00000000000E+00 0.  1.
</event>
<event>
 7    1  0.8653652E-006  0.4217491E+03  0.7561462E-02  0.1036499E+00
         -2   -1    0    0    0  501 -0.00000000000E+00  0.00000000000E+00  0.10945695751E+03  0.10945695751E+03  0.00000000000E+00 0.  1.
          2   -1    0    0  501    0  0.00000000000E+00 -0.00000000000E+00 -0.18904975687E+04  0.18904975687E+04  0.00000000000E+00 0. -1.
         23    2    1    2    0    0 -0.41186616851E+03 -0.60315259938E+02 -0.57445265937E+03  0.72035762420E+03  0.12509027755E+03 0.  0.
          5    1    3    3  502    0 -0.11796967010E+03  0.20954687860E+02 -0.23651904065E+03  0.26516913658E+03  0.41800000000E+01 0. -1.
         -5    1    3    3    0  502 -0.29389649842E+03 -0.81269947798E+02 -0.33793361872E+03  0.45518848761E+03  0.41800000000E+01 0. -1.
        -11    1    1    2    0    0  0.53421641971E+02 -0.72062244006E+01 -0.89623241067E+02  0.10458550014E+03  0.00000000000E+00 0.  1.
         11    1    1    2    0    0  0.35844452654E+03  0.67521484339E+02 -0.11169647107E+04  0.11750114019E+04  0.00000000000E+00 0. -1.
</event>
<event>
 7    1  0.8653652E-006  0.1408189E+03  0.7561462E-02  0.1212231E+00
          1   -1    0    0  501    0  0.00000000000E+00  0.00000000000E+00  0.68963217379E+03  0.68963217379E+03  0.00000000000E+00 0. -1.
         -1   -1    0    0    0  501 -0.00000000000E+00 -0.00000000000E+00 -0.57363130437E+02  0.57363130437E+02  0.00000000000E+00 0.  1.
         23    2    1    2    0    0  0.17469541003E+02  0.12477791012E+03  0.12643832963E+03  0.21793388127E+03  0.12503524978E+03 0.  0.
          5    1    3    3  502    0  0.27258809700E+02  0.25826266717E+02 -0.18537715986E+02  0.42085128879E+02  0.41800000000E+01 0. -1.
         -5    1    3    3    0  502 -0.97892686970E+01  0.98951643407E+02  0.14497604561E+03  0.17584875239E+03  0.41800000000E+01 0. -1.
        -11    1    1    2    0    0  0.22422623510E+02 -0.85342141580E+02  0.39627339261E+03  0.40597864090E+03  0.00000000000E+00 0. -1.
         11    1    1    2    0    0 -0.39892164513E+02 -0.39435768543E+02  0.10955732112E+03  0.12308278206E+03  0.00000000000E+00 0.  1.
</event>
<event>
 7    1  0.8653652E-006  0.1224175E+03  0.7561462E-02  0.1239161E+00
          2   -1    0    0  501    0  0.00000000000E+00  0.00000000000E+00  0.18473152672E+03  0.18473152672E+03  0.00000000000E+00 0. -1.
         -2   -1    0    0    0  501 -0.00000000000E+00 -0.00000000000E+00 -0.10932741528E+03  0.10932741528E+03  0.00000000000E+00 0.  1.
         23    2    1    2    0    0  0.16109591724E+02 -0.89652380632E+02  0.39726645521E+02  0.15975735390E+03  0.12508851851E+03 0.  0.
          5    1    3    3  502    0 -0.10018886186E+02 -0.11539693836E+03  0.19105778862E+02  0.11747056929E+03  0.41800000000E+01 0.  1.
         -5    1    3    3    0  502  0.26128477910E+02  0.25744557731E+02  0.20620866659E+02  0.42286784607E+02  0.41800000000E+01 0.  1.
        -11    1    1    2    0    0  0.16090573276E+00  0.34688234878E+02 -0.30894389348E+02  0.46451725724E+02  0.00000000000E+00 0. -1.
         11    1    1    2    0    0 -0.16270497457E+02  0.54964145754E+02  0.66571855270E+02  0.87849862379E+02  0.00000000000E+00 0.  1.
</event>
<event>
 7    1  0.8653652E-006  0.8683703E+02  0.7561462E-02  0.1310697E+00
         -1   -1    0    0    0  501 -0.00000000000E+00  0.00000000000E+00  0.53096067443E+02  0.53096067443E+02  0.00000000000E+00 0.  1.
          1   -1    0    0  501    0  0.00000000000E+00 -0.00000000000E+00 -0.21836430591E+03  0.21836430591E+03  0.00000000000E+00 0. -1.
         23    2    1    2    0    0 -0.10070461271E+02 -0.86028068081E+01 -0.97075554767E+02  0.15889242449E+03  0.12509083400E+03 0.  0.
          5    1    3    3  502    0  0.82973241356E+01 -0.62174813991E+02 -0.75253026290E+02  0.98056327936E+02  0.41800000000E+01 0.  1.
         -5    1    3    3    0  502 -0.18367785407E+02  0.53572007182E+02 -0.21822528477E+02  0.60836096550E+02  0.41800000000E+01 0.  1.
        -11    1    1    2    0    0 -0.21052850389E+02 -0.19858684041E+01  0.13102883091E+02  0.24876730655E+02  0.00000000000E+00 0.  1.
         11    1    1    2    0    0  0.31123311660E+02  0.10588675212E+02 -0.81295566792E+02  0.87691218212E+02  0.00000000000E+00 0. -1.
</event>
<event>
 7    1  0.8653652E-006  0.1586823E+03  0.7561462E-02  0.1190192E+00
         -2   -1    0    0    0  501 -0.00000000000E+00  0.00000000000E+00  0.24411066754E+02  0.24411066754E+02  0.00000000000E+00 0. -1.
          2   -1    0    0  501    0  0.00000000000E+00 -0.00000000000E+00 -0.11874969943E+04  0.11874969943E+04  0.00000000000E+00 0.  1.
         23    2    1    2    0    0  0.10600473738E+03 -0.74591191963E+02 -0.67400644114E+03  0.69766244161E+03  0.12508936595E+03 0.  0.
          5    1    3    3  502    0 -0.94488528312E+01  0.17233263477E+02 -0.20508637667E+03  0.20606833936E+03  0.41800000000E+01 0. -1.
         -5    1    3    3    0  502  0.11545359021E+03 -0.91824455441E+02 -0.46892006447E+03  0.49159410225E+03  0.41800000000E+01 0. -1.
        -11    1    1    2    0    0 -0.47006626870E+02  0.77482288738E+02 -0.20575873189E+03  0.22483279073E+03  0.00000000000E+00 0.  1.
         11    1    1    2    0    0 -0.58998110506E+02 -0.28910967749E+01 -0.28332075451E+03  0.28941282870E+03  0.00000000000E+00 0. -1.
</event>
<event>
 7    1  0.8653652E-006  0.1156746E+03  0.7561462E-02  0.1250408E+00
          2   -1    0    0  501    0  0.00000000000E+00  0.00000000000E+00  0.15285076676E+03  0.15285076676E+03  0.00000000000E+00 0. -1.
         -2   -1    0    0    0  501 -0.00000000000E+00 -0.00000000000E+00 -0.14287393725E+03  0.14287393725E+03  0.00000000000E+00 0.  1.
         23    2    1    2    0    0 -0.81729779853E+02  0.53342539457E+02 -0.17082881033E+02  0.15957555633E+03  0.12508936774E+03 0.  0.
          5    1    3    3  502    0 -0.68308528466E+02  0.45937651761E+02  0.46089819230E+02  0.94435516344E+02  0.41800000000E+01 0. -1.
         -5    1    3    3    0  502 -0.13421251387E+02  0.74048876962E+01 -0.63172700263E+02  0.65140039984E+02  0.41800000000E+01 0. -1.
        -11    1    1    2    0    0 -0.14044716842E+02  0.10842986078E+02  0.90163741860E-01  0.17743521289E+02  0.00000000000E+00 0.  1.
         11    1    1    2    0    0  0.95774496695E+02 -0.64185525535E+02  0.26969546802E+02  0.11840562639E+03  0.00000000000E+00 0. -1.
</event>
<event>
 7    1  0.8653652E-006  0.9315652E+02  0.7561462E-02  0.1295383E+00
         -2   -1    0    0    0  501 -0.00000000000E+00  0.00000000000E+00  0.13840670469E+03  0.13840670469E+03  0.00000000000E+00 0. -1.
          2   -1    0    0  501    0  0.00000000000E+00 -0.00000000000E+00 -0.16591087788E+03  0.16591087788E+03  0.00000000000E+00 0.  1.
         23    2    1    2    0    0  0.78354363238E+02  0.38404624363E+02 -0.72463676822E+02  0.16885809651E+03  0.12509097045E+03 0.  0.
          5    1    3    3  502    0  0.29404067894E+02  0.33405881095E+02  0.30875530394E+02  0.54326079166E+02  0.41800000000E+01 0. -1.
         -5    1    3    3    0  502  0.48950295344E+02  0.49987432682E+01 -0.10333920722E+03  0.11453201734E+03  0.41800000000E+01 0. -1.
        -11    1    1    2    0    0 -0.66926666219E+02 -0.43392682812E+02 -0.88241262596E+01  0.80249416054E+02  0.00000000000E+00 0.  1.
         11    1    1    2    0    0 -0.11427697019E+02  0.49880584487E+01  0.53783629890E+02  0.55210070009E+02  0.00000000000E+00 0. -1.
</event>
<event>
 7    1  0.8653652E-006  0.1068871E+03  0.7561462E-02  0.1266445E+00
          1   -1    0    0  501    0  0.00000000000E+00  0.00000000000E+00  0.44527656613E+02  0.44527656613E+02  0.00000000000E+00 0. -1.
         -1   -1    0    0    0  501 -0.00000000000E+00 -0.00000000000E+00 -0.49711901202E+03  0.49711901202E+03  0.00000000000E+00 0.  1.
         23    2    1    2    0    0  0.75248983492E+00  0.11779093670E+02 -0.42854039325E+03  0.44658057342E+03  0.12509207256E+03 0.  0.
          5    1    3    3  502    0  0.56901993479E+02 -0.16284498434E+02 -0.15674173797E+03  0.16759614129E+03  0.41800000000E+01 0. -1.
         -5    1    3    3    0  502 -0.56149503644E+02  0.28063592104E+02 -0.27179865528E+03  0.27898443213E+03  0.41800000000E+01 0. -1.
        -11    1    1    2    0    0  0.43124697507E+02  0.72031752243E+01 -0.68333692216E+01  0.44252911806E+02  0.00000000000E+00 0.  1.
         11    1    1    2    0    0 -0.43877187342E+02 -0.18982268894E+02 -0.17217592929E+02  0.50813183404E+02  0.00000000000E+00 0. -1.
</event>
<event>
 7    1  0.8653652E-006  0.1124632E+03  0.7561462E-02  0.1256075E+00
         -1   -1    0    0    0  501 -0.00000000000E+00  0.00000000000E+00  0.43246063803E+03  0.43246063803E+03  0.00000000000E+00 0.  1.
          1   -1    0    0  501    0  0.00000000000E+00 -0.00000000000E+00 -0.48029189846E+02  0.48029189846E+02  0.00000000000E+00 0. -1.
         23    2    1    2    0    0  0.47174280356E+02 -0.10265256147E+02  0.34544714658E+03  0.37055039842E+03  0.12507229299E+03 0.  0.
          5    1    3    3  502    0  0.20046004149E+01  0.54225295207E+02  0.16127741876E+03  0.17021245332E+03  0.41800000000E+01 0. -1.
         -5    1    3    3    0  502  0.45169679941E+02 -0.64490551354E+02  0.18416972783E+03  0.20033794510E+03  0.41800000000E+01 0. -1.
        -11    1    1    2    0    0  0.17299818010E+02  0.20008555411E+02  0.35990263007E+02  0.44664583554E+02  0.00000000000E+00 0. -1.
         11    1    1    2    0    0 -0.64474098365E+02 -0.97432992636E+01  0.29940385935E+01  0.65274845903E+02  0.00000000000E+00 0.  1.
</event>
<event>
 7    1  0.8653652E-006  0.7770580E+02  0.7561462E-02  0.1335691E+00
         -2   -1    0    0    0  501 -0.00000000000E+00  0.00000000000E+00  0.22226315271E+02  0.22226315271E+02  0.00000000000E+00 0.  1.
          2   -1    0    0  501    0  0.00000000000E+00 -0.00000000000E+00 -0.52576854032E+03  0.52576854032E+03  0.00000000000E+00 0. -1.
         23    2    1    2    0    0  0.31275167732E+01 -0.22779047945E+01 -0.23553510250E+03  0.26671703113E+03  0.12508485110E+03 0.  0.
          5    1    3    3  502    0 -0.22117120024E+02  0.25605141357E+02 -0.22481217631E+03  0.22738244717E+03  0.41800000000E+01 0. -1.
         -5    1    3    3    0  502  0.25244636797E+02 -0.27883046151E+02 -0.10722926192E+02  0.39334583966E+02  0.41800000000E+01 0. -1.
        -11    1    1    2    0    0 -0.26534881717E+02 -0.32248369201E+02 -0.10454981811E+03  0.11258206665E+03  0.00000000000E+00 0.  1.
         11    1    1    2    0    0  0.23407364943E+02  0.34526273996E+02 -0.16345730443E+03  0.16869575781E+03  0.00000000000E+00 0. -1.
</event>
<event>
 7    1  0.8653652E-006  0.1137616E+03  0.7561462E-02  0.1253758E+00
          1   -1    0    0  501    0  0.00000000000E+00  0.00000000000E+00  0.87722419214E+03  0.87722419214E+03  0.00000000000E+00 0. -1.
         -1   -1    0    0    0  501 -0.00000000000E+00 -0.00000000000E+00 -0.24065145902E+02  0.24065145902E+02  0.00000000000E+00 0.  1.
         23    2    1    2    0    0 -0.76672624465E+02 -0.24441571095E+02  0.29619082364E+03  0.33144020384E+03  0.12509005944E+03 0.  0.
          5    1    3    3  502    0 -0.90041298171E+02 -0.24388169736E+02  0.10817725471E+03  0.14290559483E+03  0.41800000000E+01 0.  1.
         -5    1    3    3    0  502  0.13368673706E+02 -0.53401358861E-01  0.18801356894E+03  0.18853460900E+03  0.41800000000E+01 0.  1.
        -11    1    1    2    0    0 -0.70059139143E+00  0.41004674338E+02  0.17036334105E+03  0.17522996924E+03  0.00000000000E+00 0.  1.
         11    1    1    2    0    0  0.77373215856E+02 -0.16563103243E+02  0.38660488155E+03  0.39461916497E+03  0.00000000000E+00 0. -1.
</event>
<event>
 7    1  0.8653652E-006  0.1712318E+03  0.7561462E-02  0.1176569E+00
          1   -1    0    0  501    0  0.00000000000E+00  0.00000000000E+00  0.23689610657E+03  0.23689610657E+03  0.00000000000E+00 0. -1.
         -1   -1    0    0    0  501 -0.00000000000E+00 -0.00000000000E+00 -0.12990795117E+03  0.12990795117E+03  0.00000000000E+00 0.  1.
         23    2    1    2    0    0  0.74019975526E+02  0.11449718870E+03  0.76823345008E+02  0.20033989716E+03  0.12508271286E+03 0.  0.
          5    1    3    3  502    0  0.85946531093E+02  0.24698689672E+02  0.15464886385E+02  0.90848591565E+02  0.41800000000E+01 0.  1.
         -5    1    3    3    0  502 -0.11926555567E+02  0.89798499029E+02  0.61358458622E+02  0.10949130559E+03  0.41800000000E+01 0.  1.
        -11    1    1    2    0    0 -0.39111778771E+02 -0.12063224437E+03  0.32599652564E+02  0.13093741622E+03  0.00000000000E+00 0. -1.
         11    1    1    2    0    0 -0.34908196754E+02  0.61350556644E+01 -0.24348421737E+01  0.35526744363E+02  0.00000000000E+00 0.  1.
</event>
<event>
 7    1  0.8653652E-006  0.2121269E+03  0.7561462E-02  0.1139893E+00
         -2   -1    0    0    0  501 -0.00000000000E+00  0.00000000000E+00  0.89951840457E+02  0.89951840457E+02  0.00000000000E+00 0.  1.
          2   -1    0    0  501    0  0.00000000000E+00 -0.00000000000E+00 -0.59803992906E+03  0.59803992906E+03  0.00000000000E+00 0. -1.
         23    2    1    2    0    0 -0.10242812570E+03  0.17316743588E+03 -0.20234520587E+03  0.31156038337E+03  0.12509120019E+03 0.  0.
          5    1    3    3  502    0 -0.11534380443E+03  0.16167706095E+03 -0.13081500168E+03  0.23785226995E+03  0.41800000000E+01 0.  1.
         -5    1    3    3    0  502  0.12915678726E+02  0.11490374933E+02 -0.71530204187E+02  0.73708113421E+02  0.41800000000E+01 0.  1.
        -11    1    1    2    0    0  0.20844757327E+02 -0.85751410478E+02 -0.72053033151E+02  0.11392737991E+03  0.00000000000E+00 0. -1.
         11    1    1    2    0    0  0.81583368373E+02 -0.87416025400E+02 -0.23368984959E+03  0.26250400624E+03  0.00000000000E+00 0.  1.
</event>
<event>
 7    1  0.8653652E-006  0.1143049E+03  0.7561462E-02  0.1252799E+00
         -1   -1    0    0    0  501 -0.00000000000E+00  0.00000000000E+00  0.58529072321E+02  0.58529072321E+02  0.00000000000E+00 0.  1.
          1   -1    0    0  501    0  0.00000000000E+00 -0.00000000000E+00 -0.32181332086E+03  0.32181332086E+03  0.00000000000E+00 0. -1.
         23    2    1    2    0    0  0.17579183412E+02 -0.51731571498E+02 -0.56894531687E+02  0.14788791899E+03  0.12509462686E+03 0.  0.
          5    1    3    3  502    0  0.11246213338E+02  0.34114501441E+02 -0.49621661503E+02  0.61400799777E+02  0.41800000000E+01 0.  1.
         -5    1    3    3    0  502  0.63329700738E+01 -0.85846072939E+02 -0.72728701837E+01  0.86487119213E+02  0.41800000000E+01 0.  1.
        -11    1    1    2    0    0 -0.42983593788E+02 -0.58020310754E+01 -0.71576652087E+02  0.83692711890E+02  0.00000000000E+00 0. -1.
         11    1    1    2    0    0  0.25404410376E+02  0.57533602574E+02 -0.13481306477E+03  0.14876176230E+03  0.00000000000E+00 0.  1.
</event>
<event>
 7    1  0.8653652E-006  0.1199672E+03  0.7561462E-02  0.1243151E+00
          2   -1    0    0  501    0  0.00000000000E+00  0.00000000000E+00  0.63152076545E+02  0.63152076545E+02  0.00000000000E+00 0. -1.
         -2   -1    0    0    0  501 -0.00000000000E+00 -0.00000000000E+00 -0.44900447450E+03  0.44900447450E+03  0.00000000000E+00 0.  1.
         23    2    1    2    0    0  0.38335775097E+02  0.77323992279E+02 -0.34608706603E+03  0.37798480964E+03  0.12509047770E+03 0.  0.
          5    1    3    3  502    0  0.20448938096E+02 -0.25563972592E+02 -0.28374426954E+02  0.43523054453E+02  0.41800000000E+01 0.  1.
         -5    1    3    3    0  502  0.17886837000E+02  0.10288796487E+03 -0.31771263908E+03  0.33446175519E+03  0.41800000000E+01 0.  1.
        -11    1    1    2    0    0  0.26561047998E+01 -0.56273842836E+02  0.19035714999E+02  0.59465609605E+02  0.00000000000E+00 0. -1.
         11    1    1    2    0    0 -0.40991879896E+02 -0.21050149444E+02 -0.58801046920E+02  0.74706131796E+02  0.00000000000E+00 0.  1.
</event>
<event>
 7    1  0.8653652E-006  0.3931576E+03  0.7561462E-02  0.1046175E+00
         -2   -1    0    0    0  501 -0.00000000000E+00  0.00000000000E+00  0.12811884522E+03  0.12811884522E+03  0.00000000000E+00 0. -1.
          2   -1    0    0  501    0  0.00000000000E+00 -0.00000000000E+00 -0.18201045996E+04  0.18201045996E+04  0.00000000000E+00 0.  1.
         23    2    1    2    0    0  0.57210375232E+02 -0.38167500773E+03 -0.31040722767E+03  0.51083226344E+03  0.12509242910E+03 0.  0.
          5    1    3    3  502    0  0.59212469525E+02 -0.14012888925E+03 -0.18198337456E+03  0.23722909426E+03  0.41800000000E+01 0.  1.
         -5    1    3    3    0  502 -0.20020942921E+01 -0.24154611848E+03 -0.12842385312E+03  0.27360316918E+03  0.41800000000E+01 0.  1.
        -11    1    1    2    0    0 -0.57563420778E+02  0.14703654077E+03 -0.65980569942E+03  0.67843706614E+03  0.00000000000E+00 0. -1.
         11    1    1    2    0    0  0.35304554519E+00  0.23463846695E+03 -0.72177282725E+03  0.75895411520E+03  0.00000000000E+00 0.  1.
</event>
<event>
 7    1  0.8653652E-006  0.1231871E+03  0.7561462E-02  0.1237930E+00
          2   -1    0    0  501    0  0.00000000000E+00  0.00000000000E+00  0.55088924968E+03  0.55088924968E+03  0.00000000000E+00 0.  1.
         -2   -1    0    0    0  501 -0.00000000000E+00 -0.00000000000E+00 -0.39249787598E+02  0.39249787598E+02  0.00000000000E+00 0. -1.
         23    2    1    2    0    0  0.71363058822E+02 -0.38702380809E+02  0.16080718801E+03  0.21931012669E+03  0.12508964589E+03 0.  0.
          5    1    3    3  502    0  0.37086871325E+02 -0.76758053125E+02  0.13980156051E+03  0.16379616438E+03  0.41800000000E+01 0.  1.
         -5    1    3    3    0  502  0.34276187496E+02  0.38055672315E+02  0.21005627491E+02  0.55513962306E+02  0.41800000000E+01 0.  1.
        -11    1    1    2    0    0 -0.77591974132E+02  0.76520993743E+01  0.30704463630E+03  0.31678932708E+03  0.00000000000E+00 0.  1.
         11    1    1    2    0    0  0.62289153102E+01  0.31050281435E+02  0.43787637773E+02  0.54039583500E+02  0.00000000000E+00 0. -1.
</event>
<event>
 7    1  0.8653652E-006  0.1838138E+03  0.7561462E-02  0.1164162E+00
          2   -1    0    0  501    0  0.00000000000E+00  0.00000000000E+00  0.11724700907E+03  0.11724700907E+03  0.00000000000E+00 0. -1.
         -2   -1    0    0    0  501 -0.00000000000E+00 -0.00000000000E+00 -0.35269126023E+03  0.35269126023E+03  0.00000000000E+00 0.  1.
         23    2    1    2    0    0 -0.11480471416E+02  0.17047781656E+03 -0.11035739361E+03  0.23878945520E+03  0.12508861829E+03 0.  0.
          5    1    3    3  502    0 -0.48617860763E+02  0.64729394596E+02  0.53881153532E+00  0.81063886089E+02  0.41800000000E+01 0.  1.
         -5    1    3    3    0  502  0.37137389347E+02  0.10574842197E+03 -0.11089620514E+03  0.15772556911E+03  0.41800000000E+01 0.  1.
        -11    1    1    2    0    0 -0.11894349479E+02 -0.83534262254E+02 -0.11191641758E+03  0.14015966982E+03  0.00000000000E+00 0.  1.
         11    1    1    2    0    0  0.23374820895E+02 -0.86943554311E+02 -0.13170439968E+02  0.90989144282E+02  0.00000000000E+00 0. -1.
</event>
<event>
 7    1  0.8653652E-006  0.1088559E+03  0.7561462E-02  0.1262703E+00
         -2   -1    0    0    0  501 -0.00000000000E+00  0.00000000000E+00  0.60186889485E+02  0.60186889485E+02  0.00000000000E+00 0.  1.
          2   -1    0    0  501    0  0.00000000000E+00 -0.00000000000E+00 -0.39529529709E+03  0.39529529709E+03  0.00000000000E+00 0. -1.
         23    2    1    2    0    0  0.70733046815E+02 -0.67982843058E+02 -0.10909543723E+03  0.19280238902E+03  0.12508443519E+03 0.  0.
          5    1    3    3  502    0  0.97133845689E+01 -0.22504540548E+02  0.27070110785E+02  0.36756869875E+02  0.41800000000E+01 0.  1.
         -5    1    3    3    0  502  0.61019662246E+02 -0.45478302510E+02 -0.13616554801E+03  0.15604551914E+03  0.41800000000E+01 0.  1.
        -11    1    1    2    0    0 -0.78179219245E+01  0.50815923880E+02 -0.38736068382E+02  0.64372828248E+02  0.00000000000E+00 0.  1.
         11    1    1    2    0    0 -0.62915124891E+02  0.17166919179E+02 -0.18727690199E+03  0.19830696930E+03  0.00000000000E+00 0. -1.
</event>
<event>
 7    1  0.8653652E-006  0.2277849E+03  0.7561462E-02  0.1128209E+00
         -2   -1    0    0    0  501 -0.00000000000E+00  0.00000000000E+00  0.60206739983E+02  0.60206739983E+02  0.00000000000E+00 0.  1.
          2   -1    0    0  501    0  0.00000000000E+00 -0.00000000000E+00 -0.10207621453E+04  0.10207621453E+04  0.00000000000E+00 0. -1.
         23    2    1    2    0    0 -0.57122986382E+02  0.20375960541E+03 -0.37655209731E+03  0.44969034741E+03  0.12509562021E+03 0.  0.
          5    1    3    3  502    0 -0.31387625118E+02  0.21364033561E+03 -0.31289599997E+03  0.38019568015E+03  0.41800000000E+01 0.  1.
         -5    1    3    3    0  502 -0.25735361265E+02 -0.98807302003E+01 -0.63656097345E+02  0.69494667262E+02  0.41800000000E+01 0.  1.
        -11    1    1    2    0    0  0.17436904324E+02 -0.51747461555E+02 -0.47929829945E+02  0.72657511713E+02  0.00000000000E+00 0.  1.
         11    1    1    2    0    0  0.39686082059E+02 -0.15201214385E+03 -0.53607347807E+03  0.55862102617E+03  0.00000000000E+00 0. -1.
</event>
<event>
 7    1  0.8653652E-006  0.8792601E+02  0.7561462E-02  0.1307953E+00
          3   -1    0    0  501    0  0.00000000000E+00  0.00000000000E+00  0.35848296689E+03  0.35848296689E+03  0.00000000000E+00 0. -1.
         -3   -1    0    0    0  501 -0.00000000000E+00 -0.00000000000E+00 -0.45645309979E+02  0.45645309979E+02  0.00000000000E+00 0.  1.
         23    2    1    2    0    0  0.33065841766E+02  0.51892460343E+02  0.12754717225E+03  0.18894733970E+03  0.12508652484E+03 0.  0.
          5    1    3    3  502    0 -0.17287440125E+02  0.38475123997E+02 -0.84741538131E+01  0.43225853785E+02  0.41800000000E+01 0.  1.
         -5    1    3    3    0  502  0.50353281891E+02  0.13417336346E+02  0.13602132606E+03  0.14572148591E+03  0.41800000000E+01 0.  1.
        -11    1    1    2    0    0 -0.24059939532E+02  0.41591935685E+01  0.14121199146E+03  0.14330738331E+03  0.00000000000E+00 0. -1.
         11    1    1    2    0    0 -0.90059022346E+01 -0.56051653911E+02  0.44078493208E+02  0.71873553862E+02  0.00000000000E+00 0.  1.
</event>
<event>
 7    1  0.8653652E-006  0.8588871E+02  0.7561462E-02  0.1313125E+00
         -3   -1    0    0    0  501 -0.00000000000E+00  0.00000000000E+00  0.56335743892E+03  0.56335743892E+03  0.00000000000E+00 0.  1.
          3   -1    0    0  501    0  0.00000000000E+00 -0.00000000000E+00 -0.23849419809E+02  0.23849419809E+02  0.00000000000E+00 0. -1.
         23    2    1    2    0    0  0.26245711230E+02 -0.33234597619E+02  0.31491704594E+03  0.34148739301E+03  0.12509003927E+03 0.  0.
          5    1    3    3  502    0 -0.21153873965E+02 -0.47416792776E+02  0.50855504071E+02  0.72798305717E+02  0.41800000000E+01 0. -1.
         -5    1    3    3    0  502  0.47399585195E+02  0.14182195157E+02  0.26406154187E+03  0.26868908729E+03  0.41800000000E+01 0. -1.
        -11    1    1    2    0    0  0.88271481340E+01  0.33825256597E+02  0.24772869404E+02  0.42845788434E+02  0.00000000000E+00 0. -1.
         11    1    1    2    0    0 -0.35072859364E+02 -0.59065897810E+00  0.19981810377E+03  0.20287367729E+03  0.00000000000E+00 0.  1.
</event>
<event>
 7    1  0.8653652E-006  0.2070474E+03  0.7561462E-02  0.1143926E+00
          1   -1    0    0  501    0  0.00000000000E+00  0.00000000000E+00  0.24394795632E+03  0.24394795632E+03  0.00000000000E+00 0.  1.
         -1   -1    0    0    0  501 -0.00000000000E+00 -0.00000000000E+00 -0.36094849236E+03  0.36094849236E+03  0.00000000000E+00 0. -1.
         23    2    1    2    0    0  0.19684189446E+03  0.19942980064E+02 -0.25560356107E+03  0.34659189247E+03  0.12509318776E+03 0.  0.
          5    1    3    3  502    0  0.52409609201E+02  0.29322422790E+02 -0.16535531133E+03  0.17597279051E+03  0.41800000000E+01 0.  1.
         -5    1    3    3    0  502  0.14443228526E+03 -0.93794427259E+01 -0.90248249743E+02  0.17061910196E+03  0.41800000000E+01 0.  1.
        -11    1    1    2    0    0 -0.99760247919E+02 -0.44073574761E+02  0.10849377550E+03  0.15383590732E+03  0.00000000000E+00 0.  1.
         11    1    1    2    0    0 -0.97081646543E+02  0.24130594697E+02  0.30109249530E+02  0.10446864890E+03  0.00000000000E+00 0. -1.
</event>
<event>
 7    1  0.8653652E-006  0.1157475E+03  0.7561462E-02  0.1250282E+00
          1   -1    0    0  501    0  0.00000000000E+00  0.00000000000E+00  0.12463846363E+03  0.12463846363E+03  0.00000000000E+00 0. -1.
         -1   -1    0    0    0  501 -0.00000000000E+00 -0.00000000000E+00 -0.19152367357E+03  0.19152367357E+03  0.00000000000E+00 0.  1.
         23    2    1    2    0    0 -0.83582536144E+02 -0.57921089120E+02 -0.77054903143E+02  0.17867742519E+03  0.12508905332E+03 0.  0.
          5    1    3    3  502    0 -0.20161059498E+02  0.17294387232E+02  0.25102658590E+02  0.36785595253E+02  0.41800000000E+01 0.  1.
         -5    1    3    3    0  502 -0.63421476646E+02 -0.75215476352E+02 -0.10215756173E+03  0.14189182993E+03  0.41800000000E+01 0.  1.
        -11    1    1    2    0    0  0.56581094495E+02  0.55109924944E+02 -0.33717253455E+02  0.85880016664E+02  0.00000000000E+00 0.  1.
         11    1    1    2    0    0  0.27001441650E+02  0.28111641756E+01  0.43886946658E+02  0.51604695350E+02  0.00000000000E+00 0. -1.
</event>
<event>
 7    1  0.8653652E-006  0.1064005E+03  0.7561462E-02  0.1267385E+00
          1   -1    0    0  501    0  0.00000000000E+00  0.00000000000E+00  0.26219737051E+03  0.26219737051E+03  0.00000000000E+00 0. -1.
         -1   -1    0    0    0  501 -0.00000000000E+00 -0.00000000000E+00 -0.79821922469E+02  0.79821922469E+02  0.00000000000E+00 0.  1.
         23    2    1    2    0    0 -0.10296462604E+02  0.72687588833E+02  0.26155544349E+02  0.14738015584E+03  0.12508914870E+03 0.  0.
          5    1    3    3  502    0  0.25696477609E+02  0.13369393748E+02 -0.41235077940E+02  0.50565340930E+02  0.41800000000E+01 0.  1.
         -5    1    3    3    0  502 -0.35992940213E+02  0.59318195085E+02  0.67390622290E+02  0.96814814909E+02  0.41800000000E+01 0.  1.
        -11    1    1    2    0    0  0.43386919362E+02 -0.12186913852E+02  0.44387668794E+02  0.63255124550E+02  0.00000000000E+00 0.  1.
         11    1    1    2    0    0 -0.33090456758E+02 -0.60500674981E+02  0.11183223490E+03  0.13138401259E+03  0.00000000000E+00 0. -1.
</event>
<event>
 7    1  0.8653652E-006  0.8357436E+02  0.7561462E-02  0.1319203E+00
         -1   -1    0    0    0  501 -0.00000000000E+00  0.00000000000E+00  0.21899184893E+02  0.21899184893E+02  0.00000000000E+00 0.  1.
          1   -1    0    0  501    0  0.00000000000E+00 -0.00000000000E+00 -0.65466821370E+03  0.65466821370E+03  0.00000000000E+00 0. -1.
         23    2    1    2    0    0  0.43261778884E+02 -0.20471530407E+02 -0.31314517664E+03  0.34058636464E+03  0.12509398490E+03 0.  0.
          5    1    3    3  502    0 -0.82793985826E+01  0.38294789816E+01 -0.26687807696E+03  0.26706664658E+03  0.41800000000E+01 0.  1.
         -5    1    3    3    0  502  0.51541177467E+02 -0.24301009388E+02 -0.46267099681E+02  0.73519718068E+02  0.41800000000E+01 0.  1.
        -11    1    1    2    0    0 -0.63122450196E+02 -0.96935975819E+01 -0.24332477584E+03  0.25156580867E+03  0.00000000000E+00 0. -1.
         11    1    1    2    0    0  0.19860671312E+02  0.30165127989E+02 -0.76299076324E+02  0.84415225282E+02  0.00000000000E+00 0.  1.
</event>
<event>
 7    1  0.8653652E-006  0.1013718E+03  0.7561462E-02  0.1277437E+00
          2   -1    0    0  501    0  0.00000000000E+00  0.00000000000E+00  0.24081372074E+03  0.24081372074E+03  0.00000000000E+00 0. -1.
         -2   -1    0    0    0  501 -0.00000000000E+00 -0.00000000000E+00 -0.51559462973E+02  0.51559462973E+02  0.00000000000E+00 0.  1.
         23    2    1    2    0    0  0.84019866825E+01 -0.15210298433E+02  0.49700446106E+02  0.12512347184E+03  0.11350683814E+03 0.  0.
          5    1    3    3  502    0 -0.18221137736E+02  0.43421642026E+02  0.71103028019E+01  0.47806669645E+02  0.41800000000E+01 0. -1.
         -5    1    3    3    0  502  0.26623124418E+02 -0.58631940459E+02  0.42590143304E+02  0.77316802200E+02  0.41800000000E+01 0.  1.
        -11    1    1    2    0    0 -0.49024598018E+02  0.75902327713E+01  0.62340992570E+02  0.79670711048E+02  0.00000000000E+00 0. -1.
         11    1    1    2    0    0  0.40622611336E+02  0.76200656621E+01  0.77212819091E+02  0.87579000818E+02  0.00000000000E+00 0.  1.
</event>
<event>
 7    1  0.8653652E-006  0.9523740E+02  0.7561462E-02  0.1290642E+00
         -1   -1    0    0    0  501 -0.00000000000E+00  0.00000000000E+00  0.27174448786E+02  0.27174448786E+02  0.00000000000E+00 0.  1.
          1   -1    0    0  501    0  0.00000000000E+00 -0.00000000000E+00 -0.53816079845E+03  0.53816079845E+03  0.00000000000E+00 0. -1.
         23    2    1    2    0    0  0.22450691994E+01  0.49207227038E+02 -0.23834827709E+03  0.27364862000E+03  0.12508906629E+03 0.  0.
          5    1    3    3  502    0  0.53900836688E+02  0.11293492187E+02 -0.17475707321E+03  0.18327670392E+03  0.41800000000E+01 0. -1.
         -5    1    3    3    0  502 -0.51655767489E+02  0.37913734851E+02 -0.63591203877E+02  0.90371916079E+02  0.41800000000E+01 0. -1.
        -11    1    1    2    0    0 -0.21554277489E+02 -0.46862288364E+02 -0.26626926309E+03  0.27121943406E+03  0.00000000000E+00 0. -1.
         11    1    1    2    0    0  0.19309208290E+02 -0.23449386738E+01 -0.63688094868E+01  0.20467193175E+02  0.00000000000E+00 0.  1.
</event>
<event>
 7    1  0.8653652E-006  0.1372389E+03  0.7561462E-02  0.1217093E+00
          1   -1    0    0  501    0  0.00000000000E+00  0.00000000000E+00  0.43995291138E+03  0.43995291138E+03  0.00000000000E+00 0. -1.
         -1   -1    0    0    0  501 -0.00000000000E+00 -0.00000000000E+00 -0.55888631308E+02  0.55888631308E+02  0.00000000000E+00 0.  1.
         23    2    1    2    0    0 -0.33302309582E+01  0.87650631514E+02  0.93648009463E+02  0.17919615529E+03  0.12509032237E+03 0.  0.
          5    1    3    3  502    0  0.60690652312E+02  0.42206263499E+02  0.48900320951E+02  0.88732394004E+02  0.41800000000E+01 0.  1.
         -5    1    3    3    0  502 -0.64020883271E+02  0.45444368015E+02  0.44747688512E+02  0.90463761287E+02  0.41800000000E+01 0.  1.
        -11    1    1    2    0    0 -0.15864205925E+02 -0.98497688544E+02  0.19900347122E+03  0.22261143106E+03  0.00000000000E+00 0.  1.
         11    1    1    2    0    0  0.19194436884E+02  0.10847057030E+02  0.91412799384E+02  0.94033956339E+02  0.00000000000E+00 0. -1.
</event>
<event>
 7    1  0.8653652E-006  0.2749662E+03  0.7561462E-02  0.1098471E+00
          1   -1    0    0  501    0  0.00000000000E+00  0.00000000000E+00  0.12604219586E+04  0.12604219586E+04  0.00000000000E+00 0. -1.
         -1   -1    0    0    0  501 -0.00000000000E+00 -0.00000000000E+00 -0.75341078824E+02  0.75341078824E+02  0.00000000000E+00 0.  1.
         23    2    1    2    0    0  0.20232961913E+03 -0.18424026383E+03  0.40844783686E+03  0.50730774207E+03  0.12509900134E+03 0.  0.
          5    1    3    3  502    0  0.29774386011E+02 -0.12853071497E+02  0.14540836391E+03  0.14903952564E+03  0.41800000000E+01 0. -1.
         -5    1    3    3    0  502  0.17255523311E+03 -0.17138719233E+03  0.26303947296E+03  0.35826821643E+03  0.41800000000E+01 0. -1.
        -11    1    1    2    0    0 -0.15284160388E+03  0.14697434315E+03  0.69073131757E+03  0.72254533871E+03  0.00000000000E+00 0. -1.
         11    1    1    2    0    0 -0.49488015250E+02  0.37265920681E+02  0.85901725309E+02  0.10590995661E+03  0.00000000000E+00 0.  1.
</event>
<event>
 7    1  0.8653652E-006  0.1104233E+03  0.7561462E-02  0.1259788E+00
          3   -1    0    0  501    0  0.00000000000E+00  0.00000000000E+00  0.72317117357E+02  0.72317117357E+02  0.00000000000E+00 0. -1.
         -3   -1    0    0    0  501 -0.00000000000E+00 -0.00000000000E+00 -0.24958288791E+03  0.24958288791E+03  0.00000000000E+00 0.  1.
         23    2    1    2    0    0  0.21562435163E+02  0.17226186193E+02 -0.18219530337E+03  0.22271803539E+03  0.12508602887E+03 0.  0.
          5    1    3    3  502    0 -0.45000071555E+02  0.37100863381E+02 -0.85619531483E+02  0.10368055302E+03  0.41800000000E+01 0.  1.
         -5    1    3    3    0  502  0.66562506718E+02 -0.19874677189E+02 -0.96575771884E+02  0.11903748237E+03  0.41800000000E+01 0.  1.
        -11    1    1    2    0    0 -0.41572276123E+02 -0.43227170183E+02  0.19803431043E+02  0.63158675296E+02  0.00000000000E+00 0. -1.
         11    1    1    2    0    0  0.20009840960E+02  0.26000983990E+02 -0.14873898225E+02  0.36023294576E+02  0.00000000000E+00 0.  1.
</event>
<event>
 7    1  0.8653652E-006  0.2569640E+03  0.7561462E-02  0.1108981E+00
         -1   -1    0    0    0  501 -0.00000000000E+00  0.00000000000E+00  0.15547948206E+03  0.15547948206E+03  0.00000000000E+00 0.  1.
          1   -1    0    0  501    0  0.00000000000E+00 -0.00000000000E+00 -0.50956724528E+03  0.50956724528E+03  0.00000000000E+00 0. -1.
         23    2    1    2    0    0  0.21476040695E+03  0.10524245933E+03 -0.62036026555E+02  0.27693721528E+03  0.12509094682E+03 0.  0.
          5    1    3    3  502    0 -0.64607267688E+01 -0.85868383882E+01  0.12679054354E+02  0.17137841264E+02  0.41800000000E+01 0.  1.
         -5    1    3    3    0  502  0.22122113371E+03  0.11382929772E+03 -0.74715080909E+02  0.25979937401E+03  0.41800000000E+01 0.  1.
        -11    1    1    2    0    0 -0.17781432158E+03 -0.45855082333E+02 -0.23233632857E+03  0.29614319358E+03  0.00000000000E+00 0. -1.
         11    1    1    2    0    0 -0.36946085366E+02 -0.59387377002E+02 -0.59715408090E+02  0.91966318478E+02  0.00000000000E+00 0.  1.
</event>
<event>
 7    1  0.8653652E-006  0.1295775E+03  0.7561462E-02  0.1228084E+00
         -1   -1    0    0    0  501 -0.00000000000E+00  0.00000000000E+00  0.43445836365E+02  0.43445836365E+02  0.00000000000E+00 0.  1.
          1   -1    0    0  501    0  0.00000000000E+00 -0.00000000000E+00 -0.52546191105E+03  0.52546191105E+03  0.00000000000E+00 0. -1.
         23    2    1    2    0    0 -0.86205480067E+02 -0.44070014702E+02 -0.23844853891E+03  0.28614540557E+03  0.12509171208E+03 0.  0.
          5    1    3    3  502    0  0.28073503395E+02 -0.32642998969E+02 -0.65169092726E+02  0.78218731908E+02  0.41800000000E+01 0.  1.
         -5    1    3    3    0  502 -0.11427898346E+03 -0.11427015733E+02 -0.17327944618E+03  0.20792667366E+03  0.41800000000E+01 0.  1.
        -11    1    1    2    0    0  0.35462209810E+02  0.28119782126E+01 -0.20236031356E+03  0.20546331072E+03  0.00000000000E+00 0. -1.
         11    1    1    2    0    0  0.50743270257E+02  0.41258036489E+02 -0.41207222218E+02  0.77299031134E+02  0.00000000000E+00 0.  1.
</event>
<event>
 7    1  0.8653652E-006  0.1208731E+03  0.7561462E-02  0.1241664E+00
          1   -1    0    0  501    0  0.00000000000E+00  0.00000000000E+00  0.11868731821E+03  0.11868731821E+03  0.00000000000E+00 0. -1.
         -1   -1    0    0    0  501 -0.00000000000E+00 -0.00000000000E+00 -0.28938034600E+03  0.28938034600E+03  0.00000000000E+00 0.  1.
         23    2    1    2    0    0  0.43972011594E+02 -0.85439001887E+02 -0.19744507896E+03  0.25271233219E+03  0.12508238401E+03 0.  0.
          5    1    3    3  502    0 -0.11045887663E+02 -0.16315534788E+02  0.13316223395E+02  0.24145445020E+02  0.41800000000E+01 0. -1.
         -5    1    3    3    0  502  0.55017899257E+02 -0.69123467099E+02 -0.21076130235E+03  0.22856688717E+03  0.41800000000E+01 0. -1.
        -11    1    1    2    0    0 -0.50654443804E+02  0.33132851528E+01 -0.26484547440E+02  0.57256281653E+02  0.00000000000E+00 0.  1.
         11    1    1    2    0    0  0.66824322093E+01  0.82125716734E+02  0.53236598613E+02  0.98099050358E+02  0.00000000000E+00 0. -1.
</event>
<event>
 7    1  0.8653652E-006  0.1463732E+03  0.7561462E-02  0.1205002E+00
         -2   -1    0    0    0  501 -0.00000000000E+00  0.00000000000E+00  0.66175415132E+03  0.66175415132E+03  0.00000000000E+00 0.  1.
          2   -1    0    0  501    0  0.00000000000E+00 -0.00000000000E+00 -0.47174495264E+02  0.47174495264E+02  0.00000000000E+00 0. -1.
         23    2    1    2    0    0 -0.80879697263E+02 -0.99397049361E+02  0.43292466563E+03  0.46850039778E+03  0.12509019849E+03 0.  0.
          5    1    3    3  502    0 -0.20611898511E+02  0.95021675934E+01  0.22466117862E+03  0.22584343942E+03  0.41800000000E+01 0. -1.
         -5    1    3    3    0  502 -0.60267798752E+02 -0.10889921695E+03  0.20826348700E+03  0.24265695836E+03  0.41800000000E+01 0. -1.
        -11    1    1    2    0    0  0.25815915289E+02  0.84117030641E+02  0.15301152243E+03  0.17650683364E+03  0.00000000000E+00 0.  1.
         11    1    1    2    0    0  0.55063781974E+02  0.15280018721E+02  0.28643467996E+02  0.63921415161E+02  0.00000000000E+00 0. -1.
</event>
<event>
 7    1  0.8653652E-006  0.7379048E+02  0.7561462E-02  0.1347658E+00
         -2   -1    0    0    0  501 -0.00000000000E+00  0.00000000000E+00  0.29518885162E+02  0.29518885162E+02  0.00000000000E+00 0.  1.
          2   -1    0    0  501    0  0.00000000000E+00 -0.00000000000E+00 -0.38133769398E+03  0.38133769398E+03  0.00000000000E+00 0. -1.
         23    2    1    2    0    0  0.10481869938E+02 -0.20159764380E+01 -0.21690046760E+03  0.24789666708E+03  0.11955338114E+03 0.  0.
          5    1    3    3  502    0 -0.26900026613E+02 -0.13030622053E+02 -0.20460495666E+03  0.20681892861E+03  0.41800000000E+01 0. -1.
         -5    1    3    3    0  502  0.37381896552E+02  0.11014645615E+02 -0.12295510942E+02  0.41077738462E+02  0.41800000000E+01 0.  1.
        -11    1    1    2    0    0  0.28723096969E+02 -0.18292149978E+02 -0.19174151492E+02  0.39080265298E+02  0.00000000000E+00 0.  1.
         11    1    1    2    0    0 -0.39204966908E+02  0.20308126416E+02 -0.11574418973E+03  0.12387964677E+03  0.00000000000E+00 0. -1.
</event>
<event>
 7    1  0.8653652E-006  0.1587066E+03  0.7561462E-02  0.1190165E+00
          2   -1    0    0  501    0  0.00000000000E+00  0.00000000000E+00  0.10818565460E+03  0.10818565460E+03  0.00000000000E+00 0. -1.
         -2   -1    0    0    0  501 -0.00000000000E+00 -0.00000000000E+00 -0.31197903269E+03  0.31197903269E+03  0.00000000000E+00 0.  1.
         23    2    1    2    0    0 -0.68671244303E+02  0.11857773506E+03 -0.16885192496E+03  0.25086546761E+03  0.12508433648E+03 0.  0.
          5    1    3    3  502    0 -0.90659068653E+02  0.10418731732E+03 -0.83456082093E+02  0.16142011603E+03  0.41800000000E+01 0.  1.
         -5    1    3    3    0  502  0.21987824350E+02  0.14390417739E+02 -0.85395842865E+02  0.89445351589E+02  0.41800000000E+01 0.  1.
        -11    1    1    2    0    0  0.80350460209E+02 -0.84477070840E+02 -0.54044938635E+02  0.12850458103E+03  0.00000000000E+00 0.  1.
         11    1    1    2    0    0 -0.11679215905E+02 -0.34100664219E+02  0.19103485500E+02  0.40794638650E+02  0.00000000000E+00 0. -1.
</event>
<event>
 7    1  0.8653652E-006  0.1174638E+03  0.7561462E-02  0.1247341E+00
          4   -1    0    0  501    0  0.00000000000E+00  0.00000000000E+00  0.12588885271E+03  0.12588885271E+03  0.00000000000E+00 0. -1.
         -4   -1    0    0    0  501 -0.00000000000E+00 -0.00000000000E+00 -0.11474417113E+03  0.11474417113E+03  0.00000000000E+00 0.  1.
         23    2    1    2    0    0 -0.34317689020E+02 -0.33309776359E+02 -0.11209328476E+02  0.13438994734E+03  0.12509102254E+03 0.  0.
          5    1    3    3  502    0 -0.74437160732E+02  0.80921997456E+01 -0.14943210488E+02  0.76466636739E+02  0.41800000000E+01 0.  1.
         -5    1    3    3    0  502  0.40119471712E+02 -0.41401976105E+02  0.37338820120E+01  0.57923310599E+02  0.41800000000E+01 0.  1.
        -11    1    1    2    0    0  0.61664670001E+02  0.36251918510E+01  0.39883439982E+01  0.61899761148E+02  0.00000000000E+00 0.  1.
         11    1    1    2    0    0 -0.27346980981E+02  0.29684584508E+02  0.18365666058E+02  0.44343315347E+02  0.00000000000E+00 0. -1.
</event>
<event>
 7    1  0.8653652E-006  0.1249714E+03  0.7561462E-02  0.1235114E+00
         -2   -1    0    0    0  501 -0.00000000000E+00  0.00000000000E+00  0.18384113908E+03  0.18384113908E+03  0.00000000000E+00 0.  1.
          2   -1    0    0  501    0  0.00000000000E+00 -0.00000000000E+00 -0.14012922655E+03  0.14012922655E+03  0.00000000000E+00 0. -1.
         23    2    1    2    0    0  0.54140100470E+02  0.98195575773E+02  0.60403452896E+02  0.17851889329E+03  0.12508755558E+03 0.  0.
          5    1    3    3  502    0  0.72792537526E+02  0.73531096475E+02  0.88735693400E+02  0.13637107960E+03  0.41800000000E+01 0. -1.
         -5    1    3    3    0  502 -0.18652437056E+02  0.24664479297E+02 -0.28332240504E+02  0.42147813694E+02  0.41800000000E+01 0. -1.
        -11    1    1    2    0    0 -0.22003146488E+02 -0.16823379899E+02  0.34378602283E+02  0.44148078797E+02  0.00000000000E+00 0.  1.
         11    1    1    2    0    0 -0.32136953982E+02 -0.81372195874E+02 -0.51070142651E+02  0.10130339354E+03  0.00000000000E+00 0. -1.
</event>
<event>
 7    1  0.8653652E-006  0.1192347E+03  0.7561462E-02  0.1244365E+00
         -2   -1    0    0    0  501 -0.00000000000E+00  0.00000000000E+00  0.57303405124E+02  0.57303405124E+02  0.00000000000E+00 0.  1.
          2   -1    0    0  501    0  0.00000000000E+00 -0.00000000000E+00 -0.49927265834E+03  0.49927265834E+03  0.00000000000E+00 0. -1.
         23    2    1    2    0    0 -0.74177109152E+02  0.75794305155E+02 -0.11330784802E+03  0.19933027150E+03  0.12508744341E+03 0.  0.
          5    1    3    3  502    0 -0.52819442786E+01 -0.29009133736E+01  0.24899544915E+02  0.25957156446E+02  0.41800000000E+01 0. -1.
         -5    1    3    3    0  502 -0.68895164873E+02  0.78695218528E+02 -0.13820739294E+03  0.17337311506E+03  0.41800000000E+01 0. -1.
        -11    1    1    2    0    0  0.26786596907E+02 -0.74371288305E+02 -0.12315583025E+03  0.14634195851E+03  0.00000000000E+00 0.  1.
         11    1    1    2    0    0  0.47390512245E+02 -0.14230168498E+01 -0.20550557494E+03  0.21090383344E+03  0.00000000000E+00 0. -1.
</event>
<event>
 7    1  0.8653652E-006  0.1553714E+03  0.7561462E-02  0.1194024E+00
         -1   -1    0    0    0  501 -0.00000000000E+00  0.00000000000E+00  0.61607990288E+02  0.61607990288E+02  0.00000000000E+00 0.  1.
          1   -1    0    0  501    0  0.00000000000E+00 -0.00000000000E+00 -0.45641335957E+03  0.45641335957E+03  0.00000000000E+00 0. -1.
         23    2    1    2    0    0 -0.12465615521E+03 -0.22612229991E+02 -0.18568906237E+03  0.25725072180E+03  0.12508811297E+03 0.  0.
          5    1    3    3  502    0 -0.73298862861E+02 -0.62480529567E+02 -0.16084656336E+03  0.18752500958E+03  0.41800000000E+01 0.  1.
         -5    1    3    3    0  502 -0.51357292350E+02  0.39868299576E+02 -0.24842499011E+02  0.69725712228E+02  0.41800000000E+01 0.  1.
        -11    1    1    2    0    0 -0.39531409746E+01 -0.14742274512E+02 -0.39556367673E+01  0.15767341044E+02  0.00000000000E+00 0.  1.
         11    1    1    2    0    0  0.12860929619E+03  0.37354504503E+02 -0.20516067014E+03  0.24500328701E+03  0.00000000000E+00 0. -1.
</event>
<event>
 7    1  0.8653652E-006  0.1072308E+03  0.7561462E-02  0.1265786E+00
          2   -1    0    0  501    0  0.00000000000E+00  0.00000000000E+00  0.45365147001E+03  0.45365147001E+03  0.00000000000E+00 0.  1.
         -2   -1    0    0    0  501 -0.00000000000E+00 -0.00000000000E+00 -0.47656348150E+02  0.47656348150E+02  0.00000000000E+00 0. -1.
         23    2    1    2    0    0 -0.51219305040E+02 -0.30600139377E+02  0.86761251307E+02  0.16350832431E+03  0.12509065374E+03 0.  0.
          5    1    3    3  502    0 -0.72156286262E+02 -0.48227232814E+02  0.17113398586E+02  0.88559225624E+02  0.41800000000E+01 0. -1.
         -5    1    3    3    0  502  0.20936981222E+02  0.17627093437E+02  0.69647852721E+02  0.74949098690E+02  0.41800000000E+01 0. -1.
        -11    1    1    2    0    0  0.57076001549E+02 -0.10786380424E+02  0.10961979519E+03  0.12405851624E+03  0.00000000000E+00 0. -1.
         11    1    1    2    0    0 -0.58566965091E+01  0.41386519801E+02  0.20961407536E+03  0.21374097760E+03  0.00000000000E+00 0.  1.
</event>
<event>
 7    1  0.8653652E-006  0.1190650E+03  0.7561462E-02  0.1244648E+00
          1   -1    0    0  501    0  0.00000000000E+00  0.00000000000E+00  0.35761160256E+03  0.35761160256E+03  0.00000000000E+00 0. -1.
         -1   -1    0    0    0  501 -0.00000000000E+00 -0.00000000000E+00 -0.10442537771E+03  0.10442537771E+03  0.00000000000E+00 0.  1.
         23    2    1    2    0    0 -0.77877190984E+02  0.38809758805E+02 -0.26588044757E+02  0.15467699791E+03  0.12508795028E+03 0.  0.
          5    1    3    3  502    0 -0.96966757704E+02  0.51242138697E+02 -0.51001817271E+02  0.12102465304E+03  0.41800000000E+01 0.  1.
         -5    1    3    3    0  502  0.19089566720E+02 -0.12432379892E+02  0.24413772514E+02  0.33652344876E+02  0.41800000000E+01 0.  1.
        -11    1    1    2    0    0  0.33090143129E+02 -0.49149196601E+02  0.65974055652E+02  0.88674557331E+02  0.00000000000E+00 0.  1.
         11    1    1    2    0    0  0.44787047855E+02  0.10339437795E+02  0.21380021395E+03  0.21868542502E+03  0.00000000000E+00 0. -1.
</event>
<event>
 7    1  0.8653652E-006  0.1519690E+03  0.7561462E-02  0.1198074E+00
         -2   -1    0    0    0  501 -0.00000000000E+00  0.00000000000E+00  0.85130937425E+03  0.85130937425E+03  0.00000000000E+00 0.  1.
          2   -1    0    0  501    0  0.00000000000E+00 -0.00000000000E+00 -0.43029602819E+02  0.43029602819E+02  0.00000000000E+00 0. -1.
         23    2    1    2    0    0 -0.84939901202E+02  0.11456271509E+03  0.57505289021E+03  0.60553591296E+03  0.12509401605E+03 0.  0.
          5    1    3    3  502    0 -0.74526360962E+02  0.97535129557E+02  0.23759475268E+03  0.26746218214E+03  0.41800000000E+01 0. -1.
         -5    1    3    3    0  502 -0.10413540240E+02  0.17027585533E+02  0.33745813753E+03  0.33807373082E+03  0.41800000000E+01 0. -1.
        -11    1    1    2    0    0  0.14406588840E+02  0.10029408591E+02  0.31759091907E+01  0.17838868739E+02  0.00000000000E+00 0. -1.
         11    1    1    2    0    0  0.70533312361E+02 -0.12459212368E+03  0.23005097203E+03  0.27096419536E+03  0.00000000000E+00 0.  1.
</event>
<event>
 7    1  0.8653652E-006  0.1163017E+03  0.7561462E-02  0.1249326E+00
          2   -1    0    0  501    0  0.00000000000E+00  0.00000000000E+00  0.37751501658E+03  0.37751501658E+03  0.00000000000E+00 0. -1.
         -2   -1    0    0    0  501 -0.00000000000E+00 -0.00000000000E+00 -0.43094712029E+02  0.43094712029E+02  0.00000000000E+00 0.  1.
         23    2    1    2    0    0  0.41212303180E+02  0.26775003802E+02  0.12193031010E+03  0.18146280438E+03  0.12508554709E+03 0.  0.
          5    1    3    3  502    0  0.49409215690E+02  0.68767926791E+02  0.52249655548E+02  0.99588138124E+02  0.41800000000E+01 0. -1.
         -5    1    3    3    0  502 -0.81969125095E+01 -0.41992922989E+02  0.69680654549E+02  0.81874666254E+02  0.41800000000E+01 0. -1.
        -11    1    1    2    0    0  0.20011512717E+01 -0.53818471389E+02  0.73620859236E+02  0.91216574062E+02  0.00000000000E+00 0.  1.
         11    1    1    2    0    0 -0.43213454452E+02  0.27043467587E+02  0.13886913522E+03  0.14793035017E+03  0.00000000000E+00 0. -1.
</event>
<event>
 7    1  0.8653652E-006  0.1113661E+03  0.7561462E-02  0.1258061E+00
         -2   -1    0    0    0  501 -0.00000000000E+00  0.00000000000E+00  0.20537018288E+02  0.20537018288E+02  0.00000000000E+00 0. -1.
          2   -1    0    0  501    0  0.00000000000E+00 -0.00000000000E+00 -0.72924246893E+03  0.72924246893E+03  0.00000000000E+00 0.  1.
         23    2    1    2    0    0 -0.19513112163E+02  0.50546595697E+02 -0.41939224221E+03  0.44099116544E+03  0.12509050837E+03 0.  0.
          5    1    3    3  502    0 -0.57515339016E+02 -0.11720096462E+02 -0.24384146402E+03  0.25084159715E+03  0.41800000000E+01 0.  1.
         -5    1    3    3    0  502  0.38002226852E+02  0.62266692159E+02 -0.17555077819E+03  0.19014956829E+03  0.41800000000E+01 0.  1.
        -11    1    1    2    0    0  0.39632913152E+02 -0.57234289852E+02 -0.27381302262E+03  0.28252451769E+03  0.00000000000E+00 0.  1.
         11    1    1    2    0    0 -0.20119800989E+02  0.66876941557E+01 -0.15500185803E+02  0.26263804082E+02  0.00000000000E+00 0. -1.
</event>
<event>
 7    1  0.8653652E-006  0.1196358E+03  0.7561462E-02  0.1243699E+00
         -1   -1    0    0    0  501 -0.00000000000E+00  0.00000000000E+00  0.15396315706E+03  0.15396315706E+03  0.00000000000E+00 0.  1.
          1   -1    0    0  501    0  0.00000000000E+00 -0.00000000000E+00 -0.10978289381E+03  0.10978289381E+03  0.00000000000E+00 0. -1.
         23    2    1    2    0    0 -0.46540871836E+02 -0.56963046536E+02  0.40281175745E+02  0.15060018854E+03  0.12508797803E+03 0.  0.
          5    1    3    3  502    0 -0.20997923427E+02 -0.87393457476E+02 -0.51226434277E+01  0.90123487912E+02  0.41800000000E+01 0.  1.
         -5    1    3    3    0  502 -0.25542948410E+02  0.30430410940E+02  0.45403819173E+02  0.60476700629E+02  0.41800000000E+01 0.  1.
        -11    1    1    2    0    0  0.65533511010E+02  0.61441304132E+02 -0.81691855758E+01  0.90202053811E+02  0.00000000000E+00 0. -1.
         11    1    1    2    0    0 -0.18992639174E+02 -0.44782575968E+01  0.12068273079E+02  0.22943808511E+02  0.00000000000E+00 0.  1.
</event>
<event>
 7    1  0.8653652E-006  0.1167454E+03  0.7561462E-02  0.1248565E+00
          1   -1    0    0  501    0  0.00000000000E+00  0.00000000000E+00  0.29651666287E+03  0.29651666287E+03  0.00000000000E+00 0. -1.
         -1   -1    0    0    0  501 -0.00000000000E+00 -0.00000000000E+00 -0.52217580341E+02  0.52217580341E+02  0.00000000000E+00 0.  1.
         23    2    1    2    0    0  0.53820592947E+01  0.61560266776E+02  0.13897060035E+03  0.19692756996E+03  0.12509599131E+03 0.  0.
          5    1    3    3  502    0 -0.46073047001E+02  0.62860577082E+02  0.46050571513E+02  0.90621770826E+02  0.41800000000E+01 0.  1.
         -5    1    3    3    0  502  0.51455106296E+02 -0.13003103058E+01  0.92920028841E+02  0.10630579914E+03  0.41800000000E+01 0.  1.
        -11    1    1    2    0    0  0.35506698403E+02 -0.79650633136E+01  0.61310905219E+02  0.71296528414E+02  0.00000000000E+00 0. -1.
         11    1    1    2    0    0 -0.40888757698E+02 -0.53595203462E+02  0.44017576961E+02  0.80510144838E+02  0.00000000000E+00 0.  1.
</event>
<event>
 7    1  0.8653652E-006  0.3856802E+03  0.7561462E-02  0.1048854E+00
          1   -1    0    0  501    0  0.00000000000E+00  0.00000000000E+00  0.69192181358E+03  0.69192181358E+03  0.00000000000E+00 0. -1.
         -1   -1    0    0    0  501 -0.00000000000E+00 -0.00000000000E+00 -0.42460299149E+03  0.42460299149E+03  0.00000000000E+00 0.  1.
         23    2    1    2    0    0  0.37545836722E+03  0.52121019415E+02 -0.24877875415E+03  0.47034601779E+03  0.12509565046E+03 0.  0.
          5    1    3    3  502    0  0.13637774904E+02 -0.18518978576E+02 -0.40883327737E+02  0.47094164805E+02  0.41800000000E+01 0.  1.
         -5    1    3    3    0  502  0.36182059231E+03  0.70639997991E+02 -0.20789542641E+03  0.42325185299E+03  0.41800000000E+01 0.  1.
        -11    1    1    2    0    0 -0.63784806409E+02 -0.14106989733E+02  0.42434011652E+02  0.77898357061E+02  0.00000000000E+00 0.  1.
         11    1    1    2    0    0 -0.31167356081E+03 -0.38014029683E+02  0.47366356458E+03  0.56828043022E+03  0.00000000000E+00 0. -1.
</event>
<event>
 6    1  0.8653652E-006  0.3016999E+03  0.7561462E-02  0.1084394E+00
         -2   -1    0    0    0  501 -0.00000000000E+00  0.00000000000E+00  0.17141147637E+03  0.17141147637E+03  0.00000000000E+00 0.  1.
          2   -1    0    0  501    0  0.00000000000E+00 -0.00000000000E+00 -0.67706259517E+03  0.67706259517E+03  0.00000000000E+00 0. -1.
          5    1    1    2  502    0  0.34005788716E+02 -0.55364627161E+02 -0.16559552489E+03  0.17793534183E+03  0.41800000000E+01 0. -1.
         -5    1    1    2    0  502 -0.27823661650E+03  0.75099660594E+02 -0.75144618174E+02  0.29785862389E+03  0.41800000000E+01 0.  1.
        -11    1    1    2    0    0  0.38350076683E+02 -0.21925123046E+02 -0.10522875972E+02  0.45411125519E+02  0.00000000000E+00 0.  1.
         11    1    1    2    0    0  0.20588075110E+03  0.21900896135E+01 -0.25438809977E+03  0.32726898031E+03  0.00000000000E+00 0. -1.
</event>
<event>
 7    1  0.8653652E-006  0.1155874E+03  0.7561462E-02  0.1250559E+00
         -1   -1    0    0    0  501 -0.00000000000E+00  0.00000000000E+00  0.39102170106E+03  0.39102170106E+03  0.00000000000E+00 0.  1.
          1   -1    0    0  501    0  0.00000000000E+00 -0.00000000000E+00 -0.63711580000E+02  0.63711580000E+02  0.00000000000E+00 0. -1.
         23    2    1    2    0    0  0.76455542814E+02  0.23216121956E+02  0.30378876706E+03  0.33811431083E+03  0.12509689785E+03 0.  0.
          5    1    3    3  502    0  0.85064001371E+02  0.60058442745E+02  0.17363009163E+03  0.20250378267E+03  0.41800000000E+01 0.  1.
         -5    1    3    3    0  502 -0.86084585570E+01 -0.36842320789E+02  0.13015867543E+03  0.13561052817E+03  0.41800000000E+01 0.  1.
        -11    1    1    2    0    0 -0.66743048166E+02 -0.34014079191E+01 -0.18337324288E+02  0.69299794490E+02  0.00000000000E+00 0. -1.
         11    1    1    2    0    0 -0.97124946483E+01 -0.19814714037E+02  0.41858678289E+02  0.47319175740E+02  0.00000000000E+00 0.  1.
</event>
<event>
 7    1  0.8653652E-006  0.1092050E+03  0.7561462E-02  0.1262049E+00
          3   -1    0    0  501    0  0.00000000000E+00  0.00000000000E+00  0.81042775315E+02  0.81042775315E+02  0.00000000000E+00 0.  1.
         -3   -1    0    0    0  501 -0.00000000000E+00 -0.00000000000E+00 -0.24628309597E+03  0.24628309597E+03  0.00000000000E+00 0. -1.
         23    2    1    2    0    0  0.80450753636E+02  0.32246642031E+02 -0.11997665911E+03  0.19378933109E+03  0.12509091266E+03 0.  0.
          5    1    3    3  502    0 -0.89646337744E+01 -0.23331257175E+02  0.93180671991E+01  0.27000203636E+02  0.41800000000E+01 0. -1.
         -5    1    3    3    0  502  0.89415387411E+02  0.55577899206E+02 -0.12929472631E+03  0.16678912745E+03  0.41800000000E+01 0. -1.
        -11    1    1    2    0    0 -0.45127401359E+02 -0.10874019881E+02  0.24487869929E+02  0.52482210657E+02  0.00000000000E+00 0.  1.
         11    1    1    2    0    0 -0.35323352277E+02 -0.21372622150E+02 -0.69751531475E+02  0.81054329538E+02  0.00000000000E+00 0. -1.
</event>
<event>
 7    1  0.8653652E-006  0.1040655E+03  0.7561462E-02  0.1271972E+00
          1   -1    0    0  501    0  0.00000000000E+00  0.00000000000E+00  0.16969601764E+03  0.16969601764E+03  0.00000000000E+00 0. -1.
         -1   -1    0    0    0  501 -0.00000000000E+00 -0.00000000000E+00 -0.91109376030E+02  0.91109376030E+02  0.00000000000E+00 0.  1.
         23    2    1    2    0    0  0.40885507968E+02 -0.44721277386E+02  0.36485255660E+02  0.14370675954E+03  0.12509532943E+03 0.  0.
          5    1    3    3  502    0  0.42023314906E+02  0.23941377222E+02 -0.22104181444E+02  0.53340564079E+02  0.41800000000E+01 0. -1.
         -5    1    3    3    0  502 -0.11378069379E+01 -0.68662654608E+02  0.58589437103E+02  0.90366195464E+02  0.41800000000E+01 0. -1.
        -11    1    1    2    0    0 -0.58689836712E+02  0.23843926742E+02  0.57570509610E+02  0.85600194816E+02  0.00000000000E+00 0. -1.
         11    1    1    2    0    0  0.17804328744E+02  0.20877350644E+02 -0.15469123662E+02  0.31498439308E+02  0.00000000000E+00 0.  1.
</event>
<event>
 7    1  0.8653652E-006  0.1473815E+03  0.7561462E-02  0.1203728E+00
         -2   -1    0    0    0  501 -0.00000000000E+00  0.00000000000E+00  0.54595113071E+02  0.54595113071E+02  0.00000000000E+00 0.  1.
          2   -1    0    0  501    0  0.00000000000E+00 -0.00000000000E+00 -0.47082869093E+03  0.47082869093E+03  0.00000000000E+00 0. -1.
         23    2    1    2    0    0 -0.95201104198E+02 -0.75243569055E+02 -0.24025375044E+03  0.29680602605E+03  0.12508839904E+03 0.  0.
          5    1    3    3  502    0 -0.79317416377E+02 -0.10647695388E+03 -0.21737187325E+03  0.25474810682E+03  0.41800000000E+01 0.  1.
         -5    1    3    3    0  502 -0.15883687821E+02  0.31233384820E+02 -0.22881877182E+02  0.42057919225E+02  0.41800000000E+01 0.  1.
        -11    1    1    2    0    0  0.57826643595E+02  0.22625978523E+02 -0.29907574937E+02  0.68922555467E+02  0.00000000000E+00 0.  1.
         11    1    1    2    0    0  0.37374460603E+02  0.52617590532E+02 -0.14607225248E+03  0.15969522248E+03  0.00000000000E+00 0. -1.
</event>
<event>
 6    1  0.8653652E-006  0.1081662E+03  0.7561462E-02  0.1264004E+00
         -1   -1    0    0    0  501 -0.00000000000E+00  0.00000000000E+00  0.40813475548E+02  0.40813475548E+02  0.00000000000E+00 0.  1.
          1   -1    0    0  501    0  0.00000000000E+00 -0.00000000000E+00 -0.54719856791E+03  0.54719856791E+03  0.00000000000E+00 0. -1.
          5    1    1    2  502    0 -0.37810417036E+02 -0.38493692111E+02 -0.16694848102E+02  0.56635521733E+02  0.41800000000E+01 0. -1.
         -5    1    1    2    0  502  0.44761912128E+02 -0.51352249871E+02 -0.20809206351E+03  0.21899877087E+03  0.41800000000E+01 0.  1.
        -11    1    1    2    0    0 -0.16173092165E+02  0.37929807384E+02 -0.20575377190E+02  0.46082375643E+02  0.00000000000E+00 0.  1.
         11    1    1    2    0    0  0.92215970732E+01  0.51916134598E+02 -0.26102280355E+03  0.26629537521E+03  0.00000000000E+00 0. -1.
</event>
<event>
 7    1  0.1261452E-005  0.2247917E+03  0.7561462E-02  0.1130360E+00
         -2   -1    0    0    0  501 -0.00000000000E+00  0.00000000000E+00  0.35443665203E+03  0.35443665203E+03  0.00000000000E+00 0. -1.
          2   -1    0    0  501    0  0.00000000000E+00 -0.00000000000E+00 -0.23128757747E+03  0.23128757747E+03  0.00000000000E+00 0.  1.
         23    2    1    2    0    0 -0.20776956267E+03  0.58164145870E+02  0.21976020131E+03  0.33240546974E+03  0.12509033215E+03 0.  0.
          5    1    3    3  502    0 -0.57220022871E+02  0.14171802079E+02 -0.38699405361E+01  0.59223473651E+02  0.41800000000E+01 0.  1.
         -5    1    3    3    0  502 -0.15054953980E+03  0.43992343791E+02  0.22363014185E+03  0.27318199609E+03  0.41800000000E+01 0.  1.
        -11    1    1    2    0    0  0.12674732729E+03 -0.79733951180E+02 -0.70465287550E+02  0.16549243093E+03  0.00000000000E+00 0.  1.
         11    1    1    2    0    0  0.81022235378E+02  0.21569805310E+02 -0.26145839197E+02  0.87826328820E+02  0.00000000000E+00 0. -1.
</event>
<event>
 6    1  0.8653652E-006  0.9335577E+02  0.7561462E-02  0.1294923E+00
          2   -1    0    0  501    0  0.00000000000E+00  0.00000000000E+00  0.63754498485E+03  0.63754498485E+03  0.00000000000E+00 0. -1.
         -2   -1    0    0    0  501 -0.00000000000E+00 -0.00000000000E+00 -0.26772759833E+02  0.26772759833E+02  0.00000000000E+00 0.  1.
          5    1    1    2  502    0 -0.20576885675E+02  0.43487032701E+02  0.26442081100E+03  0.26879428552E+03  0.41800000000E+01 0. -1.
         -5    1    1    2    0  502  0.16824527314E+01 -0.43456783486E+02  0.86896270968E+01  0.44545535099E+02  0.41800000000E+01 0.  1.
        -11    1    1    2    0    0  0.43304819414E+02  0.32440456486E+02  0.16694592622E+03  0.17549539277E+03  0.00000000000E+00 0.  1.
         11    1    1    2    0    0 -0.24410386470E+02 -0.32470705700E+02  0.17071586071E+03  0.17548253130E+03  0.00000000000E+00 0. -1.
</event>
<event>
 7    1  0.8653652E-006  0.8619678E+02  0.7561462E-02  0.1312332E+00
          3   -1    0    0  501    0  0.00000000000E+00  0.00000000000E+00  0.98193953898E+02  0.98193953898E+02  0.00000000000E+00 0. -1.
         -3   -1    0    0    0  501 -0.00000000000E+00 -0.00000000000E+00 -0.28613445976E+03  0.28613445976E+03  0.00000000000E+00 0.  1.
         23    2    1    2    0    0 -0.29342216721E+02  0.95963097059E+01 -0.24375058876E+03  0.27571035236E+03  0.12509513995E+03 0.  0.
          5    1    3    3  502    0 -0.36747989758E+02  0.36353744855E+02 -0.24209281204E+03  0.24758516021E+03  0.41800000000E+01 0.  1.
         -5    1    3    3    0  502  0.74057730371E+01 -0.26757435149E+02 -0.16577767221E+01  0.28125192154E+02  0.41800000000E+01 0.  1.
        -11    1    1    2    0    0  0.53606329058E+02  0.17208976345E+02  0.40497594716E+02  0.69353028483E+02  0.00000000000E+00 0. -1.
         11    1    1    2    0    0 -0.24264112337E+02 -0.26805286051E+02  0.15312488178E+02  0.39265032815E+02  0.00000000000E+00 0.  1.
</event>
<event>
 7    1  0.8653652E-006  0.1153377E+03  0.7561462E-02  0.1250993E+00
         -1   -1    0    0    0  501 -0.00000000000E+00  0.00000000000E+00  0.21351153222E+03  0.21351153222E+03  0.00000000000E+00 0.  1.
          1   -1    0    0  501    0  0.00000000000E+00 -0.00000000000E+00 -0.75605965910E+02  0.75605965910E+02  0.00000000000E+00 0. -1.
         23    2    1    2    0    0  0.57010056428E+02 -0.34133919546E+02  0.74312674305E+02  0.15995320940E+03  0.12508950650E+03 0.  0.
          5    1    3    3  502    0  0.91571358254E+02  0.15787249633E+01  0.45406961885E+02  0.10230870253E+03  0.41800000000E+01 0. -1.
         -5    1    3    3    0  502 -0.34561301826E+02 -0.35712644510E+02  0.28905712420E+02  0.57644506870E+02  0.41800000000E+01 0. -1.
        -11    1    1    2    0    0 -0.43487111785E+02  0.51311047150E+02  0.59593649055E+01  0.67523821583E+02  0.00000000000E+00 0. -1.
         11    1    1    2    0    0 -0.13522944642E+02 -0.17177127604E+02  0.57633527104E+02  0.61640467154E+02  0.00000000000E+00 0.  1.
</event>
<event>
 7    1  0.8653652E-006  0.2188194E+03  0.7561462E-02  0.1134766E+00
          2   -1    0    0  501    0  0.00000000000E+00  0.00000000000E+00  0.46327195446E+03  0.46327195446E+03  0.00000000000E+00 0. -1.
         -2   -1    0    0    0  501 -0.00000000000E+00 -0.00000000000E+00 -0.10941886967E+03  0.10941886967E+03  0.00000000000E+00 0.  1.
         23    2    1    2    0    0 -0.16619735016E+03  0.10236596387E+03  0.15197814531E+03  0.27721032011E+03  0.12509138724E+03 0.  0.
          5    1    3    3  502    0 -0.90425343282E+02 -0.58767255710E+01  0.10039931132E+03  0.13530991362E+03  0.41800000000E+01 0. -1.
         -5    1    3    3    0  502 -0.75772006883E+02  0.10824268944E+03  0.51578833990E+02  0.14190040648E+03  0.41800000000E+01 0. -1.
        -11    1    1    2    0    0  0.15317773554E+03 -0.50546738892E+02  0.13864369700E+03  0.21269806345E+03  0.00000000000E+00 0.  1.
         11    1    1    2    0    0  0.13019614629E+02 -0.51819224977E+02  0.63231242479E+02  0.82782440576E+02  0.00000000000E+00 0. -1.
</event>
<event>
 7    1  0.8653652E-006  0.1383497E+03  0.7561462E-02  0.1215567E+00
         -2   -1    0    0    0  501 -0.00000000000E+00  0.00000000000E+00  0.27343603895E+02  0.27343603895E+02  0.00000000000E+00 0.  1.
          2   -1    0    0  501    0  0.00000000000E+00 -0.00000000000E+00 -0.81910252373E+03  0.81910252373E+03  0.00000000000E+00 0. -1.
         23    2    1    2    0    0  0.48220427410E+02 -0.86335456091E+02 -0.44733961130E+03  0.47490915176E+03  0.12508778513E+03 0.  0.
          5    1    3    3  502    0  0.18587337381E+02  0.19819883615E+02 -0.22544830534E+03  0.22711831207E+03  0.41800000000E+01 0.  1.
         -5    1    3    3    0  502  0.29633090029E+02 -0.10615533971E+03 -0.22189130595E+03  0.24779083968E+03  0.41800000000E+01 0.  1.
        -11    1    1    2    0    0 -0.38258556375E+02 -0.11984258297E+02 -0.86723394029E+02  0.95542067461E+02  0.00000000000E+00 0.  1.
         11    1    1    2    0    0 -0.99618710348E+01  0.98319714388E+02 -0.25769591451E+03  0.27599490840E+03  0.00000000000E+00 0. -1.
</event>
<event>
 6    1  0.8653652E-006  0.3262925E+03  0.7561462E-02  0.1072789E+00
          2   -1    0    0  501    0  0.00000000000E+00  0.00000000000E+00  0.10481412265E+04  0.10481412265E+04  0.00000000000E+00 0. -1.
         -2   -1    0    0    0  501 -0.00000000000E+00 -0.00000000000E+00 -0.12479742162E+03  0.12479742162E+03  0.00000000000E+00 0.  1.
          5    1    1    2  502    0  0.30391186625E+02 -0.36754360340E+02  0.83385321334E+02  0.96151398546E+02  0.41800000000E+01 0. -1.
         -5    1    1    2    0  502  0.26413237017E+03  0.12041262031E+03  0.17483468241E+03  0.33889489031E+03  0.41800000000E+01 0.  1.
        -11    1    1    2    0    0 -0.18514966810E+03 -0.16120489809E+02  0.32648087206E+03  0.37567276932E+03  0.00000000000E+00 0.  1.
         11    1    1    2    0    0 -0.10937388870E+03 -0.67537770157E+02  0.33864292910E+03  0.36221958997E+03  0.00000000000E+00 0. -1.
</event>
<event>
 7    1  0.8653652E-006  0.1214282E+03  0.7561462E-02  0.1240759E+00
         -1   -1    0    0    0  501 -0.00000000000E+00  0.00000000000E+00  0.23744634688E+03  0.23744634688E+03  0.00000000000E+00 0.  1.
          1   -1    0    0  501    0  0.00000000000E+00 -0.00000000000E+00 -0.13851165588E+03  0.13851165588E+03  0.00000000000E+00 0. -1.
         23    2    1    2    0    0 -0.50744324469E+02  0.31600770875E+02  0.18926630973E+03  0.23460748803E+03  0.12508134255E+03 0.  0.
          5    1    3    3  502    0 -0.85870695710E+02  0.44106516730E+02  0.16045022746E+03  0.18729898316E+03  0.41800000000E+01 0. -1.
         -5    1    3    3    0  502  0.35126371241E+02 -0.12505745855E+02  0.28816082273E+02  0.47308504875E+02  0.41800000000E+01 0. -1.
        -11    1    1    2    0    0  0.77335165653E+02 -0.21528358500E+02 -0.67552361432E+02  0.10491672699E+03  0.00000000000E+00 0.  1.
         11    1    1    2    0    0 -0.26590841184E+02 -0.10072412375E+02 -0.22779257299E+02  0.36433787739E+02  0.00000000000E+00 0. -1.
</event>
<event>
 7    1  0.8653652E-006  0.9762686E+02  0.7561462E-02  0.1285367E+00
          3   -1    0    0  501    0  0.00000000000E+00  0.00000000000E+00  0.11579773912E+03  0.11579773912E+03  0.00000000000E+00 0. -1.
         -3   -1    0    0    0  501 -0.00000000000E+00 -0.00000000000E+00 -0.12896244808E+03  0.12896244808E+03  0.00000000000E+00 0.  1.
         23    2    1    2    0    0  0.24492547456E+01  0.54239358733E+02 -0.40776850925E+02  0.13615513402E+03  0.11801509253E+03 0.  0.
          5    1    3    3  502    0 -0.13787819431E+02  0.67500090602E+02  0.19892433849E+02  0.71829990396E+02  0.41800000000E+01 0. -1.
         -5    1    3    3    0  502  0.16237074177E+02 -0.13260731869E+02 -0.60669284774E+02  0.64325143626E+02  0.41800000000E+01 0.  1.
        -11    1    1    2    0    0 -0.20783995913E+02 -0.74609421510E+02  0.23165155823E+02  0.80840365588E+02  0.00000000000E+00 0.  1.
         11    1    1    2    0    0  0.18334741167E+02  0.20370062777E+02  0.44469861384E+01  0.27764687589E+02  0.00000000000E+00 0. -1.
</event>
<event>
 7    1  0.8653652E-006  0.1006735E+03  0.7561462E-02  0.1278886E+00
          1   -1    0    0  501    0  0.00000000000E+00  0.00000000000E+00  0.17802189312E+03  0.17802189312E+03  0.00000000000E+00 0. -1.
         -1   -1    0    0    0  501 -0.00000000000E+00 -0.00000000000E+00 -0.95074143669E+02  0.95074143669E+02  0.00000000000E+00 0.  1.
         23    2    1    2    0    0  0.47325374323E+02  0.38153216959E+02  0.82203867208E+01  0.13932698862E+03  0.12509626686E+03 0.  0.
          5    1    3    3  502    0 -0.19257489316E+02 -0.30696282939E+02  0.21808094843E+02  0.42499153894E+02  0.41800000000E+01 0. -1.
         -5    1    3    3    0  502  0.66582863638E+02  0.68849499898E+02 -0.13587708122E+02  0.96827834730E+02  0.41800000000E+01 0. -1.
        -11    1    1    2    0    0 -0.34659876536E+02 -0.69849437414E+01 -0.14648270988E+02  0.38270985400E+02  0.00000000000E+00 0.  1.
         11    1    1    2    0    0 -0.12665497787E+02 -0.31168273217E+02  0.89375633721E+02  0.95498062769E+02  0.00000000000E+00 0. -1.
</event>
<event>
 7    1  0.8653652E-006  0.1080541E+03  0.7561462E-02  0.1264216E+00
          1   -1    0    0  501    0  0.00000000000E+00  0.00000000000E+00  0.16665910688E+02  0.16665910688E+02  0.00000000000E+00 0. -1.
         -1   -1    0    0    0  501 -0.00000000000E+00 -0.00000000000E+00 -0.73168540232E+03  0.73168540232E+03  0.00000000000E+00 0.  1.
         23    2    1    2    0    0  0.31978448465E+01  0.65898001642E+01 -0.43051804887E+03  0.44838234826E+03  0.12508912082E+03 0.  0.
          5    1    3    3  502    0  0.62812003225E+01 -0.58642018200E+02 -0.18018468175E+03  0.18963736898E+03  0.41800000000E+01 0. -1.
         -5    1    3    3    0  502 -0.30833554761E+01  0.65231818364E+02 -0.25033336712E+03  0.25874497928E+03  0.41800000000E+01 0. -1.
        -11    1    1    2    0    0 -0.60950179367E+01  0.42215549665E+02 -0.17370024649E+03  0.17886049734E+03  0.00000000000E+00 0.  1.
         11    1    1    2    0    0  0.28971730903E+01 -0.48805349829E+02 -0.11080119627E+03  0.12110846741E+03  0.00000000000E+00 0. -1.
</event>
<event>
 7    1  0.8653652E-006  0.1036033E+03  0.7561462E-02  0.1272896E+00
          1   -1    0    0  501    0  0.00000000000E+00  0.00000000000E+00  0.14035056277E+03  0.14035056277E+03  0.00000000000E+00 0. -1.
         -1   -1    0    0    0  501 -0.00000000000E+00 -0.00000000000E+00 -0.83406789123E+02  0.83406789123E+02  0.00000000000E+00 0.  1.
         23    2    1    2    0    0  0.18817678035E+02 -0.19230224544E+02  0.40755231194E+02  0.12652299104E+03  0.11671834410E+03 0.  0.
          5    1    3    3  502    0  0.41814933490E+02 -0.54984978365E+02  0.46565528503E+02  0.83412573113E+02  0.41800000000E+01 0. -1.
         -5    1    3    3    0  502 -0.22997255455E+02  0.35754753821E+02 -0.58102973092E+01  0.43110417930E+02  0.41800000000E+01 0.  1.
        -11    1    1    2    0    0  0.26999222934E+02  0.37289009755E+02  0.13218989843E+02  0.47897494507E+02  0.00000000000E+00 0. -1.
         11    1    1    2    0    0 -0.45816900970E+02 -0.18058785211E+02  0.29695526090E+01  0.49336866342E+02  0.00000000000E+00 0.  1.
</event>
<event>
 7    1  0.8653652E-006  0.1562193E+03  0.7561462E-02  0.1193033E+00
         -2   -1    0    0    0  501 -0.00000000000E+00  0.00000000000E+00  0.11946721381E+03  0.11946721381E+03  0.00000000000E+00 0.  1.
          2   -1    0    0  501    0  0.00000000000E+00 -0.00000000000E+00 -0.25714254207E+03  0.25714254207E+03  0.00000000000E+00 0. -1.
         23    2    1    2    0    0 -0.78872599756E+02  0.93375715948E+02 -0.21765936031E+01  0.17490621488E+03  0.12509010801E+03 0.  0.
          5    1    3    3  502    0 -0.37770284753E+02  0.11686917609E+03 -0.19280222660E+02  0.12439532996E+03  0.41800000000E+01 0. -1.
         -5    1    3    3    0  502 -0.41102315004E+02 -0.23493460143E+02  0.17103629057E+02  0.50510884917E+02  0.41800000000E+01 0. -1.
        -11    1    1    2    0    0 -0.56010842914E+01 -0.43626951426E+02 -0.73665676472E+02  0.85798105609E+02  0.00000000000E+00 0. -1.
         11    1    1    2    0    0  0.84473684048E+02 -0.49748764522E+02 -0.61833058184E+02  0.11590543539E+03  0.00000000000E+00 0.  1.
</event>
<event>
 7    1  0.8653652E-006  0.1053332E+03  0.7561462E-02  0.1269465E+00
         -1   -1    0    0    0  501 -0.00000000000E+00  0.00000000000E+00  0.28881632318E+02  0.28881632318E+02  0.00000000000E+00 0.  1.
          1   -1    0    0  501    0  0.00000000000E+00 -0.00000000000E+00 -0.68080793975E+03  0.68080793975E+03  0.00000000000E+00 0. -1.
         23    2    1    2    0    0 -0.74722417594E+02 -0.47664321774E+02 -0.36878502346E+03  0.39937165268E+03  0.12505997033E+03 0.  0.
          5    1    3    3  502    0 -0.47228379557E+02 -0.11804549439E+02 -0.29521102662E+02  0.57086207839E+02  0.41800000000E+01 0.  1.
         -5    1    3    3    0  502 -0.27494038037E+02 -0.35859772335E+02 -0.33926392080E+03  0.34228544485E+03  0.41800000000E+01 0.  1.
        -11    1    1    2    0    0  0.20931725030E+02 -0.20698970362E+02 -0.27509493990E+02  0.40290901533E+02  0.00000000000E+00 0.  1.
         11    1    1    2    0    0  0.53790692564E+02  0.68363292136E+02 -0.25563178999E+03  0.27002701785E+03  0.00000000000E+00 0. -1.
</event>
<event>
 7    1  0.8653652E-006  0.7253194E+02  0.7561462E-02  0.1351689E+00
         -2   -1    0    0    0  501 -0.00000000000E+00  0.00000000000E+00  0.68402710331E+02  0.68402710331E+02  0.00000000000E+00 0.  1.
          2   -1    0    0  501    0  0.00000000000E+00 -0.00000000000E+00 -0.18546972248E+03  0.18546972248E+03  0.00000000000E+00 0. -1.
         23    2    1    2    0    0 -0.22262228762E+02  0.13067301200E+02 -0.48894432580E+02  0.13676733549E+03  0.12509307467E+03 0.  0.
          5    1    3    3  502    0 -0.17064438875E+02  0.49010863332E+02 -0.75388106170E+02  0.91619314288E+02  0.41800000000E+01 0. -1.
         -5    1    3    3    0  502 -0.51977898869E+01 -0.35943562131E+02  0.26493673590E+02  0.45148021205E+02  0.41800000000E+01 0. -1.
        -11    1    1    2    0    0  0.57492624134E-01 -0.29070991289E+02  0.12701648722E+02  0.31724717811E+02  0.00000000000E+00 0.  1.
         11    1    1    2    0    0  0.22204736137E+02  0.16003690089E+02 -0.80874228287E+02  0.85380379505E+02  0.00000000000E+00 0. -1.
</event>
<event>
 7    1  0.8653652E-006  0.1705164E+03  0.7561462E-02  0.1177310E+00
         -1   -1    0    0    0  501 -0.00000000000E+00  0.00000000000E+00  0.10092049455E+03  0.10092049455E+03  0.00000000000E+00 0.  1.
          1   -1    0    0  501    0  0.00000000000E+00 -0.00000000000E+00 -0.35148874937E+03  0.35148874937E+03  0.00000000000E+00 0. -1.
         23    2    1    2    0    0  0.14295265821E+03  0.47514361744E+02 -0.93615694293E+02  0.21703468858E+03  0.12508829190E+03 0.  0.
          5    1    3    3  502    0  0.59220988425E+02 -0.14994949616E+02 -0.94325231891E+02  0.11245752867E+03  0.41800000000E+01 0. -1.
         -5    1    3    3    0  502  0.83731669785E+02  0.62509311360E+02  0.70953759758E+00  0.10457715991E+03  0.41800000000E+01 0. -1.
        -11    1    1    2    0    0 -0.14357769741E+03 -0.65087007262E+02 -0.13786388956E+03  0.20942140710E+03  0.00000000000E+00 0. -1.
         11    1    1    2    0    0  0.62503919742E+00  0.17572645519E+02 -0.19088670966E+02  0.25953148244E+02  0.00000000000E+00 0.  1.
</event>
<event>
 7    1  0.8653652E-006  0.1293458E+03  0.7561462E-02  0.1228430E+00
          1   -1    0    0  501    0  0.00000000000E+00  0.00000000000E+00  0.87972044246E+03  0.87972044246E+03  0.00000000000E+00 0. -1.
         -1   -1    0    0    0  501 -0.00000000000E+00 -0.00000000000E+00 -0.22551959506E+02  0.22551959506E+02  0.00000000000E+00 0.  1.
         23    2    1    2    0    0 -0.72368884794E+02  0.45351930934E+02  0.37183963653E+03  0.40150451081E+03  0.12508838385E+03 0.  0.
          5    1    3    3  502    0  0.64128382138E+01 -0.29927217497E+02  0.31486150346E+02  0.44109102288E+02  0.41800000000E+01 0.  1.
         -5    1    3    3    0  502 -0.78781723008E+02  0.75279148431E+02  0.34035348619E+03  0.35739540852E+03  0.41800000000E+01 0.  1.
        -11    1    1    2    0    0  0.20630756389E+02 -0.61248621530E+02  0.19483412599E+03  0.20527386195E+03  0.00000000000E+00 0.  1.
         11    1    1    2    0    0  0.51738128404E+02  0.15896690597E+02  0.29049472043E+03  0.29549402921E+03  0.00000000000E+00 0. -1.
</event>
<event>
 7    1  0.8653652E-006  0.1235307E+03  0.7561462E-02  0.1237384E+00
          1   -1    0    0  501    0  0.00000000000E+00  0.00000000000E+00  0.25804596921E+03  0.25804596921E+03  0.00000000000E+00 0. -1.
         -1   -1    0    0    0  501 -0.00000000000E+00 -0.00000000000E+00 -0.68558213284E+02  0.68558213284E+02  0.00000000000E+00 0.  1.
         23    2    1    2    0    0 -0.43470095885E+02  0.55852825638E+02  0.66220856208E+02  0.15824953266E+03  0.12509406630E+03 0.  0.
          5    1    3    3  502    0 -0.69529933331E+02  0.81208245532E+02  0.52352945133E+02  0.11911126746E+03  0.41800000000E+01 0.  1.
         -5    1    3    3    0  502  0.26059837446E+02 -0.25355419894E+02  0.13867911075E+02  0.39138265206E+02  0.41800000000E+01 0.  1.
        -11    1    1    2    0    0  0.63474078384E+02 -0.28481234432E+02  0.11340963968E+03  0.13304843372E+03  0.00000000000E+00 0. -1.
         11    1    1    2    0    0 -0.20003982499E+02 -0.27371591205E+02  0.98572600387E+01  0.35306216116E+02  0.00000000000E+00 0.  1.
</event>
<event>
 7    1  0.8653652E-006  0.8632056E+02  0.7561462E-02  0.1312015E+00
          1   -1    0    0  501    0  0.00000000000E+00  0.00000000000E+00  0.81213640620E+02  0.81213640620E+02  0.00000000000E+00 0. -1.
         -1   -1    0    0    0  501 -0.00000000000E+00 -0.00000000000E+00 -0.29902503077E+03  0.29902503077E+03  0.00000000000E+00 0.  1.
         23    2    1    2    0    0  0.46932962863E+02  0.39044321151E+02 -0.25868542581E+03  0.29375854051E+03  0.12509503819E+03 0.  0.
          5    1    3    3  502    0  0.40882405157E+02 -0.24302551791E+02 -0.30090637979E+02  0.56434953432E+02  0.41800000000E+01 0.  1.
         -5    1    3    3    0  502  0.60505577067E+01  0.63346872942E+02 -0.22859478784E+03  0.23732358708E+03  0.41800000000E+01 0.  1.
        -11    1    1    2    0    0 -0.24998302025E+02 -0.22749610989E+02 -0.39022339382E+01  0.34024804687E+02  0.00000000000E+00 0.  1.
         11    1    1    2    0    0 -0.21934660838E+02 -0.16294710163E+02  0.44776269606E+02  0.52455326185E+02  0.00000000000E+00 0. -1.
</event>
<event>
 7    1  0.8653652E-006  0.1232671E+03  0.7561462E-02  0.1237803E+00
         -4   -1    0    0    0  501 -0.00000000000E+00  0.00000000000E+00  0.39804670317E+03  0.39804670317E+03  0.00000000000E+00 0.  1.
          4   -1    0    0  501    0  0.00000000000E+00 -0.00000000000E+00 -0.39747477631E+02  0.39747477631E+02  0.00000000000E+00 0. -1.
         23    2    1    2    0    0 -0.57090110258E+02  0.22037729495E+02  0.21426543878E+03  0.25553686936E+03  0.12507786029E+03 0.  0.
          5    1    3    3  502    0 -0.54103655994E+02 -0.45692430503E+02  0.10000050816E+03  0.12260741344E+03  0.41800000000E+01 0. -1.
         -5    1    3    3    0  502 -0.29864542643E+01  0.67730159998E+02  0.11426493062E+03  0.13292945592E+03  0.41800000000E+01 0. -1.
        -11    1    1    2    0    0  0.14381754109E+02  0.34172224469E+02  0.28097168295E+02  0.46519099762E+02  0.00000000000E+00 0.  1.
         11    1    1    2    0    0  0.42708356149E+02 -0.56209953964E+02  0.11593661847E+03  0.13573821168E+03  0.00000000000E+00 0. -1.
</event>
<event>
 7    1  0.8653652E-006  0.1028511E+03  0.7561462E-02  0.1274412E+00
         -1   -1    0    0    0  501 -0.00000000000E+00  0.00000000000E+00  0.82278738388E+02  0.82278738388E+02  0.00000000000E+00 0.  1.
          1   -1    0    0  501    0  0.00000000000E+00 -0.00000000000E+00 -0.23733565667E+03  0.23733565667E+03  0.00000000000E+00 0. -1.
         23    2    1    2    0    0  0.54136922912E+02 -0.95926893045E+01 -0.68211861534E+01  0.13680392328E+03  0.12508380684E+03 0.  0.
          5    1    3    3  502    0  0.54821088807E+02 -0.44103737423E+02 -0.46196801991E+02  0.84274007540E+02  0.41800000000E+01 0. -1.
         -5    1    3    3    0  502 -0.68416589480E+00  0.34511048119E+02  0.39375615838E+02  0.52529915742E+02  0.41800000000E+01 0. -1.
        -11    1    1    2    0    0  0.10082115354E+01 -0.31600268653E+02 -0.20414606652E+02  0.37634420870E+02  0.00000000000E+00 0.  1.
         11    1    1    2    0    0 -0.55145134448E+02  0.41192957957E+02 -0.12782112547E+03  0.14517605090E+03  0.00000000000E+00 0. -1.
</event>
<event>
 7    1  0.8653652E-006  0.1773964E+03  0.7561462E-02  0.1170347E+00
         -1   -1    0    0    0  501 -0.00000000000E+00  0.00000000000E+00  0.15465978504E+03  0.15465978504E+03  0.00000000000E+00 0.  1.
          1   -1    0    0  501    0  0.00000000000E+00 -0.00000000000E+00 -0.25053549795E+03  0.25053549795E+03  0.00000000000E+00 0. -1.
         23    2    1    2    0    0 -0.12698178084E+03 -0.82672646504E+02  0.12219348871E+02  0.19686408516E+03  0.12508803458E+03 0.  0.
          5    1    3    3  502    0 -0.69030889375E+02 -0.98416373194E+02  0.44871258717E+02  0.12838204103E+03  0.41800000000E+01 0.  1.
         -5    1    3    3    0  502 -0.57950891465E+02  0.15743726691E+02 -0.32651909845E+02  0.68482044130E+02  0.41800000000E+01 0.  1.
        -11    1    1    2    0    0  0.13681602431E+03  0.88438491149E+02 -0.11027521619E+03  0.19672471764E+03  0.00000000000E+00 0.  1.
         11    1    1    2    0    0 -0.98342434737E+01 -0.57658446449E+01  0.21801544050E+01  0.11606480190E+02  0.00000000000E+00 0. -1.
</event>
<event>
 7    1  0.8653652E-006  0.1215983E+03  0.7561462E-02  0.1240483E+00
         -2   -1    0    0    0  501 -0.00000000000E+00  0.00000000000E+00  0.39641362752E+03  0.39641362752E+03  0.00000000000E+00 0.  1.
          2   -1    0    0  501    0  0.00000000000E+00 -0.00000000000E+00 -0.60551733518E+02  0.60551733518E+02  0.00000000000E+00 0. -1.
         23    2    1    2    0    0  0.24649482720E+02  0.48585456854E+02  0.31871552227E+03  0.34669168048E+03  0.12508954215E+03 0.  0.
          5    1    3    3  502    0 -0.29341625394E+02 -0.28282621356E+02  0.12121184800E+03  0.12794773209E+03  0.41800000000E+01 0. -1.
         -5    1    3    3    0  502  0.53991108114E+02  0.76868078210E+02  0.19750367427E+03  0.21874394838E+03  0.41800000000E+01 0. -1.
        -11    1    1    2    0    0  0.36009104437E+02 -0.17258552869E+02  0.12514234250E+02  0.41846377481E+02  0.00000000000E+00 0.  1.
         11    1    1    2    0    0 -0.60658587156E+02 -0.31326903985E+02  0.46321374766E+01  0.68427303079E+02  0.00000000000E+00 0. -1.
</event>
<event>
 7    1  0.8653652E-006  0.1396984E+03  0.7561462E-02  0.1213735E+00
          1   -1    0    0  501    0  0.00000000000E+00  0.00000000000E+00  0.45066130012E+03  0.45066130012E+03  0.00000000000E+00 0. -1.
         -1   -1    0    0    0  501 -0.00000000000E+00 -0.00000000000E+00 -0.55023336640E+02  0.55023336640E+02  0.00000000000E+00 0.  1.
         23    2    1    2    0    0  0.96590118935E+01 -0.88007432700E+02  0.10303309268E+03  0.18687637187E+03  0.12832909045E+03 0.  0.
          5    1    3    3  502    0 -0.40706030293E+02  0.12448446184E+02  0.36408375426E+02  0.56169270209E+02  0.41800000000E+01 0. -1.
         -5    1    3    3    0  502  0.50365042186E+02 -0.10045587888E+03  0.66624717251E+02  0.13070710166E+03  0.41800000000E+01 0.  1.
        -11    1    1    2    0    0 -0.30272704383E+02 -0.34063138158E+01  0.10135682563E+03  0.10583593769E+03  0.00000000000E+00 0.  1.
         11    1    1    2    0    0  0.20613692490E+02  0.91413746516E+02  0.19124804517E+03  0.21297232720E+03  0.00000000000E+00 0. -1.
</event>
<event>
 7    1  0.8653652E-006  0.6793917E+02  0.7561462E-02  0.1367245E+00
          3   -1    0    0  501    0  0.00000000000E+00  0.00000000000E+00  0.89967684095E+02  0.89967684095E+02  0.00000000000E+00 0. -1.
         -3   -1    0    0    0  501 -0.00000000000E+00 -0.00000000000E+00 -0.14463534372E+03  0.14463534372E+03  0.00000000000E+00 0.  1.
         23    2    1    2    0    0  0.58651468585E+01 -0.33070365358E+02 -0.47249268432E+02  0.13787253406E+03  0.12509313837E+03 0.  0.
          5    1    3    3  502    0 -0.94839547789E+01 -0.53008701948E+02  0.26264326644E+02  0.60059596523E+02  0.41800000000E+01 0.  1.
         -5    1    3    3    0  502  0.15349101637E+02  0.19938336591E+02 -0.73513595076E+02  0.77812937537E+02  0.41800000000E+01 0.  1.
        -11    1    1    2    0    0 -0.12241963432E+02 -0.81120794244E+01 -0.40782936069E+02  0.43346503616E+02  0.00000000000E+00 0.  1.
         11    1    1    2    0    0  0.63768165736E+01  0.41182444782E+02  0.33364544880E+02  0.53383990136E+02  0.00000000000E+00 0. -1.
</event>
<event>
 7    1  0.8653652E-006  0.1223186E+03  0.7561462E-02  0.1239320E+00
         -1   -1    0    0    0  501 -0.00000000000E+00  0.00000000000E+00  0.19615511183E+03  0.19615511183E+03  0.00000000000E+00 0.  1.
          1   -1    0    0  501    0  0.00000000000E+00 -0.00000000000E+00 -0.15094617778E+03  0.15094617778E+03  0.00000000000E+00 0. -1.
         23    2    1    2    0    0  0.40751558024E+02 -0.73374031829E+02  0.12859770354E+03  0.19806351480E+03  0.12508936210E+03 0.  0.
          5    1    3    3  502    0  0.43064153779E+02  0.41812351698E+01 -0.47518339893E+01  0.43727067069E+02  0.41800000000E+01 0.  1.
         -5    1    3    3    0  502 -0.23125957548E+01 -0.77555266999E+02  0.13334953753E+03  0.15433644773E+03  0.41800000000E+01 0.  1.
        -11    1    1    2    0    0  0.20437279686E+02  0.56368227023E+02 -0.42793746435E+02  0.73663859203E+02  0.00000000000E+00 0.  1.
         11    1    1    2    0    0 -0.61188837709E+02  0.17005804806E+02 -0.40595023052E+02  0.75373915607E+02  0.00000000000E+00 0. -1.
</event>
<event>
 7    1  0.8653652E-006  0.8819498E+02  0.7561462E-02  0.1307283E+00
         -3   -1    0    0    0  501 -0.00000000000E+00  0.00000000000E+00  0.21844565944E+03  0.21844565944E+03  0.00000000000E+00 0.  1.
          3   -1    0    0  501    0  0.00000000000E+00 -0.00000000000E+00 -0.72389244643E+02  0.72389244643E+02  0.00000000000E+00 0. -1.
         23    2    1    2    0    0  0.49131561569E+02 -0.22387206120E+02  0.12714923204E+03  0.18635056339E+03  0.12507800737E+03 0.  0.
          5    1    3    3  502    0  0.33979572709E+02  0.43015980282E+02  0.99391151489E+02  0.11358283020E+03  0.41800000000E+01 0.  1.
         -5    1    3    3    0  502  0.15151988860E+02 -0.65403186402E+02  0.27758080551E+02  0.72767733191E+02  0.41800000000E+01 0.  1.
        -11    1    1    2    0    0 -0.36851578287E+02  0.14797187622E+02  0.53715667908E+02  0.66800962288E+02  0.00000000000E+00 0.  1.
         11    1    1    2    0    0 -0.12279983281E+02  0.75900184982E+01 -0.34808485147E+02  0.37683378410E+02  0.00000000000E+00 0. -1.
</event>
<event>
 7    1  0.8653652E-006  0.1202362E+03  0.7561462E-02  0.1242708E+00
         -1   -1    0    0    0  501 -0.00000000000E+00  0.00000000000E+00  0.48092503363E+02  0.48092503363E+02  0.00000000000E+00 0.  1.
          1   -1    0    0  501    0  0.00000000000E+00 -0.00000000000E+00 -0.42341725192E+03  0.42341725192E+03  0.00000000000E+00 0. -1.
         23    2    1    2    0    0  0.66620964475E+02  0.22197724469E+02 -0.99662877586E+02  0.17294615049E+03  0.12266454223E+03 0.  0.
          5    1    3    3  502    0 -0.27926680576E+02 -0.14012127352E+01  0.62581950230E+01  0.28956869480E+02  0.41800000000E+01 0. -1.
         -5    1    3    3    0  502  0.94547645051E+02  0.23598937205E+02 -0.10592107261E+03  0.14398928101E+03  0.41800000000E+01 0.  1.
        -11    1    1    2    0    0 -0.55752739402E+02  0.28637859707E+02 -0.14830358358E+03  0.16100449641E+03  0.00000000000E+00 0. -1.
         11    1    1    2    0    0 -0.10868225074E+02 -0.50835584176E+02 -0.12735828739E+03  0.13755910839E+03  0.00000000000E+00 0.  1.
</event>
<event>
 7    1  0.8653652E-006  0.1717243E+03  0.7561462E-02  0.1176062E+00
          2   -1    0    0  501    0  0.00000000000E+00  0.00000000000E+00  0.28524868130E+03  0.28524868130E+03  0.00000000000E+00 0. -1.
         -2   -1    0    0    0  501 -0.00000000000E+00 -0.00000000000E+00 -0.16104574796E+03  0.16104574796E+03  0.00000000000E+00 0.  1.
         23    2    1    2    0    0  0.47049482041E+02 -0.15408756496E+03 -0.27729629405E+02  0.20581542921E+03  0.12503770278E+03 0.  0.
          5    1    3    3  502    0  0.68126069062E+02 -0.13165180405E+03  0.19204679876E+02  0.14953143791E+03  0.41800000000E+01 0.  1.
         -5    1    3    3    0  502 -0.21076587021E+02 -0.22435760911E+02 -0.46934309281E+02  0.56283991292E+02  0.41800000000E+01 0.  1.
        -11    1    1    2    0    0  0.12059879911E+01  0.42480666546E+02 -0.40646164003E+01  0.42691715165E+02  0.00000000000E+00 0.  1.
         11    1    1    2    0    0 -0.48255470032E+02  0.11160689842E+03  0.15599717915E+03  0.19778728489E+03  0.00000000000E+00 0. -1.
</event>
<event>
 6    1  0.8653652E-006  0.1244725E+03  0.7561462E-02  0.1235896E+00
          1   -1    0    0  501    0  0.00000000000E+00  0.00000000000E+00  0.18087907377E+03  0.18087907377E+03  0.00000000000E+00 0. -1.
         -1   -1    0    0    0  501 -0.00000000000E+00 -0.00000000000E+00 -0.97619402153E+02  0.97619402153E+02  0.00000000000E+00 0.  1.
          5    1    1    2  502    0  0.11605555953E+02  0.41814600581E+02  0.55336949869E+01  0.43945920527E+02  0.41800000000E+01 0. -1.
         -5    1    1    2    0  502 -0.34230394132E+02 -0.97930633952E+02  0.37592481321E+01  0.10389289338E+03  0.41800000000E+01 0.  1.
        -11    1    1    2    0    0 -0.31276006902E+01 -0.20478562348E+02 -0.57152675780E+00  0.20723900327E+02  0.00000000000E+00 0.  1.
         11    1    1    2    0    0  0.25752438869E+02  0.76594595719E+02  0.74538255254E+02  0.10993576169E+03  0.00000000000E+00 0. -1.
</event>
<event>
 7    1  0.8653652E-006  0.9194201E+02  0.7561462E-02  0.1298216E+00
          1   -1    0    0  501    0  0.00000000000E+00  0.00000000000E+00  0.47754014778E+03  0.47754014778E+03  0.00000000000E+00 0. -1.
         -1   -1    0    0    0  501 -0.00000000000E+00 -0.00000000000E+00 -0.22874825397E+02  0.22874825397E+02  0.00000000000E+00 0.  1.
         23    2    1    2    0    0 -0.79130914456E+01 -0.89626851453E+01  0.25012494445E+03  0.27991701853E+03  0.12509237662E+03 0.  0.
          5    1    3    3  502    0  0.28916020689E+02  0.41262295958E+02  0.17544771277E+03  0.18258720008E+03  0.41800000000E+01 0.  1.
         -5    1    3    3    0  502 -0.36829112135E+02 -0.50224981104E+02  0.74677231683E+02  0.97329818449E+02  0.41800000000E+01 0.  1.
        -11    1    1    2    0    0 -0.10194411865E+02 -0.27970771809E+02  0.14566965283E+03  0.14868065734E+03  0.00000000000E+00 0.  1.
         11    1    1    2    0    0  0.18107503311E+02  0.36933456954E+02  0.58870725106E+02  0.71817297312E+02  0.00000000000E+00 0. -1.
</event>
<event>
 7    1  0.8653652E-006  0.9859506E+02  0.7561462E-02  0.1283278E+00
         -1   -1    0    0    0  501 -0.00000000000E+00  0.00000000000E+00  0.25721842960E+03  0.25721842960E+03  0.00000000000E+00 0.  1.
          1   -1    0    0  501    0  0.00000000000E+00 -0.00000000000E+00 -0.52125593909E+02  0.52125593909E+02  0.00000000000E+00 0. -1.
         23    2    1    2    0    0 -0.19477869916E+02 -0.27757424007E+02  0.92407597160E+02  0.15916288173E+03  0.12507516501E+03 0.  0.
          5    1    3    3  502    0 -0.22321204228E+02  0.43272394651E+02  0.68301175949E+02  0.83983684922E+02  0.41800000000E+01 0. -1.
         -5    1    3    3    0  502  0.28433343121E+01 -0.71029818658E+02  0.24106421211E+02  0.75179196805E+02  0.41800000000E+01 0. -1.
        -11    1    1    2    0    0  0.92792335568E+01 -0.23281942443E+02 -0.10681456594E+01  0.25085732090E+02  0.00000000000E+00 0. -1.
         11    1    1    2    0    0  0.10198636359E+02  0.51039366450E+02  0.11375338419E+03  0.12509540969E+03  0.00000000000E+00 0.  1.
</event>
<event>
 7    1  0.8653652E-006  0.1350334E+03  0.7561462E-02  0.1220173E+00
         -1   -1    0    0    0  501 -0.00000000000E+00  0.00000000000E+00  0.18885965639E+02  0.18885965639E+02  0.00000000000E+00 0.  1.
          1   -1    0    0  501    0  0.00000000000E+00 -0.00000000000E+00 -0.10046554761E+04  0.10046554761E+04  0.00000000000E+00 0. -1.
         23    2    1    2    0    0  0.24049875558E+01 -0.83827443364E+02 -0.57207212434E+03  0.59156306163E+03  0.12509003242E+03 0.  0.
          5    1    3    3  502    0  0.51803747453E+00 -0.11494614141E+03 -0.38323957583E+03  0.40012864015E+03  0.41800000000E+01 0.  1.
         -5    1    3    3    0  502  0.18869500813E+01  0.31118698048E+02 -0.18883254851E+03  0.19143442147E+03  0.41800000000E+01 0.  1.
        -11    1    1    2    0    0 -0.39709926683E+01  0.10363914591E+03 -0.36296577559E+03  0.37749304046E+03  0.00000000000E+00 0. -1.
         11    1    1    2    0    0  0.15660051125E+01 -0.19811702548E+02 -0.50731610579E+02  0.54485339697E+02  0.00000000000E+00 0.  1.
</event>
<event>
 7    1  0.8653652E-006  0.9954976E+02  0.7561462E-02  0.1281246E+00
         -1   -1    0    0    0  501 -0.00000000000E+00  0.00000000000E+00  0.49311009930E+02  0.49311009930E+02  0.00000000000E+00 0.  1.
          1   -1    0    0  501    0  0.00000000000E+00 -0.00000000000E+00 -0.45709165485E+03  0.45709165485E+03  0.00000000000E+00 0. -1.
         23    2    1    2    0    0  0.76306899645E+02 -0.44242747312E+02 -0.12970499551E+03  0.20063189095E+03  0.12509838602E+03 0.  0.
          5    1    3    3  502    0  0.10938716103E+02 -0.28707935244E+02  0.19718892228E+02  0.36743818074E+02  0.41800000000E+01 0.  1.
         -5    1    3    3    0  502  0.65368183542E+02 -0.15534812068E+02 -0.14942388774E+03  0.16388807288E+03  0.41800000000E+01 0.  1.
        -11    1    1    2    0    0 -0.25274528099E+02 -0.91857749301E+01 -0.11679865803E+02  0.29318927281E+02  0.00000000000E+00 0.  1.
         11    1    1    2    0    0 -0.51032371545E+02  0.53428522242E+02 -0.26639578361E+03  0.27645184655E+03  0.00000000000E+00 0. -1.
</event>
<event>
 7    1  0.8653652E-006  0.1159260E+03  0.7561462E-02  0.1249973E+00
         -1   -1    0    0    0  501 -0.00000000000E+00  0.00000000000E+00  0.34918369782E+03  0.34918369782E+03  0.00000000000E+00 0.  1.
          1   -1    0    0  501    0  0.00000000000E+00 -0.00000000000E+00 -0.68748028933E+02  0.68748028933E+02  0.00000000000E+00 0. -1.
         23    2    1    2    0    0  0.83327518235E+02 -0.67662083832E+02  0.13222361310E+03  0.21131294587E+03  0.12509374224E+03 0.  0.
          5    1    3    3  502    0  0.59340723225E+02 -0.71759965524E+02  0.18614149101E+02  0.95051423091E+02  0.41800000000E+01 0. -1.
         -5    1    3    3    0  502  0.23986795010E+02  0.40978816921E+01  0.11360946400E+03  0.11626152278E+03  0.41800000000E+01 0. -1.
        -11    1    1    2    0    0 -0.31182199012E+01  0.20845924212E+02  0.99575238379E+02  0.10178164839E+03  0.00000000000E+00 0.  1.
         11    1    1    2    0    0 -0.80209298334E+02  0.46816159620E+02  0.48636817410E+02  0.10483713249E+03  0.00000000000E+00 0. -1.
</event>
<event>
 6    1  0.8653652E-006  0.1108333E+03  0.7561462E-02  0.1259035E+00
         -2   -1    0    0    0  501 -0.00000000000E+00  0.00000000000E+00  0.13778037214E+03  0.13778037214E+03  0.00000000000E+00 0.  1.
          2   -1    0    0  501    0  0.00000000000E+00 -0.00000000000E+00 -0.21569010410E+03  0.21569010410E+03  0.00000000000E+00 0. -1.
          5    1    1    2  502    0 -0.69832990265E+02  0.44745754438E+02  0.96877103568E+02  0.12759888191E+03  0.41800000000E+01 0. -1.
         -5    1    1    2    0  502  0.30033525574E+02  0.38194647348E+01 -0.24103128694E+02  0.38923440009E+02  0.41800000000E+01 0.  1.
        -11    1    1    2    0    0  0.54800176762E+02  0.24799435842E+01 -0.96554999824E+02  0.11104988737E+03  0.00000000000E+00 0.  1.
         11    1    1    2    0    0 -0.15000712071E+02 -0.51045162757E+02 -0.54128707008E+02  0.75898266949E+02  0.00000000000E+00 0. -1.
</event>
<event>
 7    1  0.8653652E-006  0.9061519E+02  0.7561462E-02  0.1301369E+00
         -1   -1    0    0    0  501 -0.00000000000E+00  0.00000000000E+00  0.48228205160E+02  0.48228205160E+02  0.00000000000E+00 0.  1.
          1   -1    0    0  501    0  0.00000000000E+00 -0.00000000000E+00 -0.31452964733E+03  0.31452964733E+03  0.00000000000E+00 0. -1.
         23    2    1    2    0    0  0.12260624821E+02 -0.71224326630E+01 -0.65525580111E+02  0.14192109547E+03  0.12508774409E+03 0.  0.
          5    1    3    3  502    0  0.48146163763E+02  0.19113226103E+02  0.11187790955E+02  0.53160206580E+02  0.41800000000E+01 0.  1.
         -5    1    3    3    0  502 -0.35885538942E+02 -0.26235658766E+02 -0.76713371065E+02  0.88760888888E+02  0.41800000000E+01 0.  1.
        -11    1    1    2    0    0 -0.37170772581E+02 -0.24378188550E+02 -0.14792074328E+03  0.15445552338E+03  0.00000000000E+00 0. -1.
         11    1    1    2    0    0  0.24910147760E+02  0.31500621213E+02 -0.52855118782E+02  0.66381233641E+02  0.00000000000E+00 0.  1.
</event>
<event>
 6    1  0.8653652E-006  0.9579891E+02  0.7561462E-02  0.1289387E+00
          2   -1    0    0  501    0  0.00000000000E+00  0.00000000000E+00  0.46128329880E+03  0.46128329880E+03  0.00000000000E+00 0. -1.
         -2   -1    0    0    0  501 -0.00000000000E+00 -0.00000000000E+00 -0.40629962935E+02  0.40629962935E+02  0.00000000000E+00 0.  1.
          5    1    1    2  502    0  0.13540981815E+02 -0.14530656937E+02  0.17652463049E+03  0.17768769161E+03  0.41800000000E+01 0. -1.
         -5    1    1    2    0  502  0.57383169877E+02  0.13737662083E+02  0.63011862776E+01  0.59487216216E+02  0.41800000000E+01 0.  1.
        -11    1    1    2    0    0  0.18692808138E+02  0.11417131507E+02  0.23181024292E+02  0.31892504686E+02  0.00000000000E+00 0.  1.
         11    1    1    2    0    0 -0.89616959830E+02 -0.10624136654E+02  0.21464649480E+03  0.23284584922E+03  0.00000000000E+00 0. -1.
</event>
<event>
 7    1  0.8653652E-006  0.2902344E+03  0.7561462E-02  0.1090227E+00
         -2   -1    0    0    0  501 -0.00000000000E+00  0.00000000000E+00  0.83886383287E+02  0.83886383287E+02  0.00000000000E+00 0.  1.
          2   -1    0    0  501    0  0.00000000000E+00 -0.00000000000E+00 -0.13322106829E+04  0.13322106829E+04  0.00000000000E+00 0. -1.
         23    2    1    2    0    0  0.79933282847E+02  0.27684839403E+03 -0.35963116295E+03  0.47751099677E+03  0.12509122947E+03 0.  0.
          5    1    3    3  502    0  0.78460253253E+02  0.23419467907E+03 -0.21776696072E+03  0.32930697021E+03  0.41800000000E+01 0. -1.
         -5    1    3    3    0  502  0.14730295936E+01  0.42653714956E+02 -0.14186420223E+03  0.14820402656E+03  0.41800000000E+01 0. -1.
        -11    1    1    2    0    0 -0.61897128783E+02 -0.14748370425E+03 -0.35886595970E+03  0.39289626443E+03  0.00000000000E+00 0.  1.
         11    1    1    2    0    0 -0.18036154063E+02 -0.12936468978E+03 -0.52982717698E+03  0.54568980500E+03  0.00000000000E+00 0. -1.
</event>
<event>
 7    1  0.8653652E-006  0.1208809E+03  0.7561462E-02  0.1241651E+00
         -1   -1    0    0    0  501 -0.00000000000E+00  0.00000000000E+00  0.34003848327E+03  0.34003848327E+03  0.00000000000E+00 0.  1.
          1   -1    0    0  501    0  0.00000000000E+00 -0.00000000000E+00 -0.57439773607E+02  0.57439773607E+02  0.00000000000E+00 0. -1.
         23    2    1    2    0    0 -0.61553233298E+02 -0.50213688785E+02  0.19900735189E+03  0.24811772668E+03  0.12509302585E+03 0.  0.
          5    1    3    3  502    0  0.11087502249E+02 -0.45618832928E+02  0.13852180809E+02  0.49126020976E+02  0.41800000000E+01 0. -1.
         -5    1    3    3    0  502 -0.72640735547E+02 -0.45948558572E+01  0.18515517108E+03  0.19899170570E+03  0.41800000000E+01 0. -1.
        -11    1    1    2    0    0  0.39080385202E+01 -0.25928635197E+02  0.75608218792E+01  0.27289795084E+02  0.00000000000E+00 0. -1.
         11    1    1    2    0    0  0.57645194778E+02  0.76142323982E+02  0.76030535893E+02  0.12207073511E+03  0.00000000000E+00 0.  1.
</event>
<event>
 7    1  0.8653652E-006  0.1342470E+03  0.7561462E-02  0.1221287E+00
         -1   -1    0    0    0  501 -0.00000000000E+00  0.00000000000E+00  0.65018659964E+03  0.65018659964E+03  0.00000000000E+00 0.  1.
          1   -1    0    0  501    0  0.00000000000E+00 -0.00000000000E+00 -0.37389807727E+02  0.37389807727E+02  0.00000000000E+00 0. -1.
         23    2    1    2    0    0  0.81650616161E+02  0.35598908683E+02  0.47217656522E+03  0.49651984353E+03  0.12508853206E+03 0.  0.
          5    1    3    3  502    0  0.29989876425E+02  0.70543325330E+02  0.15185775495E+03  0.17015875992E+03  0.41800000000E+01 0.  1.
         -5    1    3    3    0  502  0.51660739735E+02 -0.34944416647E+02  0.32031881027E+03  0.32636108361E+03  0.41800000000E+01 0.  1.
        -11    1    1    2    0    0 -0.35177323082E+02  0.31752491447E+02  0.55596383029E+02  0.73052190783E+02  0.00000000000E+00 0.  1.
         11    1    1    2    0    0 -0.46473293079E+02 -0.67351400130E+02  0.85023843663E+02  0.11800437306E+03  0.00000000000E+00 0. -1.
</event>
<event>
 7    1  0.8653652E-006  0.3560847E+03  0.7561462E-02  0.1060145E+00
         -4   -1    0    0    0  501 -0.00000000000E+00  0.00000000000E+00  0.93338427698E+03  0.93338427698E+03  0.00000000000E+00 0.  1.
          4   -1    0    0  501    0  0.00000000000E+00 -0.00000000000E+00 -0.15408881064E+03  0.15408881064E+03  0.00000000000E+00 0. -1.
         23    2    1    2    0    0 -0.33912993343E+03 -0.74962650501E+02  0.52542599098E+03  0.64178840109E+03  0.12325327202E+03 0.  0.
          5    1    3    3  502    0 -0.16285516665E+01  0.69140364774E+00  0.68751485374E+02  0.68901156454E+02  0.41800000000E+01 0. -1.
         -5    1    3    3    0  502 -0.33750138177E+03 -0.75654054149E+02  0.45667450560E+03  0.57288724464E+03  0.41800000000E+01 0.  1.
        -11    1    1    2    0    0  0.95039556699E+02  0.69211600384E+02  0.11659880015E+03  0.16558394597E+03  0.00000000000E+00 0.  1.
         11    1    1    2    0    0  0.24409037673E+03  0.57510501169E+01  0.13727067521E+03  0.28010074056E+03  0.00000000000E+00 0. -1.
</event>
<event>
 7    1  0.8653652E-006  0.1343876E+03  0.7561462E-02  0.1221087E+00
          1   -1    0    0  501    0  0.00000000000E+00  0.00000000000E+00  0.10223005746E+03  0.10223005746E+03  0.00000000000E+00 0. -1.
         -1   -1    0    0    0  501 -0.00000000000E+00 -0.00000000000E+00 -0.19627364202E+03  0.19627364202E+03  0.00000000000E+00 0.  1.
         23    2    1    2    0    0 -0.68638467575E+02 -0.81882460998E+02 -0.52143081071E+02  0.17257783904E+03  0.12509289737E+03 0.  0.
          5    1    3    3  502    0 -0.10092306143E+03 -0.40095644909E+02 -0.49831628497E+02  0.11955663373E+03  0.41800000000E+01 0. -1.
         -5    1    3    3    0  502  0.32284593859E+02 -0.41786816089E+02 -0.23114525739E+01  0.53021205310E+02  0.41800000000E+01 0. -1.
        -11    1    1    2    0    0  0.46245337104E+02  0.60643220813E+02 -0.30729620027E+01  0.76326106477E+02  0.00000000000E+00 0. -1.
         11    1    1    2    0    0  0.22393130471E+02  0.21239240185E+02 -0.38827541488E+02  0.49599753970E+02  0.00000000000E+00 0.  1.
</event>
<event>
 7    1  0.8653652E-006  0.1083465E+03  0.7561462E-02  0.1263663E+00
         -1   -1    0    0    0  501 -0.00000000000E+00  0.00000000000E+00  0.91308551820E+02  0.91308551820E+02  0.00000000000E+00 0.  1.
          1   -1    0    0  501    0  0.00000000000E+00 -0.00000000000E+00 -0.17748666046E+03  0.17748666046E+03  0.00000000000E+00 0. -1.
         23    2    1    2    0    0  0.59273718412E+02  0.32271299925E+02 -0.32344894620E+02  0.14576938666E+03  0.12509081256E+03 0.  0.
          5    1    3    3  502    0  0.45041300952E+02  0.79595654755E+02 -0.29115888783E+02  0.96069737311E+02  0.41800000000E+01 0. -1.
         -5    1    3    3    0  502  0.14232417460E+02 -0.47324354831E+02 -0.32290058371E+01  0.49699649351E+02  0.41800000000E+01 0. -1.
        -11    1    1    2    0    0 -0.46688938674E+02 -0.68601950325E+01  0.14232280083E+02  0.49289725772E+02  0.00000000000E+00 0.  1.
         11    1    1    2    0    0 -0.12584779739E+02 -0.25411104892E+02 -0.68065494107E+02  0.73736099849E+02  0.00000000000E+00 0. -1.
</event>
<event>
 7    1  0.8653652E-006  0.8901028E+02  0.7561462E-02  0.1305266E+00
          2   -1    0    0  501    0  0.00000000000E+00  0.00000000000E+00  0.83725559680E+03  0.83725559680E+03  0.00000000000E+00 0. -1.
         -2   -1    0    0    0  501 -0.00000000000E+00 -0.00000000000E+00 -0.16421913815E+02  0.16421913815E+02  0.00000000000E+00 0.  1.
         23    2    1    2    0    0  0.40529036634E+02 -0.17084543411E+02  0.41527936919E+03  0.43593465284E+03  0.12509029794E+03 0.  0.
          5    1    3    3  502    0  0.60076817108E+01 -0.38425177456E+02  0.37996837496E+03  0.38197647162E+03  0.41800000000E+01 0.  1.
         -5    1    3    3    0  502  0.34521354923E+02  0.21340634045E+02  0.35310994236E+02  0.53958181225E+02  0.41800000000E+01 0.  1.
        -11    1    1    2    0    0 -0.42619196303E+02 -0.29270579122E+02  0.25545750015E+03  0.26063709843E+03  0.00000000000E+00 0. -1.
         11    1    1    2    0    0  0.20901596689E+01  0.46355122533E+02  0.15009681364E+03  0.15710575934E+03  0.00000000000E+00 0.  1.
</event>
<event>
 7    1  0.8653652E-006  0.9853154E+02  0.7561462E-02  0.1283415E+00
         -1   -1    0    0    0  501 -0.00000000000E+00  0.00000000000E+00  0.36462025973E+02  0.36462025973E+02  0.00000000000E+00 0.  1.
          1   -1    0    0  501    0  0.00000000000E+00 -0.00000000000E+00 -0.44200510145E+03  0.44200510145E+03  0.00000000000E+00 0. -1.
         23    2    1    2    0    0  0.49699618537E+02  0.19409573726E+02 -0.15399415705E+03  0.20544798718E+03  0.12509153207E+03 0.  0.
          5    1    3    3  502    0  0.21755368472E+02 -0.32510785172E+02  0.12191097091E+01  0.39359952215E+02  0.41800000000E+01 0.  1.
         -5    1    3    3    0  502  0.27944250065E+02  0.51920358898E+02 -0.15521326676E+03  0.16608803496E+03  0.41800000000E+01 0.  1.
        -11    1    1    2    0    0  0.13344221671E+02 -0.31687834291E+02 -0.44491708996E+02  0.56228989529E+02  0.00000000000E+00 0.  1.
         11    1    1    2    0    0 -0.63043840208E+02  0.12278260565E+02 -0.20705720943E+03  0.21679015071E+03  0.00000000000E+00 0. -1.
</event>
<event>
 7    1  0.8653652E-006  0.1018501E+03  0.7561462E-02  0.1276453E+00
          1   -1    0    0  501    0  0.00000000000E+00  0.00000000000E+00  0.12099131969E+03  0.12099131969E+03  0.00000000000E+00 0. -1.
         -1   -1    0    0    0  501 -0.00000000000E+00 -0.00000000000E+00 -0.11614574627E+03  0.11614574627E+03  0.00000000000E+00 0.  1.
         23    2    1    2    0    0  0.29928933153E+02 -0.21511640559E+02 -0.28818458200E+02  0.13355385082E+03  0.12509051049E+03 0.  0.
          5    1    3    3  502    0  0.66728147722E+02 -0.18250247078E+02 -0.54668381779E+02  0.88271295352E+02  0.41800000000E+01 0. -1.
         -5    1    3    3    0  502 -0.36799214568E+02 -0.32613934813E+01  0.25849923578E+02  0.45282555463E+02  0.41800000000E+01 0. -1.
        -11    1    1    2    0    0 -0.52856519983E+02 -0.14242764754E+02  0.25246098426E+02  0.60282945667E+02  0.00000000000E+00 0. -1.
         11    1    1    2    0    0  0.22927586829E+02  0.35754405313E+02  0.84179331923E+01  0.43300269472E+02  0.00000000000E+00 0.  1.
</event>
<event>
 7    1  0.8653652E-006  0.1616936E+03  0.7561462E-02  0.1186798E+00
          2   -1    0    0  501    0  0.00000000000E+00  0.00000000000E+00  0.11737141802E+04  0.11737141802E+04  0.00000000000E+00 0. -1.
         -2   -1    0    0    0  501 -0.00000000000E+00 -0.00000000000E+00 -0.28719853143E+02  0.28719853143E+02  0.00000000000E+00 0.  1.
         23    2    1    2    0    0  0.22632457853E+02  0.14634591657E+03  0.58968212437E+03  0.62072606889E+03  0.12508592789E+03 0.  0.
          5    1    3    3  502    0  0.31983730267E+02  0.10186784138E+03  0.18628228411E+03  0.21475236409E+03  0.41800000000E+01 0. -1.
         -5    1    3    3    0  502 -0.93512724139E+01  0.44478075183E+02  0.40339984025E+03  0.40597370479E+03  0.41800000000E+01 0. -1.
        -11    1    1    2    0    0 -0.52213152525E+02 -0.59572665337E+02  0.21034605528E+03  0.22476783294E+03  0.00000000000E+00 0.  1.
         11    1    1    2    0    0  0.29580694671E+02 -0.86773251229E+02  0.34496614736E+03  0.35694013147E+03  0.00000000000E+00 0. -1.
</event>
<event>
 7    1  0.8653652E-006  0.1330389E+03  0.7561462E-02  0.1223015E+00
         -1   -1    0    0    0  501 -0.00000000000E+00  0.00000000000E+00  0.19093384101E+03  0.19093384101E+03  0.00000000000E+00 0.  1.
          1   -1    0    0  501    0  0.00000000000E+00 -0.00000000000E+00 -0.13891134454E+03  0.13891134454E+03  0.00000000000E+00 0. -1.
         23    2    1    2    0    0  0.89071551139E+02 -0.78899301355E+02  0.50559173207E+02  0.17989387985E+03  0.12508691792E+03 0.  0.
          5    1    3    3  502    0  0.55171469927E+02 -0.81046811438E+02  0.86103103371E+02  0.13055149769E+03  0.41800000000E+01 0.  1.
         -5    1    3    3    0  502  0.33900081212E+02  0.21475100831E+01 -0.35543930165E+02  0.49342382161E+02  0.41800000000E+01 0.  1.
        -11    1    1    2    0    0 -0.53229544189E+02  0.81982133860E+02  0.31908475804E+02  0.10282317577E+03  0.00000000000E+00 0.  1.
         11    1    1    2    0    0 -0.35842006949E+02 -0.30828325047E+01 -0.30445152533E+02  0.47128129935E+02  0.00000000000E+00 0. -1.
</event>
<event>
 7    1  0.8653652E-006  0.1337529E+03  0.7561462E-02  0.1221991E+00
          3   -1    0    0  501    0  0.00000000000E+00  0.00000000000E+00  0.34670606934E+03  0.34670606934E+03  0.00000000000E+00 0. -1.
         -3   -1    0    0    0  501 -0.00000000000E+00 -0.00000000000E+00 -0.99548290168E+02  0.99548290168E+02  0.00000000000E+00 0.  1.
         23    2    1    2    0    0 -0.33183362468E+02  0.12455295745E+03  0.38197539330E+02  0.18363517344E+03  0.12509296606E+03 0.  0.
          5    1    3    3  502    0  0.19602335314E+01  0.19034092799E+01 -0.35758609044E+02  0.36105622875E+02  0.41800000000E+01 0.  1.
         -5    1    3    3    0  502 -0.35143596000E+02  0.12264954817E+03  0.73956148375E+02  0.14752955056E+03  0.41800000000E+01 0.  1.
        -11    1    1    2    0    0  0.21746973959E+02 -0.19575476218E+02  0.87496353208E+00  0.29272780987E+02  0.00000000000E+00 0.  1.
         11    1    1    2    0    0  0.11436388509E+02 -0.10497748123E+03  0.20808527630E+03  0.23334640508E+03  0.00000000000E+00 0. -1.
</event>
<event>
 7    1  0.8653652E-006  0.1349281E+03  0.7561462E-02  0.1220321E+00
         -1   -1    0    0    0  501 -0.00000000000E+00  0.00000000000E+00  0.33915926639E+03  0.33915926639E+03  0.00000000000E+00 0.  1.
          1   -1    0    0  501    0  0.00000000000E+00 -0.00000000000E+00 -0.62887503544E+02  0.62887503544E+02  0.00000000000E+00 0. -1.
         23    2    1    2    0    0 -0.75393637022E+02 -0.58725768257E+02  0.17098071960E+03  0.23241149155E+03  0.12509108110E+03 0.  0.
          5    1    3    3  502    0 -0.75690487943E+02  0.64943418960E+01  0.14162222922E+03  0.16076552693E+03  0.41800000000E+01 0. -1.
         -5    1    3    3    0  502  0.29685092111E+00 -0.65220110153E+02  0.29358490378E+02  0.71645964618E+02  0.41800000000E+01 0. -1.
        -11    1    1    2    0    0  0.79845641410E+02  0.11133618074E+02  0.86584289970E+02  0.11830521194E+03  0.00000000000E+00 0.  1.
         11    1    1    2    0    0 -0.44520043881E+01  0.47592150183E+02  0.18706753280E+02  0.51330066437E+02  0.00000000000E+00 0. -1.
</event>
<event>
 6    1  0.8653652E-006  0.9531930E+02  0.7561462E-02  0.1290459E+00
         -4   -1    0    0    0  501 -0.00000000000E+00  0.00000000000E+00  0.25569604158E+02  0.25569604158E+02  0.00000000000E+00 0.  1.
          4   -1    0    0  501    0  0.00000000000E+00 -0.00000000000E+00 -0.66805185833E+03  0.66805185833E+03  0.00000000000E+00 0. -1.
          5    1    1    2  502    0  0.27557883710E+02  0.65150086354E+02 -0.43279793801E+03  0.43856071216E+03  0.41800000000E+01 0. -1.
         -5    1    1    2    0  502  0.10720427571E+01 -0.13215834327E+02  0.55260011993E+01  0.14960502728E+02  0.41800000000E+01 0.  1.
        -11    1    1    2    0    0 -0.33740815596E+02 -0.75004553580E+02 -0.15607441557E+03  0.17641810817E+03  0.00000000000E+00 0.  1.
         11    1    1    2    0    0  0.51108891289E+01  0.23070301553E+02 -0.59135901793E+02  0.63682139429E+02  0.00000000000E+00 0. -1.
</event>
<event>
 7    1  0.8653652E-006  0.9937031E+02  0.7561462E-02  0.1281626E+00
         -2   -1    0    0    0  501 -0.00000000000E+00  0.00000000000E+00  0.10383792354E+03  0.10383792354E+03  0.00000000000E+00 0.  1.
          2   -1    0    0  501    0  0.00000000000E+00 -0.00000000000E+00 -0.29661232522E+03  0.29661232522E+03  0.00000000000E+00 0. -1.
         23    2    1    2    0    0  0.58732455598E+01  0.63668272700E+02  0.29947795302E+02  0.14364035418E+03  0.12509011529E+03 0.  0.
          5    1    3    3  502    0 -0.12372446440E+02  0.30209577493E+02  0.76531881566E+02  0.83308446746E+02  0.41800000000E+01 0. -1.
         -5    1    3    3    0  502  0.18245692000E+02  0.33458695207E+02 -0.46584086264E+02  0.60331907433E+02  0.41800000000E+01 0. -1.
        -11    1    1    2    0    0  0.28107080718E+02 -0.83529278361E+02 -0.14480024613E+03  0.16951182734E+03  0.00000000000E+00 0.  1.
         11    1    1    2    0    0 -0.33980326278E+02  0.19861005661E+02 -0.77921950856E+02  0.87298067247E+02  0.00000000000E+00 0. -1.
</event>
<event>
 7    1  0.8653652E-006  0.1397252E+03  0.7561462E-02  0.1213699E+00
          2   -1    0    0  501    0  0.00000000000E+00  0.00000000000E+00  0.38009994770E+03  0.38009994770E+03  0.00000000000E+00 0. -1.
         -2   -1    0    0    0  501 -0.00000000000E+00 -0.00000000000E+00 -0.54828464264E+02  0.54828464264E+02  0.00000000000E+00 0.  1.
         23    2    1    2    0    0  0.36252124317E+02  0.47541565844E+02  0.14745855515E+03  0.20240037898E+03  0.12508985140E+03 0.  0.
          5    1    3    3  502    0  0.44025222724E+02  0.82715657235E+02  0.70535675107E+02  0.11735780353E+03  0.41800000000E+01 0.  1.
         -5    1    3    3    0  502 -0.77730984073E+01 -0.35174091391E+02  0.76922880043E+02  0.85042575444E+02  0.41800000000E+01 0.  1.
        -11    1    1    2    0    0 -0.56972623525E+02  0.33262695909E+02  0.69653699383E+02  0.95937086720E+02  0.00000000000E+00 0. -1.
         11    1    1    2    0    0  0.20720499208E+02 -0.80804261753E+02  0.10815922890E+03  0.13659094626E+03  0.00000000000E+00 0.  1.
</event>
<event>
 7    1  0.8653652E-006  0.1291736E+03  0.7561462E-02  0.1228687E+00
         -2   -1    0    0    0  501 -0.00000000000E+00  0.00000000000E+00  0.88299786167E+02  0.88299786167E+02  0.00000000000E+00 0. -1.
          2   -1    0    0  501    0  0.00000000000E+00 -0.00000000000E+00 -0.25868750304E+03  0.25868750304E+03  0.00000000000E+00 0.  1.
         23    2    1    2    0    0  0.64566173058E+02  0.78979010368E+02 -0.11784940270E+03  0.19985872664E+03  0.12509418098E+03 0.  0.
          5    1    3    3  502    0  0.73721791667E+02  0.30608636622E+02 -0.91461627621E+01  0.80454433661E+02  0.41800000000E+01 0.  1.
         -5    1    3    3    0  502 -0.91556186093E+01  0.48370373746E+02 -0.10870323994E+03  0.11940429298E+03  0.41800000000E+01 0.  1.
        -11    1    1    2    0    0 -0.61506819356E+02 -0.12883380871E+02 -0.32573924873E+00  0.62842473185E+02  0.00000000000E+00 0. -1.
         11    1    1    2    0    0 -0.30593537013E+01 -0.66095629497E+02 -0.52212574929E+02  0.84286089388E+02  0.00000000000E+00 0.  1.
</event>
<event>
 7    1  0.8653652E-006  0.1507351E+03  0.7561462E-02  0.1199573E+00
          2   -1    0    0  501    0  0.00000000000E+00  0.00000000000E+00  0.37886207640E+03  0.37886207640E+03  0.00000000000E+00 0. -1.
         -2   -1    0    0    0  501 -0.00000000000E+00 -0.00000000000E+00 -0.70191008670E+02  0.70191008670E+02  0.00000000000E+00 0.  1.
         23    2    1    2    0    0  0.96767124948E+02  0.65506346411E+02  0.12606766582E+03  0.21259369332E+03  0.12509222272E+03 0.  0.
          5    1    3    3  502    0  0.52118152108E+00 -0.25423961512E+02 -0.49872163757E+01  0.26248698565E+02  0.41800000000E+01 0.  1.
         -5    1    3    3    0  502  0.96245943427E+02  0.90930307923E+02  0.13105488219E+03  0.18634499476E+03  0.41800000000E+01 0.  1.
        -11    1    1    2    0    0  0.37030540777E+01 -0.39193625599E+02  0.21712406000E+02  0.44958664031E+02  0.00000000000E+00 0.  1.
         11    1    1    2    0    0 -0.10047017903E+03 -0.26312720812E+02  0.16089099592E+03  0.19150072772E+03  0.00000000000E+00 0. -1.
</event>
<event>
 7    1  0.8653652E-006  0.1282565E+03  0.7561462E-02  0.1230066E+00
         -2   -1    0    0    0  501 -0.00000000000E+00  0.00000000000E+00  0.38490384711E+03  0.38490384711E+03  0.00000000000E+00 0.  1.
          2   -1    0    0  501    0  0.00000000000E+00 -0.00000000000E+00 -0.77772342915E+02  0.77772342915E+02  0.00000000000E+00 0. -1.
         23    2    1    2    0    0 -0.10476881497E+03  0.72139256817E+01  0.27450398295E+03  0.31941867046E+03  0.12508918846E+03 0.  0.
          5    1    3    3  502    0 -0.10098417916E+03 -0.29695687799E+02  0.25784321089E+03  0.27853228200E+03  0.41800000000E+01 0. -1.
         -5    1    3    3    0  502 -0.37846358065E+01  0.36909613480E+02  0.16660772057E+02  0.40886388456E+02  0.41800000000E+01 0. -1.
        -11    1    1    2    0    0  0.94200778359E+02  0.88373409922E+01  0.58341311866E+02  0.11115571919E+03  0.00000000000E+00 0.  1.
         11    1    1    2    0    0  0.10568036610E+02 -0.16051266674E+02 -0.25713790615E+02  0.32101800377E+02  0.00000000000E+00 0. -1.
</event>
<event>
 7    1  0.8653652E-006  0.1890519E+03  0.7561462E-02  0.1159319E+00
          3   -1    0    0  501    0  0.00000000000E+00  0.00000000000E+00  0.23045115952E+03  0.23045115952E+03  0.00000000000E+00 0. -1.
         -3   -1    0    0    0  501 -0.00000000000E+00 -0.00000000000E+00 -0.17704843036E+03  0.17704843036E+03  0.00000000000E+00 0.  1.
         23    2    1    2    0    0  0.85418847594E+02 -0.14241275969E+03 -0.86465715939E+01  0.20808622785E+03  0.12508933357E+03 0.  0.
          5    1    3    3  502    0 -0.16615666393E+02 -0.53868214869E+02  0.34477270897E+02  0.66211929072E+02  0.41800000000E+01 0. -1.
         -5    1    3    3    0  502  0.10203451399E+03 -0.88544544820E+02 -0.43123842491E+02  0.14187429878E+03  0.41800000000E+01 0. -1.
        -11    1    1    2    0    0 -0.68395401152E+02  0.33462149220E+02  0.43193240631E+02  0.87540289955E+02  0.00000000000E+00 0.  1.
         11    1    1    2    0    0 -0.17023446442E+02  0.10895061047E+03  0.18856060122E+02  0.11187307207E+03  0.00000000000E+00 0. -1.
</event>
<event>
 7    1  0.8653652E-006  0.1070172E+03  0.7561462E-02  0.1266195E+00
          2   -1    0    0  501    0  0.00000000000E+00  0.00000000000E+00  0.17584893526E+03  0.17584893526E+03  0.00000000000E+00 0. -1.
         -2   -1    0    0    0  501 -0.00000000000E+00 -0.00000000000E+00 -0.84236347686E+02  0.84236347686E+02  0.00000000000E+00 0.  1.
         23    2    1    2    0    0  0.44332246799E+02  0.27818825125E+02  0.56472851540E+02  0.14689021771E+03  0.12509323707E+03 0.  0.
          5    1    3    3  502    0  0.81601176900E+02 -0.89946466559E+01  0.42371151729E+02  0.92479417379E+02  0.41800000000E+01 0. -1.
         -5    1    3    3    0  502 -0.37268930101E+02  0.36813471781E+02  0.14101699811E+02  0.54410800334E+02  0.41800000000E+01 0. -1.
        -11    1    1    2    0    0 -0.43772301561E+02 -0.44599412604E+02 -0.11575660237E+02  0.63554054933E+02  0.00000000000E+00 0.  1.
         11    1    1    2    0    0 -0.55994523820E+00  0.16780587478E+02  0.46715396272E+02  0.49641010300E+02  0.00000000000E+00 0. -1.
</event>
<event>
 7    1  0.8653652E-006  0.6182980E+02  0.7561462E-02  0.1390309E+00
         -2   -1    0    0    0  501 -0.00000000000E+00  0.00000000000E+00  0.33948570126E+03  0.33948570126E+03  0.00000000000E+00 0. -1.
          2   -1    0    0  501    0  0.00000000000E+00 -0.00000000000E+00 -0.41273767851E+02  0.41273767851E+02  0.00000000000E+00 0.  1.
         23    2    1    2    0    0 -0.19074164941E+02  0.39563168690E+02  0.19692838715E+03  0.23739650354E+03  0.12508893692E+03 0.  0.
          5    1    3    3  502    0  0.12741946635E+02  0.94790655316E+01  0.19248737767E+03  0.19318662700E+03  0.41800000000E+01 0.  1.
         -5    1    3    3    0  502 -0.31816111576E+02  0.30084103158E+02  0.44410094806E+01  0.44209876542E+02  0.41800000000E+01 0.  1.
        -11    1    1    2    0    0 -0.14981782366E+02 -0.89048763938E+01 -0.12001740190E+02  0.21161105690E+02  0.00000000000E+00 0.  1.
         11    1    1    2    0    0  0.34055947307E+02 -0.30658292296E+02  0.11328528644E+03  0.12220185988E+03  0.00000000000E+00 0. -1.
</event>
<event>
 7    1  0.1156504E-005  0.1478925E+03  0.7561462E-02  0.1203087E+00
         -1   -1    0    0    0  501 -0.00000000000E+00  0.00000000000E+00  0.16488241085E+02  0.16488241085E+02  0.00000000000E+00 0.  1.
          1   -1    0    0  501    0  0.00000000000E+00 -0.00000000000E+00 -0.16058273849E+04  0.16058273849E+04  0.00000000000E+00 0. -1.
         23    2    1    2    0    0  0.17608077722E+02 -0.11758546246E+03 -0.92938555897E+03  0.94527318212E+03  0.12508991260E+03 0.  0.
          5    1    3    3  502    0  0.21293129008E+02  0.83861688552E+01 -0.34895575265E+02  0.41939226794E+02  0.41800000000E+01 0. -1.
         -5    1    3    3    0  502 -0.36850512865E+01 -0.12597163132E+03 -0.89448998370E+03  0.90333395532E+03  0.41800000000E+01 0. -1.
        -11    1    1    2    0    0 -0.51346792759E+02  0.54450992335E+02 -0.42085524482E+03  0.42745823280E+03  0.00000000000E+00 0. -1.
         11    1    1    2    0    0  0.33738715038E+02  0.63134470126E+02 -0.23909833998E+03  0.24958421102E+03  0.00000000000E+00 0.  1.
</event>
<event>
 7    1  0.8653652E-006  0.2008076E+03  0.7561462E-02  0.1149059E+00
          2   -1    0    0  501    0  0.00000000000E+00  0.00000000000E+00  0.50364501109E+02  0.50364501109E+02  0.00000000000E+00 0. -1.
         -2   -1    0    0    0  501 -0.00000000000E+00 -0.00000000000E+00 -0.10954099345E+04  0.10954099345E+04  0.00000000000E+00 0.  1.
         23    2    1    2    0    0  0.19996101952E+03  0.15732414293E+02 -0.67364765063E+03  0.71391866747E+03  0.12508712316E+03 0.  0.
          5    1    3    3  502    0  0.17578788850E+03  0.13276906624E+02 -0.37649124534E+03  0.41574125151E+03  0.41800000000E+01 0.  1.
         -5    1    3    3    0  502  0.24173131013E+02  0.24555076697E+01 -0.29715640530E+03  0.29817741596E+03  0.41800000000E+01 0.  1.
        -11    1    1    2    0    0 -0.17484893132E+03 -0.12361722264E+02 -0.23526252713E+03  0.29338271530E+03  0.00000000000E+00 0. -1.
         11    1    1    2    0    0 -0.25112088195E+02 -0.33706920297E+01 -0.13613525560E+03  0.13847305281E+03  0.00000000000E+00 0.  1.
</event>
<event>
 6    1  0.8653652E-006  0.1489983E+03  0.7561462E-02  0.1201709E+00
          1   -1    0    0  501    0  0.00000000000E+00  0.00000000000E+00  0.45446873569E+02  0.45446873569E+02  0.00000000000E+00 0. -1.
         -1   -1    0    0    0  501 -0.00000000000E+00 -0.00000000000E+00 -0.62279977378E+03  0.62279977378E+03  0.00000000000E+00 0.  1.
          5    1    1    2  502    0 -0.82001936779E+02  0.30212891333E+02 -0.10305923046E+03  0.13518806834E+03  0.41800000000E+01 0. -1.
         -5    1    1    2    0  502  0.10511821809E+03 -0.47755795467E+02 -0.38567795823E+03  0.40261074954E+03  0.41800000000E+01 0.  1.
        -11    1    1    2    0    0  0.12611830548E+02 -0.31709904033E+02 -0.24184489628E+02  0.41826616193E+02  0.00000000000E+00 0.  1.
         11    1    1    2    0    0 -0.35728111860E+02  0.49252808167E+02 -0.64431221896E+02  0.88621213287E+02  0.00000000000E+00 0. -1.
</event>
<event>
 7    1  0.8653652E-006  0.1528751E+03  0.7561462E-02  0.1196984E+00
          3   -1    0    0  501    0  0.00000000000E+00  0.00000000000E+00  0.52329086123E+03  0.52329086123E+03  0.00000000000E+00 0. -1.
         -3   -1    0    0    0  501 -0.00000000000E+00 -0.00000000000E+00 -0.45001319845E+02  0.45001319845E+02  0.00000000000E+00 0.  1.
         23    2    1    2    0    0  0.60391840173E+02 -0.89451053187E+02  0.23629339903E+03  0.28832311477E+03  0.12508790034E+03 0.  0.
          5    1    3    3  502    0 -0.37019225068E+02 -0.43337758861E+02  0.88830248990E+02  0.10562608534E+03  0.41800000000E+01 0. -1.
         -5    1    3    3    0  502  0.97411065241E+02 -0.46113294327E+02  0.14746315004E+03  0.18269702943E+03  0.41800000000E+01 0. -1.
        -11    1    1    2    0    0 -0.54354946213E+02  0.10817986036E+03  0.21043441671E+03  0.24277558794E+03  0.00000000000E+00 0.  1.
         11    1    1    2    0    0 -0.60368939598E+01 -0.18728807172E+02  0.31561725646E+02  0.37193478360E+02  0.00000000000E+00 0. -1.
</event>
<event>
 7    1  0.8653652E-006  0.1263997E+03  0.7561462E-02  0.1232898E+00
          2   -1    0    0  501    0  0.00000000000E+00  0.00000000000E+00  0.74667408706E+03  0.74667408706E+03  0.00000000000E+00 0. -1.
         -2   -1    0    0    0  501 -0.00000000000E+00 -0.00000000000E+00 -0.34324048717E+02  0.34324048717E+02  0.00000000000E+00 0.  1.
         23    2    1    2    0    0  0.70685289977E+02 -0.77936219364E+02  0.25377862626E+03  0.30186606007E+03  0.12509621326E+03 0.  0.
          5    1    3    3  502    0  0.47212277072E+02 -0.57656303233E+01  0.13157833150E+02  0.49526180678E+02  0.41800000000E+01 0.  1.
         -5    1    3    3    0  502  0.23473012905E+02 -0.72170589041E+02  0.24062079311E+03  0.25233987940E+03  0.41800000000E+01 0.  1.
        -11    1    1    2    0    0 -0.80676580535E+02  0.84705556429E+02  0.44821758551E+03  0.46323076959E+03  0.00000000000E+00 0. -1.
         11    1    1    2    0    0  0.99912905577E+01 -0.67693370644E+01  0.10353826576E+02  0.15901306112E+02  0.00000000000E+00 0.  1.
</event>
<event>
 7    1  0.8653652E-006  0.1211797E+03  0.7561462E-02  0.1241163E+00
         -1   -1    0    0    0  501 -0.00000000000E+00  0.00000000000E+00  0.17580594703E+03  0.17580594703E+03  0.00000000000E+00 0.  1.
          1   -1    0    0  501    0  0.00000000000E+00 -0.00000000000E+00 -0.84737874919E+02  0.84737874919E+02  0.00000000000E+00 0. -1.
         23    2    1    2    0    0  0.33664423152E+01 -0.54449662524E+02  0.64822039139E+02  0.15108216059E+03  0.12509126192E+03 0.  0.
          5    1    3    3  502    0 -0.39038402647E+02 -0.78094517355E+02  0.46609434862E+02  0.99058883198E+02  0.41800000000E+01 0. -1.
         -5    1    3    3    0  502  0.42404844962E+02  0.23644854831E+02  0.18212604277E+02  0.52023277394E+02  0.41800000000E+01 0. -1.
        -11    1    1    2    0    0 -0.11596185857E+02  0.79247882621E+02  0.21209201476E+02  0.82852451102E+02  0.00000000000E+00 0. -1.
         11    1    1    2    0    0  0.82297435422E+01 -0.24798220097E+02  0.50368314917E+01  0.26609210252E+02  0.00000000000E+00 0.  1.
</event>
<event>
 6    1  0.8653652E-006  0.4557396E+03  0.7561462E-02  0.1026024E+00
          2   -1    0    0  501    0  0.00000000000E+00  0.00000000000E+00  0.67890199170E+03  0.67890199170E+03  0.00000000000E+00 0. -1.
         -2   -1    0    0    0  501 -0.00000000000E+00 -0.00000000000E+00 -0.49940995439E+03  0.49940995439E+03  0.00000000000E+00 0.  1.
          5    1    1    2  502    0 -0.13245147776E+03  0.40566066139E+03  0.21056328691E+03  0.47587638769E+03  0.41800000000E+01 0. -1.
         -5    1    1    2    0  502  0.81043137115E+01 -0.29360999201E+03 -0.26833315814E+03  0.39786010540E+03  0.41800000000E+01 0.  1.
        -11    1    1    2    0    0 -0.14206378852E+02 -0.20356638663E+02  0.31798782889E+02  0.40340755211E+02  0.00000000000E+00 0.  1.
         11    1    1    2    0    0  0.13855354290E+03 -0.91694030721E+02  0.20546312565E+03  0.26423469780E+03  0.00000000000E+00 0. -1.
</event>
<event>
 7    1  0.8653652E-006  0.7603417E+02  0.7561462E-02  0.1340698E+00
          2   -1    0    0  501    0  0.00000000000E+00  0.00000000000E+00  0.64769603937E+02  0.64769603937E+02  0.00000000000E+00 0. -1.
         -2   -1    0    0    0  501 -0.00000000000E+00 -0.00000000000E+00 -0.21376226613E+03  0.21376226613E+03  0.00000000000E+00 0.  1.
         23    2    1    2    0    0 -0.28736250545E+02  0.30198560836E+02 -0.11166449977E+03  0.17278645571E+03  0.12509385915E+03 0.  0.
          5    1    3    3  502    0  0.17965112032E+02  0.11496561555E+02 -0.11971178635E+03  0.12166881429E+03  0.41800000000E+01 0.  1.
         -5    1    3    3    0  502 -0.46701362577E+02  0.18701999281E+02  0.80472865849E+01  0.51117641426E+02  0.41800000000E+01 0.  1.
        -11    1    1    2    0    0  0.44001178343E+02 -0.41792147793E+02 -0.53320163976E+02  0.80781973232E+02  0.00000000000E+00 0.  1.
         11    1    1    2    0    0 -0.15264927799E+02  0.11593586958E+02  0.15992001549E+02  0.24963441125E+02  0.00000000000E+00 0. -1.
</event>
<event>
 7    1  0.8653652E-006  0.8415944E+02  0.7561462E-02  0.1317645E+00
          1   -1    0    0  501    0  0.00000000000E+00  0.00000000000E+00  0.18738538998E+03  0.18738538998E+03  0.00000000000E+00 0. -1.
         -1   -1    0    0    0  501 -0.00000000000E+00 -0.00000000000E+00 -0.16972799570E+03  0.16972799570E+03  0.00000000000E+00 0.  1.
         23    2    1    2    0    0  0.35799410083E+02  0.44755069347E+02 -0.12674201825E+03  0.18708752557E+03  0.12511430390E+03 0.  0.
          5    1    3    3  502    0  0.46887436644E+02 -0.64510153697E+01 -0.12585026414E+03  0.13452066272E+03  0.41800000000E+01 0. -1.
         -5    1    3    3    0  502 -0.11088026561E+02  0.51206084717E+02 -0.89175411197E+00  0.52566862855E+02  0.41800000000E+01 0. -1.
        -11    1    1    2    0    0 -0.36467547835E+02 -0.16573938513E+02  0.24718423241E+02  0.47069925966E+02  0.00000000000E+00 0.  1.
         11    1    1    2    0    0  0.66813775229E+00 -0.28181130834E+02  0.11968098929E+03  0.12295593414E+03  0.00000000000E+00 0. -1.
</event>
<event>
 7    1  0.8653652E-006  0.9232018E+02  0.7561462E-02  0.1297328E+00
          3   -1    0    0  501    0  0.00000000000E+00  0.00000000000E+00  0.29460472500E+03  0.29460472500E+03  0.00000000000E+00 0. -1.
         -3   -1    0    0    0  501 -0.00000000000E+00 -0.00000000000E+00 -0.43684842756E+02  0.43684842756E+02  0.00000000000E+00 0.  1.
         23    2    1    2    0    0  0.12613050954E+02  0.15246608928E+02  0.13409278173E+03  0.18444231249E+03  0.12508614787E+03 0.  0.
          5    1    3    3  502    0 -0.19448467393E+02  0.44326851274E+02  0.57410126592E+01  0.48923861807E+02  0.41800000000E+01 0.  1.
         -5    1    3    3    0  502  0.32061518346E+02 -0.29080242346E+02  0.12835176907E+03  0.13551845068E+03  0.41800000000E+01 0.  1.
        -11    1    1    2    0    0 -0.52486403848E+01  0.38229046418E+02  0.21177937494E+02  0.44017192691E+02  0.00000000000E+00 0.  1.
         11    1    1    2    0    0 -0.73644105688E+01 -0.53475655345E+02  0.95649163027E+02  0.10983006258E+03  0.00000000000E+00 0. -1.
</event>
<event>
 7    1  0.8653652E-006  0.9219472E+02  0.7561462E-02  0.1297622E+00
          1   -1    0    0  501    0  0.00000000000E+00  0.00000000000E+00  0.43539081492E+02  0.43539081492E+02  0.00000000000E+00 0. -1.
         -1   -1    0    0    0  501 -0.00000000000E+00 -0.00000000000E+00 -0.46839080464E+03  0.46839080464E+03  0.00000000000E+00 0.  1.
         23    2    1    2    0    0 -0.41867656710E+02  0.42976636504E+02 -0.35978555164E+03  0.38560757332E+03  0.12509062902E+03 0.  0.
          5    1    3    3  502    0  0.82040749834E+01  0.52112073185E+02 -0.30930569693E+03  0.31380003437E+03  0.41800000000E+01 0. -1.
         -5    1    3    3    0  502 -0.50071731694E+02 -0.91354366805E+01 -0.50479854707E+02  0.71807538945E+02  0.41800000000E+01 0. -1.
        -11    1    1    2    0    0  0.44778170204E+01 -0.42776446714E+02 -0.76034577424E+02  0.87356351817E+02  0.00000000000E+00 0.  1.
         11    1    1    2    0    0  0.37389839690E+02 -0.20018979054E+00  0.10968405916E+02  0.38965960996E+02  0.00000000000E+00 0. -1.
</event>
<event>
 7    1  0.8653652E-006  0.1036293E+03  0.7561462E-02  0.1272844E+00
         -1   -1    0    0    0  501 -0.00000000000E+00  0.00000000000E+00  0.87673850982E+02  0.87673850982E+02  0.00000000000E+00 0.  1.
          1   -1    0    0  501    0  0.00000000000E+00 -0.00000000000E+00 -0.16872700672E+03  0.16872700672E+03  0.00000000000E+00 0. -1.
         23    2    1    2    0    0 -0.54005122557E+02  0.10640078484E+02 -0.41461702338E+02  0.14281457023E+03  0.12508862529E+03 0.  0.
          5    1    3    3  502    0 -0.83959385048E+02  0.31994989662E+02 -0.52542239332E+02  0.10416821499E+03  0.41800000000E+01 0.  1.
         -5    1    3    3    0  502  0.29954262491E+02 -0.21354911177E+02  0.11080536994E+02  0.38646355233E+02  0.41800000000E+01 0.  1.
        -11    1    1    2    0    0 -0.12134392391E+02 -0.70898633655E+01  0.20030798683E+02  0.24469216112E+02  0.00000000000E+00 0.  1.
         11    1    1    2    0    0  0.66139514948E+02 -0.35502151188E+01 -0.59622252086E+02  0.89117071365E+02  0.00000000000E+00 0. -1.
</event>
<event>
 7    1  0.8653652E-006  0.1489293E+03  0.7561462E-02  0.1201795E+00
          3   -1    0    0  501    0  0.00000000000E+00  0.00000000000E+00  0.26170639520E+03  0.26170639520E+03  0.00000000000E+00 0. -1.
         -3   -1    0    0    0  501 -0.00000000000E+00 -0.00000000000E+00 -0.10538448285E+03  0.10538448285E+03  0.00000000000E+00 0.  1.
         23    2    1    2    0    0 -0.52356400262E+02 -0.10990289657E+03  0.73206964461E+02  0.18927596796E+03  0.12508514331E+03 0.  0.
          5    1    3    3  502    0 -0.56001421508E+02  0.89757982564E+00  0.51564934013E+02  0.76245522362E+02  0.41800000000E+01 0.  1.
         -5    1    3    3    0  502  0.36450212455E+01 -0.11080047640E+03  0.21642030448E+02  0.11303044560E+03  0.41800000000E+01 0.  1.
        -11    1    1    2    0    0  0.38619922398E+01  0.63561380151E+02 -0.85278694974E+01  0.64247090120E+02  0.00000000000E+00 0.  1.
         11    1    1    2    0    0  0.48494408022E+02  0.46341516422E+02  0.91642817384E+02  0.11356781997E+03  0.00000000000E+00 0. -1.
</event>
<event>
 7    1  0.8653652E-006  0.1945887E+03  0.7561462E-02  0.1154387E+00
         -1   -1    0    0    0  501 -0.00000000000E+00  0.00000000000E+00  0.86674469465E+02  0.86674469465E+02  0.00000000000E+00 0.  1.
          1   -1    0    0  501    0  0.00000000000E+00 -0.00000000000E+00 -0.53070238658E+03  0.53070238658E+03  0.00000000000E+00 0. -1.
         23    2    1    2    0    0 -0.84715830634E+02 -0.16681035790E+03 -0.20218190394E+03  0.30253523104E+03  0.12509027250E+03 0.  0.
          5    1    3    3  502    0 -0.33019278965E+02 -0.91951726773E+02 -0.18585653568E+03  0.21001313553E+03  0.41800000000E+01 0.  1.
         -5    1    3    3    0  502 -0.51696551669E+02 -0.74858631128E+02 -0.16325368264E+02  0.92522095511E+02  0.41800000000E+01 0.  1.
        -11    1    1    2    0    0  0.26284494991E+02  0.12681069830E+03 -0.13905893015E+03  0.19002424565E+03  0.00000000000E+00 0.  1.
         11    1    1    2    0    0  0.58431335642E+02  0.39999659603E+02 -0.10278708303E+03  0.12481737936E+03  0.00000000000E+00 0. -1.
</event>
<event>
 6    1  0.8653652E-006  0.9319721E+02  0.7561462E-02  0.1295289E+00
         -1   -1    0    0    0  501 -0.00000000000E+00  0.00000000000E+00  0.21441312020E+03  0.21441312020E+03  0.00000000000E+00 0.  1.
          1   -1    0    0  501    0  0.00000000000E+00 -0.00000000000E+00 -0.10061593479E+03  0.10061593479E+03  0.00000000000E+00 0. -1.
          5    1    1    2  502    0  0.31289350091E+02 -0.77721678603E+02  0.10909081898E+03  0.13761526783E+03  0.41800000000E+01 0. -1.
         -5    1    1    2    0  502 -0.11896699780E+02  0.39428113267E+02 -0.10265166304E+02  0.42649192498E+02  0.41800000000E+01 0.  1.
        -11    1    1    2    0    0  0.14036615108E+02  0.90934803267E+01  0.65446321168E+02  0.67549529255E+02  0.00000000000E+00 0.  1.
         11    1    1    2    0    0 -0.33429265419E+02  0.29200085009E+02 -0.50474788429E+02  0.67215065409E+02  0.00000000000E+00 0. -1.
</event>
<event>
 6    1  0.8653652E-006  0.2927215E+03  0.7561462E-02  0.1088937E+00
          2   -1    0    0  501    0  0.00000000000E+00  0.00000000000E+00  0.15493031580E+04  0.15493031580E+04  0.00000000000E+00 0. -1.
         -2   -1    0    0    0  501 -0.00000000000E+00 -0.00000000000E+00 -0.59640513104E+02  0.59640513104E+02  0.00000000000E+00 0.  1.
          5    1    1    2  502    0  0.33183696823E+02 -0.48951593151E+02  0.80736762953E+02  0.10016642900E+03  0.41800000000E+01 0. -1.
         -5    1    1    2    0  502 -0.17578129215E+03 -0.17588107937E+03  0.52078926558E+03  0.57712403199E+03  0.41800000000E+01 0.  1.
        -11    1    1    2    0    0  0.13368784387E+02  0.88905798305E+02  0.21919400039E+03  0.23691554439E+03  0.00000000000E+00 0.  1.
         11    1    1    2    0    0  0.12922881094E+03  0.13592687422E+03  0.66894261602E+03  0.69473766577E+03  0.00000000000E+00 0. -1.
</event>
<event>
 7    1  0.8653652E-006  0.8847969E+02  0.7561462E-02  0.1306576E+00
         -1   -1    0    0    0  501 -0.00000000000E+00  0.00000000000E+00  0.44062390534E+03  0.44062390534E+03  0.00000000000E+00 0.  1.
          1   -1    0    0  501    0  0.00000000000E+00 -0.00000000000E+00 -0.40925931358E+02  0.40925931358E+02  0.00000000000E+00 0. -1.
         23    2    1    2    0    0 -0.32466487343E+02 -0.34944338363E+02  0.33178312073E+03  0.35777582383E+03  0.12509325054E+03 0.  0.
          5    1    3    3  502    0 -0.49852829403E+02 -0.14084029384E+02  0.32545790683E+03  0.32958153164E+03  0.41800000000E+01 0.  1.
         -5    1    3    3    0  502  0.17386342060E+02 -0.20860308979E+02  0.63252139026E+01  0.28194292185E+02  0.41800000000E+01 0.  1.
        -11    1    1    2    0    0  0.27109258249E+02  0.63191281818E+02  0.65429827419E+02  0.94916343675E+02  0.00000000000E+00 0.  1.
         11    1    1    2    0    0  0.53572290936E+01 -0.28246943456E+02  0.24850258357E+01  0.28857669198E+02  0.00000000000E+00 0. -1.
</event>
<event>
 6    1  0.8653652E-006  0.2066806E+03  0.7561462E-02  0.1144222E+00
         -1   -1    0    0    0  501 -0.00000000000E+00  0.00000000000E+00  0.90720759708E+02  0.90720759708E+02  0.00000000000E+00 0.  1.
          1   -1    0    0  501    0  0.00000000000E+00 -0.00000000000E+00 -0.63268758906E+03  0.63268758906E+03  0.00000000000E+00 0. -1.
          5    1    1    2  502    0  0.53849628614E+02 -0.23568867247E+02  0.81430056052E+01  0.59489956677E+02  0.41800000000E+01 0. -1.
         -5    1    1    2    0  502  0.15297660092E+02 -0.15644206428E+03 -0.21056080447E+03  0.26279547686E+03  0.41800000000E+01 0.  1.
        -11    1    1    2    0    0 -0.15467362248E+02  0.97716467634E+02 -0.24727822206E+03  0.26633487651E+03  0.00000000000E+00 0.  1.
         11    1    1    2    0    0 -0.53679926458E+02  0.82294463896E+02 -0.92270808434E+02  0.13478803872E+03  0.00000000000E+00 0. -1.
</event>
<event>
 7    1  0.8653652E-006  0.9939156E+02  0.7561462E-02  0.1281581E+00
          2   -1    0    0  501    0  0.00000000000E+00  0.00000000000E+00  0.19280780666E+03  0.19280780666E+03  0.00000000000E+00 0.  1.
         -2   -1    0    0    0  501 -0.00000000000E+00 -0.00000000000E+00 -0.73310583604E+02  0.73310583604E+02  0.00000000000E+00 0. -1.
         23    2    1    2    0    0  0.34227993064E+02  0.34030507240E+02  0.72869128976E+02  0.15259750720E+03  0.12508580381E+03 0.  0.
          5    1    3    3  502    0  0.36442639946E+02  0.76114733697E+02  0.23800082293E+02  0.87780607250E+02  0.41800000000E+01 0.  1.
         -5    1    3    3    0  502 -0.22146468820E+01 -0.42084226457E+02  0.49069046683E+02  0.64816899954E+02  0.41800000000E+01 0.  1.
        -11    1    1    2    0    0 -0.19275764731E+02  0.12562390181E+02 -0.20251697358E+02  0.30651264230E+02  0.00000000000E+00 0. -1.
         11    1    1    2    0    0 -0.14952228332E+02 -0.46592897420E+02  0.66879791435E+02  0.82869618827E+02  0.00000000000E+00 0.  1.
</event>
<event>
 7    1  0.8653652E-006  0.8684290E+02  0.7561462E-02  0.1310682E+00
          1   -1    0    0  501    0  0.00000000000E+00  0.00000000000E+00  0.12134142665E+03  0.12134142665E+03  0.00000000000E+00 0. -1.
         -1   -1    0    0    0  501 -0.00000000000E+00 -0.00000000000E+00 -0.10420160414E+03  0.10420160414E+03  0.00000000000E+00 0.  1.
         23    2    1    2    0    0 -0.11009543586E+01  0.81471074601E+01 -0.34384214147E+02  0.12023198416E+03  0.11491678890E+03 0.  0.
          5    1    3    3  502    0  0.30254714975E+02  0.30926590210E+02  0.24287437608E+02  0.49791101472E+02  0.41800000000E+01 0. -1.
         -5    1    3    3    0  502 -0.31355669334E+02 -0.22779482750E+02 -0.58671651754E+02  0.70440882684E+02  0.41800000000E+01 0.  1.
        -11    1    1    2    0    0  0.43362827388E+02 -0.19399282073E+02  0.32853435564E+02  0.57758247657E+02  0.00000000000E+00 0. -1.
         11    1    1    2    0    0 -0.42261873029E+02  0.11252174613E+02  0.18670601090E+02  0.47552798976E+02  0.00000000000E+00 0.  1.
</event>
<event>
 7    1  0.8653652E-006  0.1106836E+03  0.7561462E-02  0.1259309E+00
         -2   -1    0    0    0  501 -0.00000000000E+00  0.00000000000E+00  0.90059170614E+02  0.90059170614E+02  0.00000000000E+00 0.  1.
          2   -1    0    0  501    0  0.00000000000E+00 -0.00000000000E+00 -0.17658591657E+03  0.17658591657E+03  0.00000000000E+00 0. -1.
         23    2    1    2    0    0  0.27212105951E+02 -0.41404558281E+02 -0.76493697538E+01  0.13476037840E+03  0.12508801130E+03 0.  0.
          5    1    3    3  502    0  0.12451660333E+02  0.35190650641E+02 -0.35641150592E+02  0.51780206190E+02  0.41800000000E+01 0. -1.
         -5    1    3    3    0  502  0.14760445618E+02 -0.76595208922E+02  0.27991780839E+02  0.82980172205E+02  0.41800000000E+01 0. -1.
        -11    1    1    2    0    0 -0.47702557917E+02  0.60932051568E+02 -0.57011363747E+02  0.96117347739E+02  0.00000000000E+00 0.  1.
         11    1    1    2    0    0  0.20490451966E+02 -0.19527493286E+02 -0.21866012459E+02  0.35767361052E+02  0.00000000000E+00 0. -1.
</event>
<event>
 7    1  0.8653652E-006  0.2173714E+03  0.7561462E-02  0.1135858E+00
          1   -1    0    0  501    0  0.00000000000E+00  0.00000000000E+00  0.85351280475E+03  0.85351280475E+03  0.00000000000E+00 0. -1.
         -1   -1    0    0    0  501 -0.00000000000E+00 -0.00000000000E+00 -0.33910289387E+03  0.33910289387E+03  0.00000000000E+00 0.  1.
         23    2    1    2    0    0  0.13462199208E+01 -0.20203085684E+03 -0.28016377223E+03  0.36736533933E+03  0.12508906368E+03 0.  0.
          5    1    3    3  502    0  0.38221256214E+02 -0.97148833389E+02 -0.21343065641E+03  0.23763181132E+03  0.41800000000E+01 0.  1.
         -5    1    3    3    0  502 -0.36875036294E+02 -0.10488202345E+03 -0.66733115820E+02  0.12973352802E+03  0.41800000000E+01 0.  1.
        -11    1    1    2    0    0  0.22915119872E+02  0.19097735655E+03  0.73885680100E+03  0.76348335006E+03  0.00000000000E+00 0.  1.
         11    1    1    2    0    0 -0.24261339793E+02  0.11053500288E+02  0.55716882105E+02  0.61767009226E+02  0.00000000000E+00 0. -1.
</event>
<event>
 7    1  0.8653652E-006  0.2768185E+03  0.7561462E-02  0.1097439E+00
         -2   -1    0    0    0  501 -0.00000000000E+00  0.00000000000E+00  0.62940658310E+03  0.62940658310E+03  0.00000000000E+00 0.  1.
          2   -1    0    0  501    0  0.00000000000E+00 -0.00000000000E+00 -0.12827305422E+03  0.12827305422E+03  0.00000000000E+00 0. -1.
         23    2    1    2    0    0 -0.97541329470E+02  0.24294571150E+03  0.23483823784E+03  0.37324495522E+03  0.12500347576E+03 0.  0.
          5    1    3    3  502    0 -0.12524561311E+03  0.16441401466E+03  0.16678223305E+03  0.26561667395E+03  0.41800000000E+01 0.  1.
         -5    1    3    3    0  502  0.27704283639E+02  0.78531696838E+02  0.68056004787E+02  0.10762828126E+03  0.41800000000E+01 0.  1.
        -11    1    1    2    0    0  0.60241498608E+02 -0.18550582533E+03  0.13774554894E+03  0.23877873783E+03  0.00000000000E+00 0.  1.
         11    1    1    2    0    0  0.37299830862E+02 -0.57439886170E+02  0.12854974211E+03  0.14565594427E+03  0.00000000000E+00 0. -1.
</event>
<event>
 7    1  0.8653652E-006  0.4941455E+02  0.7561462E-02  0.1448525E+00
         -2   -1    0    0    0  501 -0.00000000000E+00  0.00000000000E+00  0.57480441778E+02  0.57480441778E+02  0.00000000000E+00 0.  1.
          2   -1    0    0  501    0  0.00000000000E+00 -0.00000000000E+00 -0.21258472018E+03  0.21258472018E+03  0.00000000000E+00 0. -1.
         23    2    1    2    0    0  0.26162280851E+02 -0.42859461972E+01 -0.84652552438E+02  0.15335513635E+03  0.12509559919E+03 0.  0.
          5    1    3    3  502    0  0.14456771626E+02 -0.30875536967E+02 -0.10958622863E+03  0.11484298383E+03  0.41800000000E+01 0. -1.
         -5    1    3    3    0  502  0.11705509225E+02  0.26589590770E+02  0.24933676190E+02  0.38512152522E+02  0.41800000000E+01 0. -1.
        -11    1    1    2    0    0 -0.65294109796E+01  0.12299118351E+02  0.19685173824E+02  0.24112394913E+02  0.00000000000E+00 0.  1.
         11    1    1    2    0    0 -0.19632869872E+02 -0.80131721537E+01 -0.90136899785E+02  0.92597630695E+02  0.00000000000E+00 0. -1.
</event>
<event>
 6    1  0.8653652E-006  0.9810935E+02  0.7561462E-02  0.1284323E+00
          1   -1    0    0  501    0  0.00000000000E+00  0.00000000000E+00  0.11598638613E+03  0.11598638613E+03  0.00000000000E+00 0. -1.
         -1   -1    0    0    0  501 -0.00000000000E+00 -0.00000000000E+00 -0.14446033039E+03  0.14446033039E+03  0.00000000000E+00 0.  1.
          5    1    1    2  502    0  0.53219971065E+02 -0.40867384767E+01 -0.54641558178E+02  0.76499928312E+02  0.41800000000E+01 0. -1.
         -5    1    1    2    0  502 -0.69585306010E+02 -0.29083911046E+02 -0.11107421659E+02  0.76346813360E+02  0.41800000000E+01 0.  1.
        -11    1    1    2    0    0  0.10389074724E+02  0.49070497778E+02  0.60650942938E+02  0.78704405881E+02  0.00000000000E+00 0. -1.
         11    1    1    2    0    0  0.59762602216E+01 -0.15899848255E+02 -0.23375907364E+02  0.28895568966E+02  0.00000000000E+00 0.  1.
</event>
<event>
 7    1  0.8653652E-006  0.1284565E+03  0.7561462E-02  0.1229764E+00
          2   -1    0    0  501    0  0.00000000000E+00  0.00000000000E+00  0.18430597466E+03  0.18430597466E+03  0.00000000000E+00 0. -1.
         -2   -1    0    0    0  501 -0.00000000000E+00 -0.00000000000E+00 -0.13940114857E+03  0.13940114857E+03  0.00000000000E+00 0.  1.
         23    2    1    2    0    0  0.78656129332E+02 -0.18660169457E+02 -0.61327660963E+02  0.16106961372E+03  0.12508936749E+03 0.  0.
          5    1    3    3  502    0 -0.31461334512E+02 -0.18687536350E+02 -0.26940180021E+02  0.45632064206E+02  0.41800000000E+01 0. -1.
         -5    1    3    3    0  502  0.11011746384E+03  0.27366893030E-01 -0.34387480942E+02  0.11543754951E+03  0.41800000000E+01 0. -1.
        -11    1    1    2    0    0 -0.38817384036E+02 -0.28495580941E+02  0.11403344543E+02  0.49485590866E+02  0.00000000000E+00 0.  1.
         11    1    1    2    0    0 -0.39838745296E+02  0.47155750399E+02  0.94829142507E+02  0.11315191864E+03  0.00000000000E+00 0. -1.
</event>
<event>
 7    1  0.8653652E-006  0.1101154E+03  0.7561462E-02  0.1260356E+00
         -2   -1    0    0    0  501 -0.00000000000E+00  0.00000000000E+00  0.41720518537E+03  0.41720518537E+03  0.00000000000E+00 0.  1.
          2   -1    0    0  501    0  0.00000000000E+00 -0.00000000000E+00 -0.37396593113E+02  0.37396593113E+02  0.00000000000E+00 0. -1.
         23    2    1    2    0    0 -0.13938093899E+02 -0.52935369581E+02  0.26651847617E+03  0.29945693374E+03  0.12508370482E+03 0.  0.
          5    1    3    3  502    0  0.47696800084E+02 -0.56520405326E+02  0.15886721472E+03  0.17528777844E+03  0.41800000000E+01 0.  1.
         -5    1    3    3    0  502 -0.61634893983E+02  0.35850357451E+01  0.10765126144E+03  0.12416915530E+03  0.41800000000E+01 0.  1.
        -11    1    1    2    0    0 -0.88375447138E+01 -0.12318964604E+02 -0.67764655163E+01  0.16606612249E+02  0.00000000000E+00 0. -1.
         11    1    1    2    0    0  0.22775638613E+02  0.65254334185E+02  0.12006658161E+03  0.13853823250E+03  0.00000000000E+00 0.  1.
</event>
<event>
 7    1  0.8653652E-006  0.1492727E+03  0.7561462E-02  0.1201370E+00
          2   -1    0    0  501    0  0.00000000000E+00  0.00000000000E+00  0.78291636923E+03  0.78291636923E+03  0.00000000000E+00 0. -1.
         -2   -1    0    0    0  501 -0.00000000000E+00 -0.00000000000E+00 -0.43633874629E+02  0.43633874629E+02  0.00000000000E+00 0.  1.
         23    2    1    2    0    0 -0.73990657993E+01  0.10923450878E+03  0.16379618320E+03  0.23337581135E+03  0.12509258815E+03 0.  0.
          5    1    3    3  502    0  0.43080899471E+02  0.94174795843E+02  0.14294644716E+03  0.17656731075E+03  0.41800000000E+01 0. -1.
         -5    1    3    3    0  502 -0.50479965270E+02  0.15059712941E+02  0.20849736037E+02  0.56808500599E+02  0.41800000000E+01 0. -1.
        -11    1    1    2    0    0 -0.32230708753E+02 -0.94383819922E+02  0.35934846819E+03  0.37293222660E+03  0.00000000000E+00 0.  1.
         11    1    1    2    0    0  0.39629774552E+02 -0.14850688862E+02  0.21613784321E+03  0.22024220590E+03  0.00000000000E+00 0. -1.
</event>
<event>
 7    1  0.8653652E-006  0.9868229E+02  0.7561462E-02  0.1283092E+00
         -2   -1    0    0    0  501 -0.00000000000E+00  0.00000000000E+00  0.26507995707E+02  0.26507995707E+02  0.00000000000E+00 0.  1.
          2   -1    0    0  501    0  0.00000000000E+00 -0.00000000000E+00 -0.58427695997E+03  0.58427695997E+03  0.00000000000E+00 0. -1.
         23    2    1    2    0    0  0.33026443669E+02 -0.50403150983E+02 -0.28918700819E+03  0.32079244040E+03  0.12508972981E+03 0.  0.
          5    1    3    3  502    0  0.45458094603E+02 -0.58462737096E+02 -0.29511708731E+03  0.30429574038E+03  0.41800000000E+01 0. -1.
         -5    1    3    3    0  502 -0.12431650934E+02  0.80595861131E+01  0.59300791188E+01  0.16496700022E+02  0.41800000000E+01 0. -1.
        -11    1    1    2    0    0 -0.17265181997E+02  0.75890380136E+02 -0.21418560431E+03  0.22788793167E+03  0.00000000000E+00 0.  1.
         11    1    1    2    0    0 -0.15761261672E+02 -0.25487229153E+02 -0.54396351757E+02  0.62104583598E+02  0.00000000000E+00 0. -1.
</event>
<event>
 7    1  0.8653652E-006  0.1457739E+03  0.7561462E-02  0.1205764E+00
         -4   -1    0    0    0  501 -0.00000000000E+00  0.00000000000E+00  0.82674324384E+02  0.82674324384E+02  0.00000000000E+00 0.  1.
          4   -1    0    0  501    0  0.00000000000E+00 -0.00000000000E+00 -0.34454646635E+03  0.34454646635E+03  0.00000000000E+00 0. -1.
         23    2    1    2    0    0 -0.91438949052E+02  0.72347777480E+02 -0.71028324776E+02  0.18517575490E+03  0.12509898070E+03 0.  0.
          5    1    3    3  502    0  0.24489203757E+02 -0.15980684201E+00  0.93090661717E+01  0.26530694523E+02  0.41800000000E+01 0.  1.
         -5    1    3    3    0  502 -0.11592815281E+03  0.72507584322E+02 -0.80337390947E+02  0.15864506038E+03  0.41800000000E+01 0.  1.
        -11    1    1    2    0    0  0.27913027721E+02 -0.58598946499E+02 -0.36251352874E+02  0.74344698752E+02  0.00000000000E+00 0. -1.
         11    1    1    2    0    0  0.63525921331E+02 -0.13748830980E+02 -0.15459246432E+03  0.16770033709E+03  0.00000000000E+00 0.  1.
</event>
<event>
 7    1  0.8653652E-006  0.1199641E+03  0.7561462E-02  0.1243156E+00
         -2   -1    0    0    0  501 -0.00000000000E+00  0.00000000000E+00  0.14380761246E+03  0.14380761246E+03  0.00000000000E+00 0.  1.
          2   -1    0    0  501    0  0.00000000000E+00 -0.00000000000E+00 -0.19249115372E+03  0.19249115372E+03  0.00000000000E+00 0. -1.
         23    2    1    2    0    0  0.63269050153E+02  0.20650051092E+02  0.84094411424E+02  0.16476871273E+03  0.12508981311E+03 0.  0.
          5    1    3    3  502    0  0.44177608182E+01 -0.44408758779E+02  0.25069729850E+01  0.44893337819E+02  0.41800000000E+01 0.  1.
         -5    1    3    3    0  502  0.58851289334E+02  0.65058809871E+02  0.81587438439E+02  0.11987537491E+03  0.41800000000E+01 0.  1.
        -11    1    1    2    0    0 -0.26469120543E+02 -0.52379611551E+02 -0.59234007944E+02  0.83384085686E+02  0.00000000000E+00 0.  1.
         11    1    1    2    0    0 -0.36799929610E+02  0.31729560459E+02 -0.73543944744E+02  0.88145967773E+02  0.00000000000E+00 0. -1.
</event>
<event>
 7    1  0.8653652E-006  0.9855393E+02  0.7561462E-02  0.1283367E+00
         -2   -1    0    0    0  501 -0.00000000000E+00  0.00000000000E+00  0.86935570148E+02  0.86935570148E+02  0.00000000000E+00 0.  1.
          2   -1    0    0  501    0  0.00000000000E+00 -0.00000000000E+00 -0.25481054996E+03  0.25481054996E+03  0.00000000000E+00 0. -1.
         23    2    1    2    0    0 -0.41446999190E+02  0.70089716144E+02 -0.21838024794E+02  0.15084120089E+03  0.12508295850E+03 0.  0.
          5    1    3    3  502    0 -0.25172735330E+02  0.36588229763E+02  0.51711572890E+02  0.68292930322E+02  0.41800000000E+01 0. -1.
         -5    1    3    3    0  502 -0.16274263860E+02  0.33501486382E+02 -0.73549597684E+02  0.82548270566E+02  0.41800000000E+01 0. -1.
        -11    1    1    2    0    0  0.21638796398E+02  0.15853552723E+02 -0.96942294331E+01  0.28522810657E+02  0.00000000000E+00 0.  1.
         11    1    1    2    0    0  0.19808202792E+02 -0.85943268867E+02 -0.13634272558E+03  0.16238210856E+03  0.00000000000E+00 0. -1.
</event>
<event>
 7    1  0.8653652E-006  0.1408909E+03  0.7561462E-02  0.1212135E+00
         -1   -1    0    0    0  501 -0.00000000000E+00  0.00000000000E+00  0.48411024075E+02  0.48411024075E+02  0.00000000000E+00 0.  1.
          1   -1    0    0  501    0  0.00000000000E+00 -0.00000000000E+00 -0.49323451818E+03  0.49323451818E+03  0.00000000000E+00 0. -1.
         23    2    1    2    0    0  0.82817515140E+02 -0.52658065616E+02 -0.15563313269E+03  0.22248768162E+03  0.12508990284E+03 0.  0.
          5    1    3    3  502    0  0.43762776861E+02  0.34848322247E+02 -0.90739821860E+02  0.10668070994E+03  0.41800000000E+01 0. -1.
         -5    1    3    3    0  502  0.39054738279E+02 -0.87506387863E+02 -0.64893310832E+02  0.11580697168E+03  0.41800000000E+01 0. -1.
        -11    1    1    2    0    0 -0.67416231118E+02  0.76131886882E+02 -0.18340461144E+03  0.20970995188E+03  0.00000000000E+00 0.  1.
         11    1    1    2    0    0 -0.15401284022E+02 -0.23473821266E+02 -0.10578574997E+03  0.10944790875E+03  0.00000000000E+00 0. -1.
</event>
<event>
 7    1  0.8653652E-006  0.3408481E+03  0.7561462E-02  0.1066435E+00
         -2   -1    0    0    0  501 -0.00000000000E+00  0.00000000000E+00  0.17779352168E+04  0.17779352168E+04  0.00000000000E+00 0.  1.
          2   -1    0    0  501    0  0.00000000000E+00 -0.00000000000E+00 -0.79791766214E+02  0.79791766214E+02  0.00000000000E+00 0. -1.
         23    2    1    2    0    0 -0.87800174409E+02  0.31574414603E+03  0.12313149743E+04  0.12803073571E+04  0.12508847392E+03 0.  0.
          5    1    3    3  502    0  0.22446038970E+02  0.11506524714E+03  0.32554203995E+03  0.34603313128E+03  0.41800000000E+01 0.  1.
         -5    1    3    3    0  502 -0.11024621338E+03  0.20067889888E+03  0.90577293431E+03  0.93427422578E+03  0.41800000000E+01 0.  1.
        -11    1    1    2    0    0  0.74008541904E+02 -0.13370765352E+03  0.25964162363E+03  0.30127856480E+03  0.00000000000E+00 0.  1.
         11    1    1    2    0    0  0.13791632505E+02 -0.18203649251E+03  0.20718685270E+03  0.27614106117E+03  0.00000000000E+00 0. -1.
</event>
<event>
 7    1  0.8653652E-006  0.8199803E+02  0.7561462E-02  0.1323475E+00
          4   -1    0    0  501    0  0.00000000000E+00  0.00000000000E+00  0.20008876356E+03  0.20008876356E+03  0.00000000000E+00 0. -1.
         -4   -1    0    0    0  501 -0.00000000000E+00 -0.00000000000E+00 -0.67714848292E+02  0.67714848292E+02  0.00000000000E+00 0.  1.
         23    2    1    2    0    0 -0.15762992319E+02 -0.34794690699E+02  0.48277280279E+02  0.13941823568E+03  0.12509039220E+03 0.  0.
          5    1    3    3  502    0 -0.56488850500E+02 -0.19838552538E+02  0.68751945952E+02  0.91262592939E+02  0.41800000000E+01 0. -1.
         -5    1    3    3    0  502  0.40725858181E+02 -0.14956138161E+02 -0.20474665673E+02  0.48155642739E+02  0.41800000000E+01 0. -1.
        -11    1    1    2    0    0 -0.16292667502E+02  0.61856589371E+01 -0.13306671735E+02  0.21926716660E+02  0.00000000000E+00 0.  1.
         11    1    1    2    0    0  0.32055659822E+02  0.28609031762E+02  0.97403306723E+02  0.10645865951E+03  0.00000000000E+00 0. -1.
</event>
<event>
 7    1  0.8653652E-006  0.1599149E+03  0.7561462E-02  0.1188793E+00
         -3   -1    0    0    0  501 -0.00000000000E+00  0.00000000000E+00  0.15325947323E+03  0.15325947323E+03  0.00000000000E+00 0.  1.
          3   -1    0    0  501    0  0.00000000000E+00 -0.00000000000E+00 -0.18798191739E+03  0.18798191739E+03  0.00000000000E+00 0. -1.
         23    2    1    2    0    0  0.60580367784E+02  0.11844096515E+03 -0.77699059707E+01  0.18277227198E+03  0.12508832392E+03 0.  0.
          5    1    3    3  502    0 -0.34638801405E+02  0.50888810827E+02  0.15584083653E+02  0.63638460804E+02  0.41800000000E+01 0.  1.
         -5    1    3    3    0  502  0.95219169189E+02  0.67552154320E+02 -0.23353989623E+02  0.11913381118E+03  0.41800000000E+01 0.  1.
        -11    1    1    2    0    0 -0.46965549089E+02 -0.11873751361E+03  0.64984925468E+00  0.12769018068E+03  0.00000000000E+00 0. -1.
         11    1    1    2    0    0 -0.13614818695E+02  0.29654845903E+00 -0.27602387440E+02  0.30778937952E+02  0.00000000000E+00 0.  1.
</event>
<event>
 7    1  0.8653652E-006  0.1225782E+03  0.7561462E-02  0.1238903E+00
         -2   -1    0    0    0  501 -0.00000000000E+00  0.00000000000E+00  0.77130002566E+03  0.77130002566E+03  0.00000000000E+00 0.  1.
          2   -1    0    0  501    0  0.00000000000E+00 -0.00000000000E+00 -0.22233922087E+02  0.22233922087E+02  0.00000000000E+00 0. -1.
         23    2    1    2    0    0 -0.36540965125E+02  0.62322118576E+02  0.42711303908E+03  0.45088036242E+03  0.12509302326E+03 0.  0.
          5    1    3    3  502    0 -0.73722642117E+02  0.50203406590E+01  0.25912304422E+03  0.26948553992E+03  0.41800000000E+01 0. -1.
         -5    1    3    3    0  502  0.37181676992E+02  0.57301777917E+02  0.16798999486E+03  0.18139482250E+03  0.41800000000E+01 0. -1.
        -11    1    1    2    0    0 -0.17220479181E+02 -0.41721904070E+02  0.22830161161E+03  0.23272062231E+03  0.00000000000E+00 0.  1.
         11    1    1    2    0    0  0.53761444306E+02 -0.20600214506E+02  0.93651452878E+02  0.10993296302E+03  0.00000000000E+00 0. -1.
</event>
<event>
 7    1  0.8653652E-006  0.9654097E+02  0.7561462E-02  0.1287743E+00
         -4   -1    0    0    0  501 -0.00000000000E+00  0.00000000000E+00  0.20982666782E+03  0.20982666782E+03  0.00000000000E+00 0.  1.
          4   -1    0    0  501    0  0.00000000000E+00 -0.00000000000E+00 -0.74569607656E+02  0.74569607656E+02  0.00000000000E+00 0. -1.
         23    2    1    2    0    0  0.25786211859E+02 -0.12653622010E+01  0.13999908892E+03  0.18950875321E+03  0.12508913934E+03 0.  0.
          5    1    3    3  502    0 -0.41822264886E+02  0.18667240716E+02  0.19727516670E+02  0.50042132549E+02  0.41800000000E+01 0.  1.
         -5    1    3    3    0  502  0.67608476745E+02 -0.19932602917E+02  0.12027157225E+03  0.13946662066E+03  0.41800000000E+01 0.  1.
        -11    1    1    2    0    0  0.21446570887E+02 -0.15392807154E+02 -0.29018643154E+02  0.39229779064E+02  0.00000000000E+00 0.  1.
         11    1    1    2    0    0 -0.47232782747E+02  0.16658169355E+02  0.24276614405E+02  0.55657743210E+02  0.00000000000E+00 0. -1.
</event>
<event>
 7    1  0.8653652E-006  0.6214240E+02  0.7561462E-02  0.1389055E+00
          3   -1    0    0  501    0  0.00000000000E+00  0.00000000000E+00  0.66308777987E+02  0.66308777987E+02  0.00000000000E+00 0. -1.
         -3   -1    0    0    0  501 -0.00000000000E+00 -0.00000000000E+00 -0.17892429360E+03  0.17892429360E+03  0.00000000000E+00 0.  1.
         23    2    1    2    0    0  0.84181392682E+01  0.14771715099E+02 -0.74502900987E+02  0.14658271379E+03  0.12508693414E+03 0.  0.
          5    1    3    3  502    0  0.26099670900E+02 -0.80919602028E+01 -0.10247859297E+03  0.10614144835E+03  0.41800000000E+01 0. -1.
         -5    1    3    3    0  502 -0.17681531632E+02  0.22863675301E+02  0.27975691979E+02  0.40441265446E+02  0.41800000000E+01 0. -1.
        -11    1    1    2    0    0  0.27731794344E+02  0.15479895006E+01  0.15618986306E+02  0.31865363991E+02  0.00000000000E+00 0. -1.
         11    1    1    2    0    0 -0.36149933613E+02 -0.16319704599E+02 -0.53731600933E+02  0.66784993802E+02  0.00000000000E+00 0.  1.
</event>
<event>
 7    1  0.8653652E-006  0.1344557E+03  0.7561462E-02  0.1220990E+00
          1   -1    0    0  501    0  0.00000000000E+00  0.00000000000E+00  0.35434509920E+03  0.35434509920E+03  0.00000000000E+00 0. -1.
         -1   -1    0    0    0  501 -0.00000000000E+00 -0.00000000000E+00 -0.84896180977E+02  0.84896180977E+02  0.00000000000E+00 0.  1.
         23    2    1    2    0    0 -0.12879686017E+03 -0.85326353516E+01  0.92043248086E+02  0.20194056002E+03  0.12508634301E+03 0.  0.
          5    1    3    3  502    0 -0.37803667731E+02  0.21450647188E+02 -0.25245381350E+02  0.50438568955E+02  0.41800000000E+01 0. -1.
         -5    1    3    3    0  502 -0.90993192436E+02 -0.29983282540E+02  0.11728862944E+03  0.15150199106E+03  0.41800000000E+01 0. -1.
        -11    1    1    2    0    0  0.38976792303E+02 -0.12522166653E+01  0.12906995821E+03  0.13483253501E+03  0.00000000000E+00 0. -1.
         11    1    1    2    0    0  0.89820067864E+02  0.97848520169E+01  0.48335711925E+02  0.10246818515E+03  0.00000000000E+00 0.  1.
</event>
<event>
 7    1  0.8653652E-006  0.2479287E+03  0.7561462E-02  0.1114621E+00
          2   -1    0    0  501    0  0.00000000000E+00  0.00000000000E+00  0.91575323223E+03  0.91575323223E+03  0.00000000000E+00 0. -1.
         -2   -1    0    0    0  501 -0.00000000000E+00 -0.00000000000E+00 -0.73334162891E+02  0.73334162891E+02  0.00000000000E+00 0.  1.
         23    2    1    2    0    0 -0.17323333165E+03 -0.15874063565E+03  0.44103593253E+03  0.51513951857E+03  0.12509057998E+03 0.  0.
          5    1    3    3  502    0 -0.16198296517E+03 -0.10979705744E+03  0.41403116197E+03  0.45796632006E+03  0.41800000000E+01 0.  1.
         -5    1    3    3    0  502 -0.11250366487E+02 -0.48943578210E+02  0.27004770563E+02  0.57173198505E+02  0.41800000000E+01 0.  1.
        -11    1    1    2    0    0  0.17920982176E+03  0.13264387126E+03  0.37553042656E+03  0.43673064705E+03  0.00000000000E+00 0. -1.
         11    1    1    2    0    0 -0.59764901043E+01  0.26096764386E+02  0.25852710250E+02  0.37217229514E+02  0.00000000000E+00 0.  1.
</event>
<event>
 7    1  0.8653652E-006  0.1239321E+03  0.7561462E-02  0.1236748E+00
         -1   -1    0    0    0  501 -0.00000000000E+00  0.00000000000E+00  0.58246265653E+02  0.58246265653E+02  0.00000000000E+00 0. -1.
          1   -1    0    0  501    0  0.00000000000E+00 -0.00000000000E+00 -0.36327201408E+03  0.36327201408E+03  0.00000000000E+00 0.  1.
         23    2    1    2    0    0 -0.33596124357E+01 -0.95807190443E+02 -0.15166480921E+03  0.21874198016E+03  0.12512207956E+03 0.  0.
          5    1    3    3  502    0  0.66514731384E+01 -0.12184339128E+03 -0.14537030076E+03  0.18984217349E+03  0.41800000000E+01 0. -1.
         -5    1    3    3    0  502 -0.10011085574E+02  0.26036200840E+02 -0.62945084513E+01  0.28899806664E+02  0.41800000000E+01 0. -1.
        -11    1    1    2    0    0 -0.69158291965E+01  0.22526768416E+02  0.83009615641E+01  0.24983793780E+02  0.00000000000E+00 0. -1.
         11    1    1    2    0    0  0.10275441632E+02  0.73280422027E+02 -0.16166190078E+03  0.17779250580E+03  0.00000000000E+00 0.  1.
</event>
<event>
 7    1  0.8653652E-006  0.2048822E+03  0.7561462E-02  0.1145684E+00
          2   -1    0    0  501    0  0.00000000000E+00  0.00000000000E+00  0.60316451148E+03  0.60316451148E+03  0.00000000000E+00 0. -1.
         -2   -1    0    0    0  501 -0.00000000000E+00 -0.00000000000E+00 -0.84110491002E+02  0.84110491002E+02  0.00000000000E+00 0.  1.
         23    2    1    2    0    0 -0.16572265250E+03  0.67113516050E+02  0.14164080717E+03  0.26015048416E+03  0.12509170461E+03 0.  0.
          5    1    3    3  502    0 -0.15599078501E+03  0.95422285628E+02  0.99293782452E+02  0.20812319725E+03  0.41800000000E+01 0.  1.
         -5    1    3    3    0  502 -0.97318674944E+01 -0.28308769578E+02  0.42347024720E+02  0.52027286904E+02  0.41800000000E+01 0.  1.
        -11    1    1    2    0    0  0.11664455586E+03 -0.40446671784E+01  0.26115038332E+03  0.28604516156E+03  0.00000000000E+00 0. -1.
         11    1    1    2    0    0  0.49078096641E+02 -0.63068848872E+02  0.11626282998E+03  0.14107935676E+03  0.00000000000E+00 0.  1.
</event>
<event>
 7    1  0.8653652E-006  0.1807039E+03  0.7561462E-02  0.1167124E+00
         -1   -1    0    0    0  501 -0.00000000000E+00  0.00000000000E+00  0.82326121480E+02  0.82326121480E+02  0.00000000000E+00 0.  1.
          1   -1    0    0  501    0  0.00000000000E+00 -0.00000000000E+00 -0.45432323902E+03  0.45432323902E+03  0.00000000000E+00 0. -1.
         23    2    1    2    0    0  0.13168029389E+03 -0.89512043051E+02 -0.17990813798E+03  0.27085993142E+03  0.12508420639E+03 0.  0.
          5    1    3    3  502    0  0.19106022378E+02  0.31262660024E+02 -0.26136403581E+02  0.45199314099E+02  0.41800000000E+01 0.  1.
         -5    1    3    3    0  502  0.11257427151E+03 -0.12077470307E+03 -0.15377173440E+03  0.22566061732E+03  0.41800000000E+01 0.  1.
        -11    1    1    2    0    0 -0.36919314807E+02  0.21389689137E+02 -0.12294489838E+03  0.13013839805E+03  0.00000000000E+00 0. -1.
         11    1    1    2    0    0 -0.94760979084E+02  0.68122353914E+02 -0.69144081180E+02  0.13565103104E+03  0.00000000000E+00 0.  1.
</event>
<event>
 7    1  0.8653652E-006  0.1349499E+03  0.7561462E-02  0.1220290E+00
          2   -1    0    0  501    0  0.00000000000E+00  0.00000000000E+00  0.24018070147E+03  0.24018070147E+03  0.00000000000E+00 0. -1.
         -2   -1    0    0    0  501 -0.00000000000E+00 -0.00000000000E+00 -0.85559406233E+02  0.85559406233E+02  0.00000000000E+00 0.  1.
         23    2    1    2    0    0  0.39863517151E+02 -0.77296503294E+02  0.43861348685E+02  0.15853400132E+03  0.12508142246E+03 0.  0.
          5    1    3    3  502    0 -0.38262358033E+02 -0.61402821386E+02  0.22703148295E+02  0.75942213945E+02  0.41800000000E+01 0.  1.
         -5    1    3    3    0  502  0.78125875183E+02 -0.15893681907E+02  0.21158200390E+02  0.82591787373E+02  0.41800000000E+01 0.  1.
        -11    1    1    2    0    0 -0.10379864296E+02  0.86179400938E+02  0.10438520117E+03  0.13576045430E+03  0.00000000000E+00 0. -1.
         11    1    1    2    0    0 -0.29483652854E+02 -0.88828976447E+01  0.63747453797E+01  0.31445652082E+02  0.00000000000E+00 0.  1.
</event>
<event>
 7    1  0.8653652E-006  0.1082906E+03  0.7561462E-02  0.1263768E+00
         -2   -1    0    0    0  501 -0.00000000000E+00  0.00000000000E+00  0.24083731931E+03  0.24083731931E+03  0.00000000000E+00 0.  1.
          2   -1    0    0  501    0  0.00000000000E+00 -0.00000000000E+00 -0.68419461630E+02  0.68419461630E+02  0.00000000000E+00 0. -1.
         23    2    1    2    0    0  0.57855234890E+01  0.74633067956E+02  0.13464003120E+03  0.19844164856E+03  0.12509029846E+03 0.  0.
          5    1    3    3  502    0 -0.40512294423E+02  0.68558132876E+02  0.12839934384E+03  0.15114670847E+03  0.41800000000E+01 0.  1.
         -5    1    3    3    0  502  0.46297817912E+02  0.60749350798E+01  0.62406873622E+01  0.47294940093E+02  0.41800000000E+01 0.  1.
        -11    1    1    2    0    0 -0.15010806278E+02 -0.25911901081E+00 -0.13351698440E+02  0.20091274201E+02  0.00000000000E+00 0. -1.
         11    1    1    2    0    0  0.92252827891E+01 -0.74373948945E+02  0.51129524920E+02  0.90723858178E+02  0.00000000000E+00 0.  1.
</event>
<event>
 7    1  0.8653652E-006  0.9532284E+02  0.7561462E-02  0.1290451E+00
         -4   -1    0    0    0  501 -0.00000000000E+00  0.00000000000E+00  0.91142281192E+02  0.91142281192E+02  0.00000000000E+00 0.  1.
          4   -1    0    0  501    0  0.00000000000E+00 -0.00000000000E+00 -0.11249891628E+03  0.11249891628E+03  0.00000000000E+00 0. -1.
         23    2    1    2    0    0  0.10623501583E+02 -0.19614036534E+01  0.48658747556E+00  0.12554750287E+03  0.12508090509E+03 0.  0.
          5    1    3    3  502    0  0.62817314154E+02 -0.55440815077E+01  0.24562786645E+02  0.67805270334E+02  0.41800000000E+01 0. -1.
         -5    1    3    3    0  502 -0.52193812571E+02  0.35826778543E+01 -0.24076199169E+02  0.57742232532E+02  0.41800000000E+01 0. -1.
        -11    1    1    2    0    0  0.31880021603E+02  0.53428727610E+01 -0.86669801598E+01  0.33466380322E+02  0.00000000000E+00 0. -1.
         11    1    1    2    0    0 -0.42503523186E+02 -0.33814691076E+01 -0.13176242406E+02  0.44627314287E+02  0.00000000000E+00 0.  1.
</event>
<event>
 7    1  0.8653652E-006  0.1187313E+03  0.7561462E-02  0.1245205E+00
         -1   -1    0    0    0  501 -0.00000000000E+00  0.00000000000E+00  0.37901881836E+02  0.37901881836E+02  0.00000000000E+00 0.  1.
          1   -1    0    0  501    0  0.00000000000E+00 -0.00000000000E+00 -0.58036811333E+03  0.58036811333E+03  0.00000000000E+00 0. -1.
         23    2    1    2    0    0  0.73069211195E+02 -0.69866054574E+02 -0.23018435496E+03  0.28080795677E+03  0.12509155091E+03 0.  0.
          5    1    3    3  502    0  0.37584355851E+02 -0.69566862125E+02 -0.42722580247E+02  0.89971236368E+02  0.41800000000E+01 0. -1.
         -5    1    3    3    0  502  0.35484855343E+02 -0.29919244954E+00 -0.18746177471E+03  0.19083672040E+03  0.41800000000E+01 0. -1.
        -11    1    1    2    0    0 -0.48768810037E+02  0.81986522699E+02 -0.27682700580E+03  0.29280262614E+03  0.00000000000E+00 0. -1.
         11    1    1    2    0    0 -0.24300401158E+02 -0.12120468125E+02 -0.35454870734E+02  0.44659412253E+02  0.00000000000E+00 0.  1.
</event>
<event>
 7    1  0.8653652E-006  0.8192105E+02  0.7561462E-02  0.1323686E+00
          2   -1    0    0  501    0  0.00000000000E+00  0.00000000000E+00  0.21753673534E+03  0.21753673534E+03  0.00000000000E+00 0.  1.
         -2   -1    0    0    0  501 -0.00000000000E+00 -0.00000000000E+00 -0.58617289924E+02  0.58617289924E+02  0.00000000000E+00 0. -1.
         23    2    1    2    0    0 -0.29349580748E+02 -0.79018368967E+01  0.83065624106E+02  0.15320081753E+03  0.12508699240E+03 0.  0.
          5    1    3    3  502    0 -0.78001612098E+02 -0.96259744685E+01  0.61058365847E+02  0.99611783009E+02  0.41800000000E+01 0. -1.
         -5    1    3    3    0  502  0.48652031350E+02  0.17241375718E+01  0.22007258259E+02  0.53589034521E+02  0.41800000000E+01 0. -1.
        -11    1    1    2    0    0  0.14088251898E+02  0.13981332461E+02  0.95387139504E+02  0.97430297555E+02  0.00000000000E+00 0.  1.
         11    1    1    2    0    0  0.15261328850E+02 -0.60794955647E+01 -0.19533318191E+02  0.25522910181E+02  0.00000000000E+00 0. -1.
</event>
<event>
 7    1  0.8653652E-006  0.1398346E+03  0.7561462E-02  0.1213552E+00
         -1   -1    0    0    0  501 -0.00000000000E+00  0.00000000000E+00  0.76408319080E+02  0.76408319080E+02  0.00000000000E+00 0.  1.
          1   -1    0    0  501    0  0.00000000000E+00 -0.00000000000E+00 -0.33729111295E+03  0.33729111295E+03  0.00000000000E+00 0. -1.
         23    2    1    2    0    0  0.67874533882E+02 -0.92652363887E+02 -0.99659115169E+02  0.19690408715E+03  0.12509143622E+03 0.  0.
          5    1    3    3  502    0  0.94108562522E+00 -0.82943307618E+02 -0.98885430668E+02  0.12913666683E+03  0.41800000000E+01 0.  1.
         -5    1    3    3    0  502  0.66933448257E+02 -0.97090562690E+01 -0.77368450166E+00  0.67767420321E+02  0.41800000000E+01 0.  1.
        -11    1    1    2    0    0  0.10731760209E+02  0.14153169133E+02 -0.72439490265E+02  0.74585270821E+02  0.00000000000E+00 0. -1.
         11    1    1    2    0    0 -0.78606294091E+02  0.78499194754E+02 -0.88784188432E+02  0.14221007406E+03  0.00000000000E+00 0.  1.
</event>
<event>
 7    1  0.8653652E-006  0.8690117E+02  0.7561462E-02  0.1310534E+00
          1   -1    0    0  501    0  0.00000000000E+00  0.00000000000E+00  0.62948530521E+03  0.62948530521E+03  0.00000000000E+00 0. -1.
         -1   -1    0    0    0  501 -0.00000000000E+00 -0.00000000000E+00 -0.19530134258E+02  0.19530134258E+02  0.00000000000E+00 0.  1.
         23    2    1    2    0    0 -0.12105972810E+02 -0.20318320141E+02  0.33193882625E+03  0.35551394409E+03  0.12508953339E+03 0.  0.
          5    1    3    3  502    0  0.41272827620E+02 -0.10709892984E+02  0.26871558292E+03  0.27210969298E+03  0.41800000000E+01 0. -1.
         -5    1    3    3    0  502 -0.53378800430E+02 -0.96084271562E+01  0.63223243323E+02  0.83404251115E+02  0.41800000000E+01 0. -1.
        -11    1    1    2    0    0 -0.21563115399E+02  0.33964493901E+02  0.58496185652E+02  0.70995482444E+02  0.00000000000E+00 0.  1.
         11    1    1    2    0    0  0.33669088210E+02 -0.13646173760E+02  0.21952015905E+03  0.22250601293E+03  0.00000000000E+00 0. -1.
</event>
<event>
 7    1  0.8653652E-006  0.1016508E+03  0.7561462E-02  0.1276862E+00
         -2   -1    0    0    0  501 -0.00000000000E+00  0.00000000000E+00  0.59312342841E+02  0.59312342841E+02  0.00000000000E+00 0. -1.
          2   -1    0    0  501    0  0.00000000000E+00 -0.00000000000E+00 -0.34381597747E+03  0.34381597747E+03  0.00000000000E+00 0.  1.
         23    2    1    2    0    0 -0.57204010724E+01 -0.91435120787E+02 -0.13838565465E+03  0.20782587928E+03  0.12509157599E+03 0.  0.
          5    1    3    3  502    0  0.11007961255E+02 -0.54634399185E+02  0.74959134634E+01  0.56389306645E+02  0.41800000000E+01 0. -1.
         -5    1    3    3    0  502 -0.16728362327E+02 -0.36800721603E+02 -0.14588156811E+03  0.15143657263E+03  0.41800000000E+01 0. -1.
        -11    1    1    2    0    0 -0.24384860025E+02  0.32922125286E+02 -0.11583204022E+03  0.12286394619E+03  0.00000000000E+00 0.  1.
         11    1    1    2    0    0  0.30105261098E+02  0.58512995501E+02 -0.30285939767E+02  0.72438494848E+02  0.00000000000E+00 0. -1.
</event>
<event>
 7    1  0.8653652E-006  0.1009303E+03  0.7561462E-02  0.1278352E+00
          2   -1    0    0  501    0  0.00000000000E+00  0.00000000000E+00  0.26304722920E+02  0.26304722920E+02  0.00000000000E+00 0.  1.
         -2   -1    0    0    0  501 -0.00000000000E+00 -0.00000000000E+00 -0.47068261875E+03  0.47068261875E+03  0.00000000000E+00 0. -1.
         23    2    1    2    0    0  0.63003563778E+01  0.14428380244E+02 -0.30455316823E+03  0.32961711014E+03  0.12508770669E+03 0.  0.
          5    1    3    3  502    0  0.18182944780E+02  0.60947723870E+02 -0.24420475320E+03  0.25238597111E+03  0.41800000000E+01 0.  1.
         -5    1    3    3    0  502 -0.11882588402E+02 -0.46519343626E+02 -0.60348415029E+02  0.77231139025E+02  0.41800000000E+01 0.  1.
        -11    1    1    2    0    0 -0.70142804916E+01  0.37420798237E+02 -0.42253720925E+02  0.56876121558E+02  0.00000000000E+00 0.  1.
         11    1    1    2    0    0  0.71392411386E+00 -0.51849178480E+02 -0.97571006675E+02  0.11049410998E+03  0.00000000000E+00 0. -1.
</event>
<event>
 7    1  0.8653652E-006  0.1766367E+03  0.7561462E-02  0.1171098E+00
         -2   -1    0    0    0  501 -0.00000000000E+00  0.00000000000E+00  0.64572948062E+02  0.64572948062E+02  0.00000000000E+00 0. -1.
          2   -1    0    0  501    0  0.00000000000E+00 -0.00000000000E+00 -0.59156357035E+03  0.59156357035E+03  0.00000000000E+00 0.  1.
         23    2    1    2    0    0  0.78975135766E+02 -0.11923456402E+03 -0.14827275195E+03  0.24100593468E+03  0.12508036719E+03 0.  0.
          5    1    3    3  502    0  0.18488731732E+02 -0.12192183602E+03 -0.12601419496E+03  0.17636274275E+03  0.41800000000E+01 0. -1.
         -5    1    3    3    0  502  0.60486404034E+02  0.26872720021E+01 -0.22258556983E+02  0.64643191928E+02  0.41800000000E+01 0. -1.
        -11    1    1    2    0    0 -0.71912735880E+02  0.13442114049E+03 -0.35204301959E+03  0.38363364325E+03  0.00000000000E+00 0.  1.
         11    1    1    2    0    0 -0.70623998859E+01 -0.15186576469E+02 -0.26674850745E+02  0.31496940474E+02  0.00000000000E+00 0. -1.
</event>
<event>
 7    1  0.8653652E-006  0.1187671E+03  0.7561462E-02  0.1245145E+00
          1   -1    0    0  501    0  0.00000000000E+00  0.00000000000E+00  0.57879366604E+02  0.57879366604E+02  0.00000000000E+00 0. -1.
         -1   -1    0    0    0  501 -0.00000000000E+00 -0.00000000000E+00 -0.38399593879E+03  0.38399593879E+03  0.00000000000E+00 0.  1.
         23    2    1    2    0    0 -0.24332742206E+02  0.69713637553E+02 -0.28247383361E+03  0.31763436597E+03  0.12509216669E+03 0.  0.
          5    1    3    3  502    0  0.26471209603E+02 -0.12849410076E+02 -0.15385762753E+02  0.33466795076E+02  0.41800000000E+01 0. -1.
         -5    1    3    3    0  502 -0.50803951809E+02  0.82563047629E+02 -0.26708807086E+03  0.28416757090E+03  0.41800000000E+01 0. -1.
        -11    1    1    2    0    0  0.52373098077E+02 -0.25073344507E+02 -0.41701791586E+02  0.71488834292E+02  0.00000000000E+00 0.  1.
         11    1    1    2    0    0 -0.28040355870E+02 -0.44640293046E+02 -0.19409469882E+01  0.52752105131E+02  0.00000000000E+00 0. -1.
</event>
<event>
 7    1  0.8653652E-006  0.9662964E+02  0.7561462E-02  0.1287547E+00
          1   -1    0    0  501    0  0.00000000000E+00  0.00000000000E+00  0.17056819402E+03  0.17056819402E+03  0.00000000000E+00 0. -1.
         -1   -1    0    0    0  501 -0.00000000000E+00 -0.00000000000E+00 -0.69786129750E+02  0.69786129750E+02  0.00000000000E+00 0.  1.
         23    2    1    2    0    0  0.86861893159E+01 -0.60210109592E+01  0.57758872946E+02  0.13818364326E+03  0.12508768685E+03 0.  0.
          5    1    3    3  502    0 -0.33649319758E+02  0.31280872720E+02 -0.12671856795E+02  0.47841593545E+02  0.41800000000E+01 0.  1.
         -5    1    3    3    0  502  0.42335509074E+02 -0.37301883679E+02  0.70430729741E+02  0.90342049713E+02  0.41800000000E+01 0.  1.
        -11    1    1    2    0    0  0.18395990839E+02  0.41803152468E+02  0.10819541158E+02  0.46935897841E+02  0.00000000000E+00 0. -1.
         11    1    1    2    0    0 -0.27082180155E+02 -0.35782141509E+02  0.32203650169E+02  0.55234782675E+02  0.00000000000E+00 0.  1.
</event>
<event>
 7    1  0.8653652E-006  0.1139095E+03  0.7561462E-02  0.1253497E+00
          2   -1    0    0  501    0  0.00000000000E+00  0.00000000000E+00  0.46756516854E+03  0.46756516854E+03  0.00000000000E+00 0. -1.
         -2   -1    0    0    0  501 -0.00000000000E+00 -0.00000000000E+00 -0.39617379138E+02  0.39617379138E+02  0.00000000000E+00 0.  1.
         23    2    1    2    0    0  0.62349259957E+02 -0.52227660969E+02  0.21411178895E+03  0.26097239476E+03  0.12509026289E+03 0.  0.
          5    1    3    3  502    0 -0.68690778578E+01 -0.37397576505E+02  0.31159203587E+01  0.38378956718E+02  0.41800000000E+01 0. -1.
         -5    1    3    3    0  502  0.69218337814E+02 -0.14830084464E+02  0.21099586859E+03  0.22259343804E+03  0.41800000000E+01 0. -1.
        -11    1    1    2    0    0 -0.64044299974E+02  0.73400789821E+02  0.14930460944E+03  0.17827286587E+03  0.00000000000E+00 0.  1.
         11    1    1    2    0    0  0.16950400179E+01 -0.21173128852E+02  0.64531391007E+02  0.67937287048E+02  0.00000000000E+00 0. -1.
</event>
<event>
 7    1  0.8653652E-006  0.1289856E+03  0.7561462E-02  0.1228969E+00
          1   -1    0    0  501    0  0.00000000000E+00  0.00000000000E+00  0.76364863645E+03  0.76364863645E+03  0.00000000000E+00 0. -1.
         -1   -1    0    0    0  501 -0.00000000000E+00 -0.00000000000E+00 -0.26629629705E+02  0.26629629705E+02  0.00000000000E+00 0.  1.
         23    2    1    2    0    0 -0.48713219951E+02  0.67687262818E+02  0.29452954304E+03  0.33068472343E+03  0.12510072438E+03 0.  0.
          5    1    3    3  502    0  0.17583208769E+02  0.67054052260E+02  0.79173250850E+02  0.10531519931E+03  0.41800000000E+01 0.  1.
         -5    1    3    3    0  502 -0.66296428720E+02  0.63321055801E+00  0.21535629219E+03  0.22536952412E+03  0.41800000000E+01 0.  1.
        -11    1    1    2    0    0  0.26455854499E+01 -0.75346561281E+02  0.23033042272E+03  0.24235553852E+03  0.00000000000E+00 0. -1.
         11    1    1    2    0    0  0.46067634501E+02  0.76592984625E+01  0.21215904098E+03  0.21723800420E+03  0.00000000000E+00 0.  1.
</event>
<event>
 7    1  0.8653652E-006  0.1090844E+03  0.7561462E-02  0.1262275E+00
          2   -1    0    0  501    0  0.00000000000E+00  0.00000000000E+00  0.28876045600E+03  0.28876045600E+03  0.00000000000E+00 0. -1.
         -2   -1    0    0    0  501 -0.00000000000E+00 -0.00000000000E+00 -0.58822129332E+02  0.58822129332E+02  0.00000000000E+00 0.  1.
         23    2    1    2    0    0 -0.48339580668E+02 -0.29981545725E+02  0.72570431759E+02  0.15539601183E+03  0.12508335135E+03 0.  0.
          5    1    3    3  502    0 -0.63456407149E+02 -0.57377689951E+02  0.85738277634E+02  0.12119174709E+03  0.41800000000E+01 0.  1.
         -5    1    3    3    0  502  0.15116826481E+02  0.27396144226E+02 -0.13167845875E+02  0.34204264738E+02  0.41800000000E+01 0.  1.
        -11    1    1    2    0    0 -0.20529754442E+02  0.24349011253E+02  0.17887147354E+02  0.36528005788E+02  0.00000000000E+00 0.  1.
         11    1    1    2    0    0  0.68869335110E+02  0.56325344726E+01  0.13948074755E+03  0.15565856771E+03  0.00000000000E+00 0. -1.
</event>
<event>
 7    1  0.8653652E-006  0.1250781E+03  0.7561462E-02  0.1234947E+00
         -2   -1    0    0    0  501 -0.00000000000E+00  0.00000000000E+00  0.15492567624E+03  0.15492567624E+03  0.00000000000E+00 0.  1.
          2   -1    0    0  501    0  0.00000000000E+00 -0.00000000000E+00 -0.16870213269E+03  0.16870213269E+03  0.00000000000E+00 0. -1.
         23    2    1    2    0    0 -0.28634746177E+02 -0.61608034880E+02  0.91389289487E+02  0.16915645375E+03  0.12508559054E+03 0.  0.
          5    1    3    3  502    0 -0.65955510595E+01 -0.95800528884E+02  0.41622440874E+02  0.10474322228E+03  0.41800000000E+01 0.  1.
         -5    1    3    3    0  502 -0.22039195118E+02  0.34192494004E+02  0.49766848614E+02  0.64413231471E+02  0.41800000000E+01 0.  1.
        -11    1    1    2    0    0  0.49211216010E+02  0.74188450594E+02 -0.82863011867E+02  0.12162215554E+03  0.00000000000E+00 0. -1.
         11    1    1    2    0    0 -0.20576469833E+02 -0.12580415713E+02 -0.22302734069E+02  0.32849199644E+02  0.00000000000E+00 0.  1.
</event>
<event>
 7    1  0.8653652E-006  0.1112432E+03  0.7561462E-02  0.1258285E+00
         -2   -1    0    0    0  501 -0.00000000000E+00  0.00000000000E+00  0.22498036364E+02  0.22498036364E+02  0.00000000000E+00 0.  1.
          2   -1    0    0  501    0  0.00000000000E+00 -0.00000000000E+00 -0.77601107648E+03  0.77601107648E+03  0.00000000000E+00 0. -1.
         23    2    1    2    0    0  0.12534470730E+02  0.74829182944E+02 -0.39000998521E+03  0.41654714785E+03  0.12508884141E+03 0.  0.
          5    1    3    3  502    0  0.49821783703E+02  0.91248104085E+01 -0.26952257647E+03  0.27427242647E+03  0.41800000000E+01 0. -1.
         -5    1    3    3    0  502 -0.37287312973E+02  0.65704372536E+02 -0.12048740874E+03  0.14227472138E+03  0.41800000000E+01 0. -1.
        -11    1    1    2    0    0 -0.49094333319E+01  0.98359265862E+01 -0.27544238828E+01  0.11332909528E+02  0.00000000000E+00 0.  1.
         11    1    1    2    0    0 -0.76250373985E+01 -0.84665109530E+02 -0.36074863102E+03  0.37062905546E+03  0.00000000000E+00 0. -1.
</event>
<event>
 7    1  0.8653652E-006  0.8199921E+02  0.7561462E-02  0.1323472E+00
         -3   -1    0    0    0  501 -0.00000000000E+00  0.00000000000E+00  0.73310406226E+02  0.73310406226E+02  0.00000000000E+00 0.  1.
          3   -1    0    0  501    0  0.00000000000E+00 -0.00000000000E+00 -0.19507178215E+03  0.19507178215E+03  0.00000000000E+00 0. -1.
         23    2    1    2    0    0  0.27603362330E+02 -0.17880817157E+02 -0.23321947897E+02  0.13142603865E+03  0.12508885301E+03 0.  0.
          5    1    3    3  502    0  0.30621264642E+02 -0.60917306390E+02  0.18942962749E+02  0.70886446545E+02  0.41800000000E+01 0.  1.
         -5    1    3    3    0  502 -0.30179023115E+01  0.43036489233E+02 -0.42264910646E+02  0.60539592101E+02  0.41800000000E+01 0.  1.
        -11    1    1    2    0    0 -0.10057939199E+02  0.29589510299E+02 -0.10898219486E+03  0.11337468878E+03  0.00000000000E+00 0. -1.
         11    1    1    2    0    0 -0.17545423132E+02 -0.11708693142E+02  0.10542766830E+02  0.23581460947E+02  0.00000000000E+00 0.  1.
</event>
<event>
 7    1  0.8653652E-006  0.1242170E+03  0.7561462E-02  0.1236298E+00
          2   -1    0    0  501    0  0.00000000000E+00  0.00000000000E+00  0.53980363663E+03  0.53980363663E+03  0.00000000000E+00 0. -1.
         -2   -1    0    0    0  501 -0.00000000000E+00 -0.00000000000E+00 -0.45542688934E+02  0.45542688934E+02  0.00000000000E+00 0.  1.
         23    2    1    2    0    0  0.39101216252E+01  0.10009345276E+03  0.16771890386E+03  0.23197088153E+03  0.12508745273E+03 0.  0.
          5    1    3    3  502    0  0.37534478938E+02  0.10056658545E+03  0.69190842217E+02  0.12777840296E+03  0.41800000000E+01 0. -1.
         -5    1    3    3    0  502 -0.33624357313E+02 -0.47313268563E+00  0.98528061641E+02  0.10419247857E+03  0.41800000000E+01 0. -1.
        -11    1    1    2    0    0  0.15923324334E+02 -0.63876961850E+02  0.29262836399E+03  0.29994195759E+03  0.00000000000E+00 0. -1.
         11    1    1    2    0    0 -0.19833445959E+02 -0.36216490911E+02  0.33913679856E+02  0.53433486447E+02  0.00000000000E+00 0.  1.
</event>
<event>
 7    1  0.8653652E-006  0.1095527E+03  0.7561462E-02  0.1261400E+00
         -2   -1    0    0    0  501 -0.00000000000E+00  0.00000000000E+00  0.27357122685E+02  0.27357122685E+02  0.00000000000E+00 0.  1.
          2   -1    0    0  501    0  0.00000000000E+00 -0.00000000000E+00 -0.53215998740E+03  0.53215998740E+03  0.00000000000E+00 0. -1.
         23    2    1    2    0    0  0.27992438802E+02  0.42140208125E+02 -0.24239439994E+03  0.27742000645E+03  0.12508973214E+03 0.  0.
          5    1    3    3  502    0 -0.41581135280E+02 -0.60639856050E+01 -0.40715553782E+02  0.58659964647E+02  0.41800000000E+01 0.  1.
         -5    1    3    3    0  502  0.69573574082E+02  0.48204193730E+02 -0.20167884616E+03  0.21876004181E+03  0.41800000000E+01 0.  1.
        -11    1    1    2    0    0 -0.30740368041E+02  0.15499982586E+02 -0.16766891262E+03  0.17116683074E+03  0.00000000000E+00 0. -1.
         11    1    1    2    0    0  0.27479292383E+01 -0.57640190711E+02 -0.94739552152E+02  0.11093027288E+03  0.00000000000E+00 0.  1.
</event>
<event>
 7    1  0.8653652E-006  0.1697468E+03  0.7561462E-02  0.1178112E+00
          1   -1    0    0  501    0  0.00000000000E+00  0.00000000000E+00  0.38097615255E+03  0.38097615255E+03  0.00000000000E+00 0. -1.
         -1   -1    0    0    0  501 -0.00000000000E+00 -0.00000000000E+00 -0.10004449717E+03  0.10004449717E+03  0.00000000000E+00 0.  1.
         23    2    1    2    0    0  0.11005749702E+03  0.11914777197E+03  0.12207560793E+03  0.23844581556E+03  0.12508040891E+03 0.  0.
          5    1    3    3  502    0  0.16149928158E+02  0.20505527660E+02  0.96182434130E+02  0.99748833975E+02  0.41800000000E+01 0.  1.
         -5    1    3    3    0  502  0.93907568861E+02  0.98642244314E+02  0.25893173800E+02  0.13869698159E+03  0.41800000000E+01 0.  1.
        -11    1    1    2    0    0 -0.11954768003E+03 -0.10176442208E+03  0.11548552976E+03  0.19489626211E+03  0.00000000000E+00 0.  1.
         11    1    1    2    0    0  0.94901830075E+01 -0.17383349889E+02  0.43370517696E+02  0.47678572043E+02  0.00000000000E+00 0. -1.
</event>
<event>
 7    1  0.8653652E-006  0.1014684E+03  0.7561462E-02  0.1277238E+00
         -2   -1    0    0    0  501 -0.00000000000E+00  0.00000000000E+00  0.87847400141E+02  0.87847400141E+02  0.00000000000E+00 0.  1.
          2   -1    0    0  501    0  0.00000000000E+00 -0.00000000000E+00 -0.28457785556E+03  0.28457785556E+03  0.00000000000E+00 0. -1.
         23    2    1    2    0    0 -0.19084603895E+02  0.86027909506E+02 -0.19904115071E+02  0.15430156763E+03  0.12509107345E+03 0.  0.
          5    1    3    3  502    0 -0.78475612316E+01  0.65034300978E+02 -0.71659420796E+02  0.97178132879E+02  0.41800000000E+01 0.  1.
         -5    1    3    3    0  502 -0.11237042664E+02  0.20993608528E+02  0.51755305726E+02  0.57123434750E+02  0.41800000000E+01 0.  1.
        -11    1    1    2    0    0 -0.26896766242E+02 -0.38760287094E+02 -0.26834559181E+02  0.54276048643E+02  0.00000000000E+00 0.  1.
         11    1    1    2    0    0  0.45981370138E+02 -0.47267622412E+02 -0.14999178117E+03  0.16384763943E+03  0.00000000000E+00 0. -1.
</event>
<event>
 7    1  0.8653652E-006  0.3079594E+03  0.7561462E-02  0.1081328E+00
         -2   -1    0    0    0  501 -0.00000000000E+00  0.00000000000E+00  0.10752317747E+04  0.10752317747E+04  0.00000000000E+00 0. -1.
          2   -1    0    0  501    0  0.00000000000E+00 -0.00000000000E+00 -0.12507449924E+03  0.12507449924E+03  0.00000000000E+00 0.  1.
         23    2    1    2    0    0 -0.29451565328E+03  0.86068654769E+02  0.75770684735E+03  0.82699207717E+03  0.12509574663E+03 0.  0.
          5    1    3    3  502    0 -0.12389859407E+03  0.54638125392E+02  0.48654178228E+03  0.50505105154E+03  0.41800000000E+01 0.  1.
         -5    1    3    3    0  502 -0.17061705921E+03  0.31430529377E+02  0.27116506507E+03  0.32194102563E+03  0.41800000000E+01 0.  1.
        -11    1    1    2    0    0  0.11501083847E+03 -0.30271029305E+02  0.12768838285E+03  0.17449398642E+03  0.00000000000E+00 0. -1.
         11    1    1    2    0    0  0.17950481480E+03 -0.55797625464E+02  0.64762045277E+02  0.19882021038E+03  0.00000000000E+00 0.  1.
</event>
<event>
 7    1  0.8653652E-006  0.1286505E+03  0.7561462E-02  0.1229472E+00
         -3   -1    0    0    0  501 -0.00000000000E+00  0.00000000000E+00  0.43410455417E+02  0.43410455417E+02  0.00000000000E+00 0.  1.
          3   -1    0    0  501    0  0.00000000000E+00 -0.00000000000E+00 -0.54862079568E+03  0.54862079568E+03  0.00000000000E+00 0. -1.
         23    2    1    2    0    0  0.38543034596E+02  0.10742025579E+03 -0.23462006395E+03  0.28358013296E+03  0.11111453790E+03 0.  0.
          5    1    3    3  502    0  0.30360813511E+02  0.10871482257E+03 -0.10688162166E+03  0.15550512883E+03  0.41800000000E+01 0. -1.
         -5    1    3    3    0  502  0.81822210842E+01 -0.12945667806E+01 -0.12773844229E+03  0.12807500413E+03  0.41800000000E+01 0.  1.
        -11    1    1    2    0    0  0.15700814977E+02 -0.11335335720E+01 -0.94091967163E+02  0.95399679108E+02  0.00000000000E+00 0. -1.
         11    1    1    2    0    0 -0.54243849573E+02 -0.10628672222E+03 -0.17649830916E+03  0.21305143903E+03  0.00000000000E+00 0.  1.
</event>
<event>
 7    1  0.8653652E-006  0.7759832E+02  0.7561462E-02  0.1336009E+00
          1   -1    0    0  501    0  0.00000000000E+00  0.00000000000E+00  0.38563871868E+03  0.38563871868E+03  0.00000000000E+00 0. -1.
         -1   -1    0    0    0  501 -0.00000000000E+00 -0.00000000000E+00 -0.35149106185E+02  0.35149106185E+02  0.00000000000E+00 0.  1.
         23    2    1    2    0    0  0.36112283647E+02  0.11884763964E+02  0.18616312356E+03  0.22748292922E+03  0.12508569010E+03 0.  0.
          5    1    3    3  502    0 -0.41117410874E+01 -0.29004547647E+02  0.16270307764E+03  0.16537210790E+03  0.41800000000E+01 0.  1.
         -5    1    3    3    0  502  0.40224024735E+02  0.40889311610E+02  0.23460045918E+02  0.62110821314E+02  0.41800000000E+01 0.  1.
        -11    1    1    2    0    0 -0.20432655004E+02  0.22446273959E+02  0.65172954064E+01  0.31045188750E+02  0.00000000000E+00 0.  1.
         11    1    1    2    0    0 -0.15679628644E+02 -0.34331037922E+02  0.15780919353E+03  0.16225970689E+03  0.00000000000E+00 0. -1.
</event>
<event>
 7    1  0.8653652E-006  0.1154175E+03  0.7561462E-02  0.1250854E+00
          2   -1    0    0  501    0  0.00000000000E+00  0.00000000000E+00  0.25334367532E+03  0.25334367532E+03  0.00000000000E+00 0. -1.
         -2   -1    0    0    0  501 -0.00000000000E+00 -0.00000000000E+00 -0.86599381293E+02  0.86599381293E+02  0.00000000000E+00 0.  1.
         23    2    1    2    0    0 -0.63142277275E+02  0.73552070973E+02  0.57157066168E+02  0.16825302398E+03  0.12508115582E+03 0.  0.
          5    1    3    3  502    0 -0.61258384234E+02  0.51952459893E+02 -0.24168178104E+02  0.83983456470E+02  0.41800000000E+01 0.  1.
         -5    1    3    3    0  502 -0.18838930409E+01  0.21599611081E+02  0.81325244272E+02  0.84269567507E+02  0.41800000000E+01 0.  1.
        -11    1    1    2    0    0 -0.20920271560E+02 -0.17637675126E+02  0.42240414170E+02  0.50328897617E+02  0.00000000000E+00 0. -1.
         11    1    1    2    0    0  0.84062548835E+02 -0.55914395847E+02  0.67346813691E+02  0.12136113502E+03  0.00000000000E+00 0.  1.
</event>
<event>
 7    1  0.8653652E-006  0.1057929E+03  0.7561462E-02  0.1268565E+00
          2   -1    0    0  501    0  0.00000000000E+00  0.00000000000E+00  0.34858051308E+03  0.34858051308E+03  0.00000000000E+00 0. -1.
         -2   -1    0    0    0  501 -0.00000000000E+00 -0.00000000000E+00 -0.37738520743E+02  0.37738520743E+02  0.00000000000E+00 0.  1.
         23    2    1    2    0    0  0.39575799409E+02 -0.86555796701E-01  0.14262889725E+03  0.19169338749E+03  0.12180763969E+03 0.  0.
          5    1    3    3  502    0  0.55121300876E+02 -0.41600193970E+02  0.12678527262E+03  0.14443306998E+03  0.41800000000E+01 0. -1.
         -5    1    3    3    0  502 -0.15545501467E+02  0.41513638173E+02  0.15843624626E+02  0.47260317514E+02  0.41800000000E+01 0.  1.
        -11    1    1    2    0    0 -0.24183374244E+02  0.44623230548E+02  0.85322588637E+02  0.99277451751E+02  0.00000000000E+00 0.  1.
         11    1    1    2    0    0 -0.15392425165E+02 -0.44536674752E+02  0.82890506454E+02  0.95348194585E+02  0.00000000000E+00 0. -1.
</event>
<event>
 7    1  0.1402072E-005  0.1750774E+03  0.7561462E-02  0.1172654E+00
         -2   -1    0    0    0  501 -0.00000000000E+00  0.00000000000E+00  0.19331375463E+02  0.19331375463E+02  0.00000000000E+00 0.  1.
          2   -1    0    0  501    0  0.00000000000E+00 -0.00000000000E+00 -0.16782958941E+04  0.16782958941E+04  0.00000000000E+00 0. -1.
         23    2    1    2    0    0  0.33696722845E+01  0.14145839265E+03 -0.85604608494E+03  0.87663256966E+03  0.12509169079E+03 0.  0.
          5    1    3    3  502    0 -0.23769745587E+02  0.15035135321E+03 -0.60235160741E+03  0.62130142569E+03  0.41800000000E+01 0.  1.
         -5    1    3    3    0  502  0.27139417872E+02 -0.88929605672E+01 -0.25369447753E+03  0.25533114397E+03  0.41800000000E+01 0.  1.
        -11    1    1    2    0    0  0.44043459418E+02 -0.80810929133E+02 -0.36924956474E+03  0.38054628318E+03  0.00000000000E+00 0.  1.
         11    1    1    2    0    0 -0.47413131702E+02 -0.60647463514E+02 -0.43366886900E+03  0.44044841676E+03  0.00000000000E+00 0. -1.
</event>
<event>
 7    1  0.8653652E-006  0.1009249E+03  0.7561462E-02  0.1278363E+00
         -2   -1    0    0    0  501 -0.00000000000E+00  0.00000000000E+00  0.34093788010E+03  0.34093788010E+03  0.00000000000E+00 0.  1.
          2   -1    0    0  501    0  0.00000000000E+00 -0.00000000000E+00 -0.49412177609E+02  0.49412177609E+02  0.00000000000E+00 0. -1.
         23    2    1    2    0    0  0.28292827283E+02 -0.55736547250E+02  0.21236031605E+03  0.25426538570E+03  0.12508771224E+03 0.  0.
          5    1    3    3  502    0 -0.44781871217E+02 -0.35697405313E+02  0.54762145137E+02  0.79347877576E+02  0.41800000000E+01 0. -1.
         -5    1    3    3    0  502  0.73074698500E+02 -0.20039141937E+02  0.15759817092E+03  0.17491750812E+03  0.41800000000E+01 0. -1.
        -11    1    1    2    0    0 -0.32176057743E+02  0.35403810230E+02  0.97389416579E+02  0.10850542352E+03  0.00000000000E+00 0.  1.
         11    1    1    2    0    0  0.38832304602E+01  0.20332737020E+02 -0.18224030137E+02  0.27579248502E+02  0.00000000000E+00 0. -1.
</event>
<event>
 7    1  0.8653652E-006  0.1136169E+03  0.7561462E-02  0.1254015E+00
          2   -1    0    0  501    0  0.00000000000E+00  0.00000000000E+00  0.41643569805E+03  0.41643569805E+03  0.00000000000E+00 0.  1.
         -2   -1    0    0    0  501 -0.00000000000E+00 -0.00000000000E+00 -0.55332571812E+02  0.55332571812E+02  0.00000000000E+00 0. -1.
         23    2    1    2    0    0  0.43719021227E+02  0.14230408141E+02  0.46868962321E+02  0.14128075807E+03  0.12509874355E+03 0.  0.
          5    1    3    3  502    0 -0.11524835038E+02 -0.48013260508E+02  0.12237589834E+02  0.51042394264E+02  0.41800000000E+01 0.  1.
         -5    1    3    3    0  502  0.55243856265E+02  0.62243668649E+02  0.34631372487E+02  0.90238363805E+02  0.41800000000E+01 0.  1.
        -11    1    1    2    0    0  0.19108749703E+02 -0.24096850757E+02  0.49945665262E+02  0.58654684468E+02  0.00000000000E+00 0. -1.
         11    1    1    2    0    0 -0.62827770930E+02  0.98664426156E+01  0.26428849866E+03  0.27183282733E+03  0.00000000000E+00 0.  1.
</event>
<event>
 7    1  0.8653652E-006  0.1218025E+03  0.7561462E-02  0.1240153E+00
         -3   -1    0    0    0  501 -0.00000000000E+00  0.00000000000E+00  0.52491728982E+02  0.52491728982E+02  0.00000000000E+00 0.  1.
          3   -1    0    0  501    0  0.00000000000E+00 -0.00000000000E+00 -0.35121074954E+03  0.35121074954E+03  0.00000000000E+00 0. -1.
         23    2    1    2    0    0  0.16841257535E+02 -0.83252957404E+02 -0.16674899708E+03  0.22508450240E+03  0.12507246828E+03 0.  0.
          5    1    3    3  502    0 -0.12021877223E+02 -0.10855576406E+03 -0.14211489909E+03  0.17928467973E+03  0.41800000000E+01 0.  1.
         -5    1    3    3    0  502  0.28863134758E+02  0.25302806656E+02 -0.24634097981E+02  0.45799822664E+02  0.41800000000E+01 0.  1.
        -11    1    1    2    0    0  0.12256759684E+02  0.50127278655E+02 -0.12332673056E+03  0.13368790033E+03  0.00000000000E+00 0. -1.
         11    1    1    2    0    0 -0.29098017219E+02  0.33125678750E+02 -0.86432929244E+01  0.44930075799E+02  0.00000000000E+00 0.  1.
</event>
<event>
 7    1  0.8653652E-006  0.7418774E+02  0.7561462E-02  0.1346405E+00
         -3   -1    0    0    0  501 -0.00000000000E+00  0.00000000000E+00  0.90120497655E+03  0.90120497655E+03  0.00000000000E+00 0.  1.
          3   -1    0    0  501    0  0.00000000000E+00 -0.00000000000E+00 -0.15920500605E+02  0.15920500605E+02  0.00000000000E+00 0. -1.
         23    2    1    2    0    0  0.23130692899E+02  0.17773229734E+02  0.65995117503E+03  0.67233425577E+03  0.12508749501E+03 0.  0.
          5    1    3    3  502    0 -0.14703790892E+02 -0.90852524994E+01  0.57638929403E+03  0.57666353618E+03  0.41800000000E+01 0. -1.
         -5    1    3    3    0  502  0.37834483791E+02  0.26858482234E+02  0.83561881000E+02  0.95670719595E+02  0.41800000000E+01 0. -1.
        -11    1    1    2    0    0  0.18396908310E+02  0.20491212482E+02  0.26962638187E+02  0.38539847981E+02  0.00000000000E+00 0. -1.
         11    1    1    2    0    0 -0.41527601209E+02 -0.38264442217E+02  0.19837066273E+03  0.20625137341E+03  0.00000000000E+00 0.  1.
</event>
<event>
 7    1  0.8653652E-006  0.1266256E+03  0.7561462E-02  0.1232550E+00
         -4   -1    0    0    0  501 -0.00000000000E+00  0.00000000000E+00  0.19973474527E+03  0.19973474527E+03  0.00000000000E+00 0. -1.
          4   -1    0    0  501    0  0.00000000000E+00 -0.00000000000E+00 -0.82670765245E+02  0.82670765245E+02  0.00000000000E+00 0.  1.
         23    2    1    2    0    0 -0.55659161830E+02 -0.34918775726E+02  0.77470791948E+02  0.16115305571E+03  0.12510523796E+03 0.  0.
          5    1    3    3  502    0  0.29449438679E+02 -0.44827737736E+02  0.42305345716E+02  0.68439828939E+02  0.41800000000E+01 0. -1.
         -5    1    3    3    0  502 -0.85108600509E+02  0.99089620097E+01  0.35165446233E+02  0.92713226767E+02  0.41800000000E+01 0. -1.
        -11    1    1    2    0    0  0.39982084490E+01 -0.30245946589E+02  0.38985558801E+01  0.30757140534E+02  0.00000000000E+00 0.  1.
         11    1    1    2    0    0  0.51660953381E+02  0.65164722316E+02  0.35694632199E+02  0.90495314280E+02  0.00000000000E+00 0. -1.
</event>
<event>
 7    1  0.8653652E-006  0.1492509E+03  0.7561462E-02  0.1201397E+00
          1   -1    0    0  501    0  0.00000000000E+00  0.00000000000E+00  0.35609921482E+03  0.35609921482E+03  0.00000000000E+00 0. -1.
         -1   -1    0    0    0  501 -0.00000000000E+00 -0.00000000000E+00 -0.11085433337E+03  0.11085433337E+03  0.00000000000E+00 0.  1.
         23    2    1    2    0    0 -0.14458826392E+03  0.23229931118E+02  0.37919027168E+02  0.19629369585E+03  0.12509183286E+03 0.  0.
          5    1    3    3  502    0 -0.19921796605E+02  0.11074548030E+02 -0.41776565924E+02  0.47773187610E+02  0.41800000000E+01 0. -1.
         -5    1    3    3    0  502 -0.12466646731E+03  0.12155383088E+02  0.79695593092E+02  0.14852050824E+03  0.41800000000E+01 0. -1.
        -11    1    1    2    0    0  0.10680690349E+03 -0.31439905903E+02  0.20329575118E+03  0.23178728344E+03  0.00000000000E+00 0. -1.
         11    1    1    2    0    0  0.37781360427E+02  0.82099747849E+01  0.40301031033E+01  0.38872568897E+02  0.00000000000E+00 0.  1.
</event>
<event>
 7    1  0.8653652E-006  0.1265103E+03  0.7561462E-02  0.1232728E+00
          3   -1    0    0  501    0  0.00000000000E+00  0.00000000000E+00  0.10831599463E+03  0.10831599463E+03  0.00000000000E+00 0. -1.
         -3   -1    0    0    0  501 -0.00000000000E+00 -0.00000000000E+00 -0.16362139782E+03  0.16362139782E+03  0.00000000000E+00 0.  1.
         23    2    1    2    0    0  0.14656850065E+02  0.69034433712E+02 -0.58003877232E+02  0.15489611165E+03  0.12509108417E+03 0.  0.
          5    1    3    3  502    0  0.35465616420E+02  0.99815464663E+02 -0.39028164419E+02  0.11296728266E+03  0.41800000000E+01 0.  1.
         -5    1    3    3    0  502 -0.20808766355E+02 -0.30781030951E+02 -0.18975712814E+02  0.41928828989E+02  0.41800000000E+01 0.  1.
        -11    1    1    2    0    0 -0.49492458718E+02 -0.47892381787E+02 -0.18214781415E+02  0.71238767291E+02  0.00000000000E+00 0.  1.
         11    1    1    2    0    0  0.34835608653E+02 -0.21142051925E+02  0.20913255455E+02  0.45802513507E+02  0.00000000000E+00 0. -1.
</event>
<event>
 7    1  0.8653652E-006  0.4585089E+03  0.7561462E-02  0.1025215E+00
          2   -1    0    0  501    0  0.00000000000E+00  0.00000000000E+00  0.64696726647E+03  0.64696726647E+03  0.00000000000E+00 0. -1.
         -2   -1    0    0    0  501 -0.00000000000E+00 -0.00000000000E+00 -0.34519977320E+03  0.34519977320E+03  0.00000000000E+00 0.  1.
         23    2    1    2    0    0 -0.16352049114E+03 -0.42223562411E+03  0.23600099319E+03  0.52570628606E+03  0.12509499239E+03 0.  0.
          5    1    3    3  502    0 -0.76614003124E+02 -0.29875848158E+03  0.20812863285E+03  0.37210393173E+03  0.41800000000E+01 0. -1.
         -5    1    3    3    0  502 -0.86906488011E+02 -0.12347714253E+03  0.27872360342E+02  0.15360235433E+03  0.41800000000E+01 0. -1.
        -11    1    1    2    0    0  0.16161556068E+02  0.12196659526E+03 -0.10228907105E+02  0.12345718608E+03  0.00000000000E+00 0.  1.
         11    1    1    2    0    0  0.14735893507E+03  0.30026902885E+03  0.75995407180E+02  0.34300356754E+03  0.00000000000E+00 0. -1.
</event>
<event>
 7    1  0.8653652E-006  0.9427838E+02  0.7561462E-02  0.1292810E+00
         -1   -1    0    0    0  501 -0.00000000000E+00  0.00000000000E+00  0.50597598732E+03  0.50597598732E+03  0.00000000000E+00 0.  1.
          1   -1    0    0  501    0  0.00000000000E+00 -0.00000000000E+00 -0.24614228949E+02  0.24614228949E+02  0.00000000000E+00 0. -1.
         23    2    1    2    0    0  0.13076399537E+02  0.29659850087E+02  0.31419231697E+03  0.33756744182E+03  0.11909771957E+03 0.  0.
          5    1    3    3  502    0 -0.84205076042E+01  0.56902895575E+02  0.69149805478E+02  0.90044502724E+02  0.41800000000E+01 0. -1.
         -5    1    3    3    0  502  0.21496907141E+02 -0.27243045487E+02  0.24504251149E+03  0.24752293910E+03  0.41800000000E+01 0.  1.
        -11    1    1    2    0    0 -0.52129164502E+02 -0.18467768798E+02  0.10658460531E+03  0.12007825100E+03  0.00000000000E+00 0.  1.
         11    1    1    2    0    0  0.39052764965E+02 -0.11192081289E+02  0.60584836096E+02  0.72944523439E+02  0.00000000000E+00 0. -1.
</event>
<event>
 7    1  0.8653652E-006  0.1320619E+03  0.7561462E-02  0.1224428E+00
          3   -1    0    0  501    0  0.00000000000E+00  0.00000000000E+00  0.27216149611E+02  0.27216149611E+02  0.00000000000E+00 0. -1.
         -3   -1    0    0    0  501 -0.00000000000E+00 -0.00000000000E+00 -0.73620798403E+03  0.73620798403E+03  0.00000000000E+00 0.  1.
         23    2    1    2    0    0  0.41179673906E+02 -0.80107569344E+02 -0.39181087180E+03  0.42104456061E+03  0.12509905895E+03 0.  0.
          5    1    3    3  502    0  0.84147314450E+02 -0.70431180682E+02 -0.28596188180E+03  0.30632171321E+03  0.41800000000E+01 0.  1.
         -5    1    3    3    0  502 -0.42967640544E+02 -0.96763886622E+01 -0.10584899000E+03  0.11472284740E+03  0.41800000000E+01 0.  1.
        -11    1    1    2    0    0  0.10136465025E+01  0.65368125854E+02 -0.26828252601E+03  0.27613318005E+03  0.00000000000E+00 0.  1.
         11    1    1    2    0    0 -0.42193320408E+02  0.14739443490E+02 -0.48898436604E+02  0.66246392987E+02  0.00000000000E+00 0. -1.
</event>
<event>
 7    1  0.8653652E-006  0.1204525E+03  0.7561462E-02  0.1242352E+00
         -1   -1    0    0    0  501 -0.00000000000E+00  0.00000000000E+00  0.15889048898E+03  0.15889048898E+03  0.00000000000E+00 0.  1.
          1   -1    0    0  501    0  0.00000000000E+00 -0.00000000000E+00 -0.13963632683E+03  0.13963632683E+03  0.00000000000E+00 0. -1.
         23    2    1    2    0    0 -0.92945370398E+02 -0.24953896751E+02  0.45617348534E+02  0.16426500131E+03  0.12506202192E+03 0.  0.
          5    1    3    3  502    0 -0.14817571320E+02 -0.27541142728E+02 -0.38220389887E+02  0.49561533125E+02  0.41800000000E+01 0. -1.
         -5    1    3    3    0  502 -0.78127799078E+02  0.25872459775E+01  0.83837738421E+02  0.11470346819E+03  0.41800000000E+01 0. -1.
        -11    1    1    2    0    0  0.85695631207E+01 -0.29452933553E+02 -0.11559734842E+02  0.32780179630E+02  0.00000000000E+00 0. -1.
         11    1    1    2    0    0  0.84375807277E+02  0.54406830304E+02 -0.14803451542E+02  0.10148163487E+03  0.00000000000E+00 0.  1.
</event>
<event>
 7    1  0.8653652E-006  0.1689671E+03  0.7561462E-02  0.1178929E+00
          4   -1    0    0  501    0  0.00000000000E+00  0.00000000000E+00  0.72790863363E+03  0.72790863363E+03  0.00000000000E+00 0. -1.
         -4   -1    0    0    0  501 -0.00000000000E+00 -0.00000000000E+00 -0.47484474969E+02  0.47484474969E+02  0.00000000000E+00 0.  1.
         23    2    1    2    0    0  0.13115425525E+03 -0.73880439110E+02  0.41410475906E+03  0.45802814179E+03  0.12508904527E+03 0.  0.
          5    1    3    3  502    0  0.11023752593E+03 -0.18874422989E+02  0.36337330286E+03  0.38021860239E+03  0.41800000000E+01 0. -1.
         -5    1    3    3    0  502  0.20916729323E+02 -0.55006016121E+02  0.50731456192E+02  0.77809539405E+02  0.41800000000E+01 0. -1.
        -11    1    1    2    0    0 -0.10142827421E+03  0.17007167556E+02  0.12297588183E+03  0.16031221435E+03  0.00000000000E+00 0.  1.
         11    1    1    2    0    0 -0.29725981036E+02  0.56873271555E+02  0.14334351777E+03  0.15705275245E+03  0.00000000000E+00 0. -1.
</event>
<event>
 7    1  0.8653652E-006  0.1125550E+03  0.7561462E-02  0.1255910E+00
         -3   -1    0    0    0  501 -0.00000000000E+00  0.00000000000E+00  0.11994392541E+03  0.11994392541E+03  0.00000000000E+00 0.  1.
          3   -1    0    0  501    0  0.00000000000E+00 -0.00000000000E+00 -0.23157607775E+03  0.23157607775E+03  0.00000000000E+00 0. -1.
         23    2    1    2    0    0  0.20632364021E+02 -0.79864112137E+02  0.41434719519E+02  0.15545184636E+03  0.12507785456E+03 0.  0.
          5    1    3    3  502    0  0.35184941518E+02 -0.71534039279E+01 -0.33975877677E+02  0.49608305366E+02  0.41800000000E+01 0. -1.
         -5    1    3    3    0  502 -0.14552577497E+02 -0.72710708209E+02  0.75410597196E+02  0.10584354099E+03  0.41800000000E+01 0. -1.
        -11    1    1    2    0    0 -0.21805704415E+02 -0.10582582135E+02 -0.66843834805E+02  0.71102588146E+02  0.00000000000E+00 0.  1.
         11    1    1    2    0    0  0.11733403940E+01  0.90446694272E+02 -0.86223037051E+02  0.12496556866E+03  0.00000000000E+00 0. -1.
</event>
<event>
 7    1  0.8653652E-006  0.2486192E+03  0.7561462E-02  0.1114181E+00
         -1   -1    0    0    0  501 -0.00000000000E+00  0.00000000000E+00  0.13207659436E+03  0.13207659436E+03  0.00000000000E+00 0.  1.
          1   -1    0    0  501    0  0.00000000000E+00 -0.00000000000E+00 -0.51770405090E+03  0.51770405090E+03  0.00000000000E+00 0. -1.
         23    2    1    2    0    0  0.21640204684E+03 -0.98524807012E+02 -0.19371052443E+03  0.33123800817E+03  0.12513140017E+03 0.  0.
          5    1    3    3  502    0  0.16367946895E+03 -0.10522344824E+03 -0.89580359475E+02  0.21425465181E+03  0.41800000000E+01 0.  1.
         -5    1    3    3    0  502  0.52722577890E+02  0.66986412302E+01 -0.10413016495E+03  0.11698335636E+03  0.41800000000E+01 0.  1.
        -11    1    1    2    0    0 -0.66460785306E+02  0.70266054046E+02 -0.44802957460E+02  0.10659108467E+03  0.00000000000E+00 0.  1.
         11    1    1    2    0    0 -0.14994126154E+03  0.28258752967E+02 -0.14711397465E+03  0.21195155241E+03  0.00000000000E+00 0. -1.
</event>
<event>
 7    1  0.8653652E-006  0.1250325E+03  0.7561462E-02  0.1235019E+00
          2   -1    0    0  501    0  0.00000000000E+00  0.00000000000E+00  0.20804798221E+03  0.20804798221E+03  0.00000000000E+00 0. -1.
         -2   -1    0    0    0  501 -0.00000000000E+00 -0.00000000000E+00 -0.79200993887E+02  0.79200993887E+02  0.00000000000E+00 0.  1.
         23    2    1    2    0    0  0.56321845301E+02  0.37332759782E+02  0.74534505529E+02  0.16052576926E+03  0.12508894784E+03 0.  0.
          5    1    3    3  502    0 -0.32989062929E+02 -0.11600353804E+02  0.17112624536E+01  0.35259712144E+02  0.41800000000E+01 0.  1.
         -5    1    3    3    0  502  0.89310908229E+02  0.48933113586E+02  0.72823243075E+02  0.12526605712E+03  0.41800000000E+01 0.  1.
        -11    1    1    2    0    0 -0.26460875703E+02 -0.66260329374E+02  0.24021744203E+02  0.75283818887E+02  0.00000000000E+00 0. -1.
         11    1    1    2    0    0 -0.29860969598E+02  0.28927569592E+02  0.30290738586E+02  0.51439387943E+02  0.00000000000E+00 0.  1.
</event>
<event>
 7    1  0.8653652E-006  0.1296064E+03  0.7561462E-02  0.1228041E+00
         -2   -1    0    0    0  501 -0.00000000000E+00  0.00000000000E+00  0.60658946398E+03  0.60658946398E+03  0.00000000000E+00 0. -1.
          2   -1    0    0  501    0  0.00000000000E+00 -0.00000000000E+00 -0.34927115055E+02  0.34927115055E+02  0.00000000000E+00 0.  1.
         23    2    1    2    0    0 -0.96161679893E+02 -0.55793444545E+01  0.33405405908E+03  0.36948406553E+03  0.12509261579E+03 0.  0.
          5    1    3    3  502    0 -0.89975988197E+02 -0.38104335146E+02  0.31752170932E+03  0.33224257267E+03  0.41800000000E+01 0. -1.
         -5    1    3    3    0  502 -0.61856916960E+01  0.32524990691E+02  0.16532349762E+02  0.37241492853E+02  0.41800000000E+01 0. -1.
        -11    1    1    2    0    0  0.95602264906E+02 -0.23909351719E+02  0.14896587937E+03  0.17861210309E+03  0.00000000000E+00 0.  1.
         11    1    1    2    0    0  0.55941498679E+00  0.29488696174E+02  0.88642410479E+02  0.93420410418E+02  0.00000000000E+00 0. -1.
</event>
<event>
 6    1  0.8653652E-006  0.1509062E+03  0.7561462E-02  0.1199364E+00
          1   -1    0    0  501    0  0.00000000000E+00  0.00000000000E+00  0.74390552921E+03  0.74390552921E+03  0.00000000000E+00 0. -1.
         -1   -1    0    0    0  501 -0.00000000000E+00 -0.00000000000E+00 -0.83663536903E+02  0.83663536903E+02  0.00000000000E+00 0.  1.
          5    1    1    2  502    0  0.72943651798E+02  0.70699360286E+02  0.51535570753E+03  0.52528863833E+03  0.41800000000E+01 0. -1.
         -5    1    1    2    0  502 -0.46481713952E+02 -0.89954610892E+02 -0.25612797403E+02  0.10452688431E+03  0.41800000000E+01 0.  1.
        -11    1    1    2    0    0 -0.18267388695E+02 -0.37365656398E+02  0.55988445721E+02  0.69746654558E+02  0.00000000000E+00 0.  1.
         11    1    1    2    0    0 -0.81945491512E+01  0.56620907004E+02  0.11451063647E+03  0.12800688891E+03  0.00000000000E+00 0. -1.
</event>
<event>
 7    1  0.8653652E-006  0.9541190E+02  0.7561462E-02  0.1290251E+00
          2   -1    0    0  501    0  0.00000000000E+00  0.00000000000E+00  0.34727949403E+03  0.34727949403E+03  0.00000000000E+00 0. -1.
         -2   -1    0    0    0  501 -0.00000000000E+00 -0.00000000000E+00 -0.42025650172E+02  0.42025650172E+02  0.00000000000E+00 0.  1.
         23    2    1    2    0    0  0.44125658277E+02 -0.28326065156E+02  0.17500653174E+03  0.22141478420E+03  0.12509109011E+03 0.  0.
          5    1    3    3  502    0  0.14431538023E+02 -0.51749288530E+02  0.17526639234E+03  0.18336313380E+03  0.41800000000E+01 0. -1.
         -5    1    3    3    0  502  0.29694120254E+02  0.23423223374E+02 -0.25986059339E+00  0.38051650404E+02  0.41800000000E+01 0. -1.
        -11    1    1    2    0    0 -0.67120228968E+02  0.69291980393E+01  0.11413423382E+03  0.13258869580E+03  0.00000000000E+00 0. -1.
         11    1    1    2    0    0  0.22994570691E+02  0.21396867117E+02  0.16113078293E+02  0.35301664207E+02  0.00000000000E+00 0.  1.
</event>
<event>
 7    1  0.8653652E-006  0.1026388E+03  0.7561462E-02  0.1274843E+00
          1   -1    0    0  501    0  0.00000000000E+00  0.00000000000E+00  0.10163657672E+03  0.10163657672E+03  0.00000000000E+00 0. -1.
         -1   -1    0    0    0  501 -0.00000000000E+00 -0.00000000000E+00 -0.24547958265E+03  0.24547958265E+03  0.00000000000E+00 0.  1.
         23    2    1    2    0    0 -0.37750683280E+02 -0.61872264571E+02 -0.17795865865E+03  0.22928311950E+03  0.12509265961E+03 0.  0.
          5    1    3    3  502    0  0.29790654629E+01 -0.50996643064E+02 -0.17971730460E+03  0.18688315710E+03  0.41800000000E+01 0.  1.
         -5    1    3    3    0  502 -0.40729748743E+02 -0.10875621506E+02  0.17586459513E+01  0.42399962399E+02  0.41800000000E+01 0.  1.
        -11    1    1    2    0    0 -0.21861093881E+02  0.44481201459E+02  0.69261998016E+01  0.50044549679E+02  0.00000000000E+00 0.  1.
         11    1    1    2    0    0  0.59611777162E+02  0.17391063112E+02  0.27189452923E+02  0.67788490194E+02  0.00000000000E+00 0. -1.
</event>
<event>
 7    1  0.8653652E-006  0.3088673E+03  0.7561462E-02  0.1080890E+00
         -2   -1    0    0    0  501 -0.00000000000E+00  0.00000000000E+00  0.16859394443E+03  0.16859394443E+03  0.00000000000E+00 0.  1.
          2   -1    0    0  501    0  0.00000000000E+00 -0.00000000000E+00 -0.57969325562E+03  0.57969325562E+03  0.00000000000E+00 0. -1.
         23    2    1    2    0    0 -0.28973358681E+03  0.47559865928E+02 -0.18883927126E+03  0.37082918231E+03  0.12508605004E+03 0.  0.
          5    1    3    3  502    0 -0.29406047630E+03  0.64170152221E+02 -0.17349559971E+03  0.34742994643E+03  0.41800000000E+01 0. -1.
         -5    1    3    3    0  502  0.43268894931E+01 -0.16610286292E+02 -0.15343671546E+02  0.23399235883E+02  0.41800000000E+01 0. -1.
        -11    1    1    2    0    0  0.15955308519E+03 -0.54735057442E+02 -0.16182889902E+03  0.23375565461E+03  0.00000000000E+00 0. -1.
         11    1    1    2    0    0  0.13018050162E+03  0.71751915138E+01 -0.60431140921E+02  0.14370236313E+03  0.00000000000E+00 0.  1.
</event>
<event>
 7    1  0.8653652E-006  0.1116758E+03  0.7561462E-02  0.1257498E+00
          2   -1    0    0  501    0  0.00000000000E+00  0.00000000000E+00  0.43128993795E+03  0.43128993795E+03  0.00000000000E+00 0.  1.
         -2   -1    0    0    0  501 -0.00000000000E+00 -0.00000000000E+00 -0.31819136226E+02  0.31819136226E+02  0.00000000000E+00 0. -1.
         23    2    1    2    0    0 -0.43936433748E+02  0.74924046156E+01  0.22048475671E+03  0.25738652163E+03  0.12509095587E+03 0.  0.
          5    1    3    3  502    0  0.36720333011E+02 -0.12992770633E+02  0.29572597506E+02  0.49083661930E+02  0.41800000000E+01 0.  1.
         -5    1    3    3    0  502 -0.80656766759E+02  0.20485175248E+02  0.19091215920E+03  0.20830285970E+03  0.41800000000E+01 0.  1.
        -11    1    1    2    0    0 -0.26835589623E+02  0.87805730940E+01  0.60290580816E+02  0.66574781031E+02  0.00000000000E+00 0.  1.
         11    1    1    2    0    0  0.70772023371E+02 -0.16272977710E+02  0.11869546420E+03  0.13914777151E+03  0.00000000000E+00 0. -1.
</event>
<event>
 7    1  0.8653652E-006  0.1244214E+03  0.7561462E-02  0.1235976E+00
         -1   -1    0    0    0  501 -0.00000000000E+00  0.00000000000E+00  0.49669876948E+02  0.49669876948E+02  0.00000000000E+00 0.  1.
          1   -1    0    0  501    0  0.00000000000E+00 -0.00000000000E+00 -0.42099380981E+03  0.42099380981E+03  0.00000000000E+00 0. -1.
         23    2    1    2    0    0 -0.74474728546E+02 -0.59842339219E+02 -0.21472472373E+03  0.26623570637E+03  0.12508858305E+03 0.  0.
          5    1    3    3  502    0 -0.66739115161E+02  0.22407617168E+02 -0.68964158742E+02  0.98639436285E+02  0.41800000000E+01 0.  1.
         -5    1    3    3    0  502 -0.77356133849E+01 -0.82249956387E+02 -0.14576056498E+03  0.16759627008E+03  0.41800000000E+01 0.  1.
        -11    1    1    2    0    0  0.49812168217E+02  0.37935584499E+02 -0.22819763832E+02  0.66641595833E+02  0.00000000000E+00 0.  1.
         11    1    1    2    0    0  0.24662560329E+02  0.21906754720E+02 -0.13377944530E+03  0.13778638456E+03  0.00000000000E+00 0. -1.
</event>
<event>
 7    1  0.8653652E-006  0.9727550E+02  0.7561462E-02  0.1286132E+00
          2   -1    0    0  501    0  0.00000000000E+00  0.00000000000E+00  0.20479634276E+03  0.20479634276E+03  0.00000000000E+00 0. -1.
         -2   -1    0    0    0  501 -0.00000000000E+00 -0.00000000000E+00 -0.73186029120E+02  0.73186029120E+02  0.00000000000E+00 0.  1.
         23    2    1    2    0    0  0.29652459104E+01 -0.35229766363E+02  0.22949169309E+02  0.13199978831E+03  0.12508937053E+03 0.  0.
          5    1    3    3  502    0  0.95859600090E+01  0.39718307061E+02 -0.19548009373E+02  0.45486609189E+02  0.41800000000E+01 0. -1.
         -5    1    3    3    0  502 -0.66207140986E+01 -0.74948073424E+02  0.42497178682E+02  0.86513179118E+02  0.41800000000E+01 0. -1.
        -11    1    1    2    0    0  0.31947165900E+02  0.27976112271E+02  0.10092517131E+03  0.10949508880E+03  0.00000000000E+00 0. -1.
         11    1    1    2    0    0 -0.34912411810E+02  0.72536540915E+01  0.77359730149E+01  0.36487494769E+02  0.00000000000E+00 0.  1.
</event>
<event>
 7    1  0.8653652E-006  0.1614917E+03  0.7561462E-02  0.1187023E+00
         -2   -1    0    0    0  501 -0.00000000000E+00  0.00000000000E+00  0.98677166334E+02  0.98677166334E+02  0.00000000000E+00 0.  1.
          2   -1    0    0  501    0  0.00000000000E+00 -0.00000000000E+00 -0.33186045275E+03  0.33186045275E+03  0.00000000000E+00 0. -1.
         23    2    1    2    0    0 -0.13435050833E+03 -0.25545883136E+02 -0.71367415378E+02  0.19860377504E+03  0.12508996862E+03 0.  0.
          5    1    3    3  502    0 -0.62173607986E+02 -0.74476413974E+02 -0.47492624169E+02  0.10809863791E+03  0.41800000000E+01 0.  1.
         -5    1    3    3    0  502 -0.72176900339E+02  0.48930530839E+02 -0.23874791209E+02  0.90505137125E+02  0.41800000000E+01 0.  1.
        -11    1    1    2    0    0  0.10540252600E+03  0.29268617789E+02 -0.16951727309E+03  0.20174848290E+03  0.00000000000E+00 0. -1.
         11    1    1    2    0    0  0.28947982325E+02 -0.37227346531E+01  0.77014020548E+01  0.30185361148E+02  0.00000000000E+00 0.  1.
</event>
<event>
 7    1  0.8653652E-006  0.5337600E+02  0.7561462E-02  0.1427939E+00
         -2   -1    0    0    0  501 -0.00000000000E+00  0.00000000000E+00  0.62842374155E+02  0.62842374155E+02  0.00000000000E+00 0.  1.
          2   -1    0    0  501    0  0.00000000000E+00 -0.00000000000E+00 -0.19309775096E+03  0.19309775096E+03  0.00000000000E+00 0. -1.
         23    2    1    2    0    0 -0.81480045253E+01 -0.18475490152E+02 -0.69117548325E+02  0.14433450348E+03  0.12508988646E+03 0.  0.
          5    1    3    3  502    0  0.82865358430E+01 -0.16387538018E+02 -0.10389418523E+03  0.10558736764E+03  0.41800000000E+01 0.  1.
         -5    1    3    3    0  502 -0.16434540368E+02 -0.20879521332E+01  0.34776636910E+02  0.38747135842E+02  0.41800000000E+01 0.  1.
        -11    1    1    2    0    0  0.36712376721E+02  0.20763150194E+02  0.20466280656E+01  0.42226717809E+02  0.00000000000E+00 0.  1.
         11    1    1    2    0    0 -0.28564372195E+02 -0.22876600423E+01 -0.63184456546E+02  0.69378903828E+02  0.00000000000E+00 0. -1.
</event>
<event>
 6    1  0.8653652E-006  0.8105679E+02  0.7561462E-02  0.1326079E+00
         -2   -1    0    0    0  501 -0.00000000000E+00  0.00000000000E+00  0.20795801451E+03  0.20795801451E+03  0.00000000000E+00 0.  1.
          2   -1    0    0  501    0  0.00000000000E+00 -0.00000000000E+00 -0.75529267406E+02  0.75529267406E+02  0.00000000000E+00 0. -1.
          5    1    1    2  502    0  0.37317210653E+02 -0.23865747918E+02 -0.15828696109E+02  0.47224656220E+02  0.41800000000E+01 0. -1.
         -5    1    1    2    0  502 -0.33060130197E+02  0.17774754661E+02  0.14803281634E+03  0.15277467469E+03  0.41800000000E+01 0.  1.
        -11    1    1    2    0    0 -0.30358052420E+02 -0.24951223582E+02 -0.12070617174E+02  0.41108085627E+02  0.00000000000E+00 0. -1.
         11    1    1    2    0    0  0.26100971964E+02  0.31042216839E+02  0.12295244049E+02  0.42379865384E+02  0.00000000000E+00 0.  1.
</event>
<event>
 7    1  0.8653652E-006  0.1205992E+03  0.7561462E-02  0.1242112E+00
          2   -1    0    0  501    0  0.00000000000E+00  0.00000000000E+00  0.53979391267E+03  0.53979391267E+03  0.00000000000E+00 0. -1.
         -2   -1    0    0    0  501 -0.00000000000E+00 -0.00000000000E+00 -0.30149296727E+02  0.30149296727E+02  0.00000000000E+00 0.  1.
         23    2    1    2    0    0  0.47027370164E+02  0.48929237523E+02  0.25085391141E+03  0.28840883298E+03  0.12508527588E+03 0.  0.
          5    1    3    3  502    0  0.70306438732E+02  0.70841685571E+02  0.22789592405E+03  0.24882838330E+03  0.41800000000E+01 0.  1.
         -5    1    3    3    0  502 -0.23279068568E+02 -0.21912448048E+02  0.22957987370E+02  0.39580449680E+02  0.41800000000E+01 0.  1.
        -11    1    1    2    0    0 -0.59976835793E+02 -0.64986350807E+02  0.22721472901E+03  0.24381751311E+03  0.00000000000E+00 0.  1.
         11    1    1    2    0    0  0.12949465629E+02  0.16057113283E+02  0.31575975524E+02  0.37716863302E+02  0.00000000000E+00 0. -1.
</event>
<event>
 7    1  0.8653652E-006  0.1189114E+03  0.7561462E-02  0.1244904E+00
         -1   -1    0    0    0  501 -0.00000000000E+00  0.00000000000E+00  0.46517421043E+02  0.46517421043E+02  0.00000000000E+00 0.  1.
          1   -1    0    0  501    0  0.00000000000E+00 -0.00000000000E+00 -0.57991973109E+03  0.57991973109E+03  0.00000000000E+00 0. -1.
         23    2    1    2    0    0  0.24204672629E+02 -0.92879339921E+02 -0.13475679835E+03  0.20741216014E+03  0.12509185230E+03 0.  0.
          5    1    3    3  502    0 -0.40616157687E+02 -0.46402628638E+02 -0.15233553484E+02  0.63658540366E+02  0.41800000000E+01 0. -1.
         -5    1    3    3    0  502  0.64820830317E+02 -0.46476711283E+02 -0.11952324487E+03  0.14375361978E+03  0.41800000000E+01 0. -1.
        -11    1    1    2    0    0 -0.63178696283E+01  0.15812407581E+02 -0.53464476885E+01  0.17847470774E+02  0.00000000000E+00 0.  1.
         11    1    1    2    0    0 -0.17886803001E+02  0.77066932341E+02 -0.39329906400E+03  0.40117752122E+03  0.00000000000E+00 0. -1.
</event>
<event>
 7    1  0.8653652E-006  0.2335043E+03  0.7561462E-02  0.1124197E+00
         -2   -1    0    0    0  501 -0.00000000000E+00  0.00000000000E+00  0.17215424306E+03  0.17215424306E+03  0.00000000000E+00 0.  1.
          2   -1    0    0  501    0  0.00000000000E+00 -0.00000000000E+00 -0.35421057654E+03  0.35421057654E+03  0.00000000000E+00 0. -1.
         23    2    1    2    0    0 -0.16170656017E+03  0.14637112532E+03 -0.49418209410E+02  0.25624900567E+03  0.12509146877E+03 0.  0.
          5    1    3    3  502    0 -0.84885817338E+02  0.18457034855E+02  0.23548334559E+02  0.90101390563E+02  0.41800000000E+01 0. -1.
         -5    1    3    3    0  502 -0.76820742830E+02  0.12791409046E+03 -0.72966543969E+02  0.16614761511E+03  0.41800000000E+01 0. -1.
        -11    1    1    2    0    0  0.15841502432E+03 -0.10677851135E+03 -0.12835497042E+03  0.23015640084E+03  0.00000000000E+00 0. -1.
         11    1    1    2    0    0  0.32915358485E+01 -0.39592613969E+02 -0.42831536502E+01  0.39959413088E+02  0.00000000000E+00 0.  1.
</event>
<event>
 7    1  0.8653652E-006  0.1014627E+03  0.7561462E-02  0.1277250E+00
         -1   -1    0    0    0  501 -0.00000000000E+00  0.00000000000E+00  0.76228636180E+03  0.76228636180E+03  0.00000000000E+00 0.  1.
          1   -1    0    0  501    0  0.00000000000E+00 -0.00000000000E+00 -0.33070168240E+02  0.33070168240E+02  0.00000000000E+00 0. -1.
         23    2    1    2    0    0  0.74453008049E+02  0.68237840193E+02  0.52938946647E+03  0.55326529514E+03  0.12509846667E+03 0.  0.
          5    1    3    3  502    0  0.41011780965E+02  0.32669163837E+02  0.54095231941E+02  0.75452017617E+02  0.41800000000E+01 0. -1.
         -5    1    3    3    0  502  0.33441227084E+02  0.35568676356E+02  0.47529423453E+03  0.47781327753E+03  0.41800000000E+01 0. -1.
        -11    1    1    2    0    0 -0.53197637468E+02 -0.43557006760E+02  0.19785373543E+03  0.20945954763E+03  0.00000000000E+00 0.  1.
         11    1    1    2    0    0 -0.21255370581E+02 -0.24680833433E+02  0.19729916581E+01  0.32631687262E+02  0.00000000000E+00 0. -1.
</event>
<event>
 7    1  0.8653652E-006  0.1168239E+03  0.7561462E-02  0.1248431E+00
          1   -1    0    0  501    0  0.00000000000E+00  0.00000000000E+00  0.40316419571E+03  0.40316419571E+03  0.00000000000E+00 0. -1.
         -1   -1    0    0    0  501 -0.00000000000E+00 -0.00000000000E+00 -0.52482669847E+02  0.52482669847E+02  0.00000000000E+00 0.  1.
         23    2    1    2    0    0  0.68125728117E+02 -0.47324537805E+02  0.12215394036E+03  0.19351995450E+03  0.12509061089E+03 0.  0.
          5    1    3    3  502    0  0.86190674683E+02 -0.49706008983E+02  0.13719404673E+03  0.16952639496E+03  0.41800000000E+01 0.  1.
         -5    1    3    3    0  502 -0.18064946566E+02  0.23814711784E+01 -0.15040106373E+02  0.23993559534E+02  0.41800000000E+01 0.  1.
        -11    1    1    2    0    0 -0.46909592592E+02 -0.15225724624E+02  0.43851785560E+02  0.65994785129E+02  0.00000000000E+00 0.  1.
         11    1    1    2    0    0 -0.21216135525E+02  0.62550262429E+02  0.18467579995E+03  0.19613212593E+03  0.00000000000E+00 0. -1.
</event>
<event>
 7    1  0.8653652E-006  0.8907524E+02  0.7561462E-02  0.1305107E+00
          1   -1    0    0  501    0  0.00000000000E+00  0.00000000000E+00  0.48939756575E+02  0.48939756575E+02  0.00000000000E+00 0. -1.
         -1   -1    0    0    0  501 -0.00000000000E+00 -0.00000000000E+00 -0.26557828351E+03  0.26557828351E+03  0.00000000000E+00 0.  1.
         23    2    1    2    0    0 -0.17800042622E+02 -0.30907759472E+02 -0.12299568337E+03  0.17901539657E+03  0.12508574248E+03 0.  0.
          5    1    3    3  502    0 -0.95792551486E+01  0.43637049559E+02 -0.14694943492E+02  0.47216183535E+02  0.41800000000E+01 0. -1.
         -5    1    3    3    0  502 -0.82207874729E+01 -0.74544809031E+02 -0.10830073987E+03  0.13179921304E+03  0.41800000000E+01 0. -1.
        -11    1    1    2    0    0 -0.15669507646E+02  0.11898465252E+02  0.12013933932E+02  0.23053016152E+02  0.00000000000E+00 0. -1.
         11    1    1    2    0    0  0.33469550267E+02  0.19009294221E+02 -0.10565677750E+03  0.11244962736E+03  0.00000000000E+00 0.  1.
</event>
<event>
 7    1  0.8653652E-006  0.7901990E+02  0.7561462E-02  0.1331856E+00
          2   -1    0    0  501    0  0.00000000000E+00  0.00000000000E+00  0.67917188467E+03  0.67917188467E+03  0.00000000000E+00 0. -1.
         -2   -1    0    0    0  501 -0.00000000000E+00 -0.00000000000E+00 -0.27198566426E+02  0.27198566426E+02  0.00000000000E+00 0.  1.
         23    2    1    2    0    0 -0.51635444504E+02 -0.12255760208E+02  0.19717768276E+03  0.23946516056E+03  0.12509237290E+03 0.  0.
          5    1    3    3  502    0 -0.31170202680E+02 -0.12427052014E+02 -0.67398210094E+01  0.34480585031E+02  0.41800000000E+01 0.  1.
         -5    1    3    3    0  502 -0.20465241824E+02  0.17129180631E+00  0.20391750376E+03  0.20498457553E+03  0.41800000000E+01 0.  1.
        -11    1    1    2    0    0  0.60869129443E+02  0.40837868824E+02  0.36279231426E+03  0.37012301433E+03  0.00000000000E+00 0. -1.
         11    1    1    2    0    0 -0.92336849392E+01 -0.28582108616E+02  0.92003321233E+02  0.96782276210E+02  0.00000000000E+00 0.  1.
</event>
<event>
 7    1  0.8653652E-006  0.1429394E+03  0.7561462E-02  0.1209428E+00
          2   -1    0    0  501    0  0.00000000000E+00  0.00000000000E+00  0.11289858660E+03  0.11289858660E+03  0.00000000000E+00 0. -1.
         -2   -1    0    0    0  501 -0.00000000000E+00 -0.00000000000E+00 -0.20942394369E+03  0.20942394369E+03  0.00000000000E+00 0.  1.
         23    2    1    2    0    0 -0.88846603273E+02  0.11890980576E+02 -0.11031889738E+03  0.18935903821E+03  0.12510584279E+03 0.  0.
          5    1    3    3  502    0  0.94254016825E+00 -0.46338569106E+02 -0.28347737710E+02  0.54490531306E+02  0.41800000000E+01 0.  1.
         -5    1    3    3    0  502 -0.89789143441E+02  0.58229549682E+02 -0.81971159674E+02  0.13486850690E+03  0.41800000000E+01 0.  1.
        -11    1    1    2    0    0  0.81810589185E+02 -0.48404799046E+02  0.10295959324E+02  0.95613826677E+02  0.00000000000E+00 0. -1.
         11    1    1    2    0    0  0.70360140877E+01  0.36513818470E+02  0.34975809691E+01  0.37349665409E+02  0.00000000000E+00 0.  1.
</event>
<event>
 7    1  0.8653652E-006  0.1039192E+03  0.7561462E-02  0.1272264E+00
          4   -1    0    0  501    0  0.00000000000E+00  0.00000000000E+00  0.44443826890E+03  0.44443826890E+03  0.00000000000E+00 0. -1.
         -4   -1    0    0    0  501 -0.00000000000E+00 -0.00000000000E+00 -0.29726423016E+02  0.29726423016E+02  0.00000000000E+00 0.  1.
         23    2    1    2    0    0  0.36633398318E+02  0.13906322433E+02  0.22603217458E+03  0.26129243565E+03  0.12509117199E+03 0.  0.
          5    1    3    3  502    0 -0.23741125979E+02  0.39734067353E+02  0.16544025045E+03  0.17184407479E+03  0.41800000000E+01 0.  1.
         -5    1    3    3    0  502  0.60374524297E+02 -0.25827744920E+02  0.60591924121E+02  0.89448360859E+02  0.41800000000E+01 0.  1.
        -11    1    1    2    0    0 -0.49051158629E+02  0.24764463181E+02  0.13341908763E+03  0.14429119080E+03  0.00000000000E+00 0. -1.
         11    1    1    2    0    0  0.12417760311E+02 -0.38670785614E+02  0.55260583682E+02  0.68581065463E+02  0.00000000000E+00 0.  1.
</event>
<event>
 7    1  0.8653652E-006  0.7362992E+02  0.7561462E-02  0.1348167E+00
          1   -1    0    0  501    0  0.00000000000E+00  0.00000000000E+00  0.39747307052E+02  0.39747307052E+02  0.00000000000E+00 0. -1.
         -1   -1    0    0    0  501 -0.00000000000E+00 -0.00000000000E+00 -0.31181992618E+03  0.31181992618E+03  0.00000000000E+00 0.  1.
         23    2    1    2    0    0 -0.15290473941E+01  0.37346434931E+01 -0.15454494078E+03  0.19888192463E+03  0.12511433042E+03 0.  0.
          5    1    3    3  502    0 -0.21217748528E+02  0.41401740313E+02 -0.94809345768E+01  0.47661907998E+02  0.41800000000E+01 0.  1.
         -5    1    3    3    0  502  0.19688701134E+02 -0.37667096820E+02 -0.14506400620E+03  0.15122001663E+03  0.41800000000E+01 0.  1.
        -11    1    1    2    0    0  0.16213803463E+02  0.22526557016E+02  0.34990746389E+01  0.27974572688E+02  0.00000000000E+00 0. -1.
         11    1    1    2    0    0 -0.14684756069E+02 -0.26261200510E+02 -0.12102675299E+03  0.12471073591E+03  0.00000000000E+00 0.  1.
</event>
<event>
 7    1  0.8653652E-006  0.1303773E+03  0.7561462E-02  0.1226897E+00
          4   -1    0    0  501    0  0.00000000000E+00  0.00000000000E+00  0.34443290234E+03  0.34443290234E+03  0.00000000000E+00 0. -1.
         -4   -1    0    0    0  501 -0.00000000000E+00 -0.00000000000E+00 -0.20727604562E+03  0.20727604562E+03  0.00000000000E+00 0.  1.
         23    2    1    2    0    0 -0.74647476096E+02 -0.41656057587E+02 -0.16514309686E+03  0.22411493384E+03  0.12509112003E+03 0.  0.
          5    1    3    3  502    0 -0.54903104221E+02 -0.79893132246E+02 -0.14931541831E+03  0.17807254134E+03  0.41800000000E+01 0. -1.
         -5    1    3    3    0  502 -0.19744371876E+02  0.38237074659E+02 -0.15827678546E+02  0.46042392503E+02  0.41800000000E+01 0. -1.
        -11    1    1    2    0    0  0.91711643519E+02  0.21723346629E+02  0.18776592862E+03  0.21009277307E+03  0.00000000000E+00 0.  1.
         11    1    1    2    0    0 -0.17064167422E+02  0.19932710958E+02  0.11453402495E+03  0.11750124105E+03  0.00000000000E+00 0. -1.
</event>
<event>
 7    1  0.8653652E-006  0.1180361E+03  0.7561462E-02  0.1246372E+00
          1   -1    0    0  501    0  0.00000000000E+00  0.00000000000E+00  0.43183451116E+03  0.43183451116E+03  0.00000000000E+00 0. -1.
         -1   -1    0    0    0  501 -0.00000000000E+00 -0.00000000000E+00 -0.39118480424E+02  0.39118480424E+02  0.00000000000E+00 0.  1.
         23    2    1    2    0    0  0.20172293998E+02  0.65707291067E+02  0.24533676715E+03  0.28383553422E+03  0.12509241234E+03 0.  0.
          5    1    3    3  502    0  0.52183744942E+02 -0.14929732946E+02  0.75537608950E+02  0.93109843345E+02  0.41800000000E+01 0.  1.
         -5    1    3    3    0  502 -0.32011450943E+02  0.80637024014E+02  0.16979915820E+03  0.19072569088E+03  0.41800000000E+01 0.  1.
        -11    1    1    2    0    0 -0.65172036663E+01  0.13185949419E+02 -0.45377936383E+01  0.15392685822E+02  0.00000000000E+00 0.  1.
         11    1    1    2    0    0 -0.13655090332E+02 -0.78893240486E+02  0.15191705722E+03  0.17172477154E+03  0.00000000000E+00 0. -1.
</event>
<event>
 7    1  0.8653652E-006  0.9862149E+02  0.7561462E-02  0.1283222E+00
          1   -1    0    0  501    0  0.00000000000E+00  0.00000000000E+00  0.36671030492E+02  0.36671030492E+02  0.00000000000E+00 0. -1.
         -1   -1    0    0    0  501 -0.00000000000E+00 -0.00000000000E+00 -0.45364861757E+03  0.45364861757E+03  0.00000000000E+00 0.  1.
         23    2    1    2    0    0 -0.58099210343E+02 -0.19437511713E+01 -0.33020759291E+03  0.35375874892E+03  0.11282243399E+03 0.  0.
          5    1    3    3  502    0 -0.22246374882E+02 -0.56396846360E+02 -0.17924603349E+03  0.18926731994E+03  0.41800000000E+01 0. -1.
         -5    1    3    3    0  502 -0.35852835461E+02  0.54453095189E+02 -0.15096155942E+03  0.16449142899E+03  0.41800000000E+01 0.  1.
        -11    1    1    2    0    0  0.41337026910E+02  0.20496365315E+02 -0.98628997909E+02  0.10888769450E+03  0.00000000000E+00 0.  1.
         11    1    1    2    0    0  0.16762183433E+02 -0.18552614143E+02  0.11859003746E+02  0.27673204636E+02  0.00000000000E+00 0. -1.
</event>
<event>
 7    1  0.8653652E-006  0.1032844E+03  0.7561462E-02  0.1273537E+00
         -2   -1    0    0    0  501 -0.00000000000E+00  0.00000000000E+00  0.83581058033E+02  0.83581058033E+02  0.00000000000E+00 0.  1.
          2   -1    0    0  501    0  0.00000000000E+00 -0.00000000000E+00 -0.16311171194E+03  0.16311171194E+03  0.00000000000E+00 0. -1.
         23    2    1    2    0    0  0.33651794502E+02 -0.28376010215E+02 -0.46411248230E+02  0.14049804740E+03  0.12509219053E+03 0.  0.
          5    1    3    3  502    0 -0.35675885372E+02 -0.21548204016E+02  0.17941378210E+02  0.45568183477E+02  0.41800000000E+01 0.  1.
         -5    1    3    3    0  502  0.69327679873E+02 -0.68278061980E+01 -0.64352626440E+02  0.94929863920E+02  0.41800000000E+01 0.  1.
        -11    1    1    2    0    0 -0.58456782221E+01  0.55642513830E+02 -0.36971139175E+02  0.67060617587E+02  0.00000000000E+00 0. -1.
         11    1    1    2    0    0 -0.27806116280E+02 -0.27266503616E+02  0.38517335029E+01  0.39134104985E+02  0.00000000000E+00 0.  1.
</event>
<event>
 7    1  0.8653652E-006  0.7928499E+02  0.7561462E-02  0.1331093E+00
          1   -1    0    0  501    0  0.00000000000E+00  0.00000000000E+00  0.37638272388E+03  0.37638272388E+03  0.00000000000E+00 0. -1.
         -1   -1    0    0    0  501 -0.00000000000E+00 -0.00000000000E+00 -0.54314013905E+02  0.54314013905E+02  0.00000000000E+00 0.  1.
         23    2    1    2    0    0  0.22493469496E+02  0.75037580242E+01  0.40854846577E+02  0.13370945113E+03  0.12508731462E+03 0.  0.
          5    1    3    3  502    0  0.44234864341E+02 -0.71625863002E+01  0.76801633676E+02  0.89016791681E+02  0.41800000000E+01 0. -1.
         -5    1    3    3    0  502 -0.21741394844E+02  0.14666344324E+02 -0.35946787100E+02  0.44692659447E+02  0.41800000000E+01 0. -1.
        -11    1    1    2    0    0  0.21983267329E+02  0.23967680300E+02  0.17071989592E+03  0.17379009351E+03  0.00000000000E+00 0. -1.
         11    1    1    2    0    0 -0.44476736826E+02 -0.31471438325E+02  0.11049396748E+03  0.12319719314E+03  0.00000000000E+00 0.  1.
</event>
<event>
 7    1  0.8653652E-006  0.2141305E+03  0.7561462E-02  0.1138336E+00
          2   -1    0    0  501    0  0.00000000000E+00  0.00000000000E+00  0.43162752948E+03  0.43162752948E+03  0.00000000000E+00 0. -1.
         -2   -1    0    0    0  501 -0.00000000000E+00 -0.00000000000E+00 -0.11198293705E+03  0.11198293705E+03  0.00000000000E+00 0.  1.
         23    2    1    2    0    0  0.65414357963E+02 -0.17913022021E+03  0.18257758878E+03  0.29214741062E+03  0.12509540194E+03 0.  0.
          5    1    3    3  502    0 -0.23168356603E+02  0.21043156551E+01  0.34725348454E+02  0.42006227126E+02  0.41800000000E+01 0. -1.
         -5    1    3    3    0  502  0.88582714566E+02 -0.18123453587E+03  0.14785224032E+03  0.25014118349E+03  0.41800000000E+01 0. -1.
        -11    1    1    2    0    0 -0.34298368934E+02  0.16527328861E+03  0.84344423470E+02  0.18869451452E+03  0.00000000000E+00 0.  1.
         11    1    1    2    0    0 -0.31115989029E+02  0.13856931607E+02  0.52722580184E+02  0.62768541389E+02  0.00000000000E+00 0. -1.
</event>
<event>
 7    1  0.8653652E-006  0.1359785E+03  0.7561462E-02  0.1218845E+00
          1   -1    0    0  501    0  0.00000000000E+00  0.00000000000E+00  0.58192180467E+02  0.58192180467E+02  0.00000000000E+00 0. -1.
         -1   -1    0    0    0  501 -0.00000000000E+00 -0.00000000000E+00 -0.41759281051E+03  0.41759281051E+03  0.00000000000E+00 0.  1.
         23    2    1    2    0    0 -0.86574938740E+02  0.25898785000E-01 -0.30090991310E+03  0.33717695957E+03  0.12508519328E+03 0.  0.
          5    1    3    3  502    0 -0.10629791101E+03  0.32659904256E+02 -0.24802383347E+03  0.27184409061E+03  0.41800000000E+01 0. -1.
         -5    1    3    3    0  502  0.19722972270E+02 -0.32634005471E+02 -0.52886079621E+02  0.65332868956E+02  0.41800000000E+01 0. -1.
        -11    1    1    2    0    0  0.50011129901E+02  0.42927789993E+02 -0.47236808698E+02  0.81087757175E+02  0.00000000000E+00 0. -1.
         11    1    1    2    0    0  0.36563808839E+02 -0.42953688778E+02 -0.11253908247E+02  0.57520274228E+02  0.00000000000E+00 0.  1.
</event>
<event>
 7    1  0.8653652E-006  0.9767989E+02  0.7561462E-02  0.1285252E+00
         -1   -1    0    0    0  501 -0.00000000000E+00  0.00000000000E+00  0.78921070011E+02  0.78921070011E+02  0.00000000000E+00 0.  1.
          1   -1    0    0  501    0  0.00000000000E+00 -0.00000000000E+00 -0.24558395680E+03  0.24558395680E+03  0.00000000000E+00 0. -1.
         23    2    1    2    0    0  0.39810895717E+02 -0.52904821652E+02 -0.24660114417E+02  0.14367103774E+03  0.12509763495E+03 0.  0.
          5    1    3    3  502    0 -0.36434614662E+02 -0.96455480071E+01 -0.39394907617E+02  0.54680425091E+02  0.41800000000E+01 0.  1.
         -5    1    3    3    0  502  0.76245510379E+02 -0.43259273645E+02  0.14734793200E+02  0.88990612651E+02  0.41800000000E+01 0.  1.
        -11    1    1    2    0    0 -0.70356534607E+01  0.26995840891E+02  0.47065332666E+01  0.28291823915E+02  0.00000000000E+00 0.  1.
         11    1    1    2    0    0 -0.32775242257E+02  0.25908980761E+02 -0.14670930564E+03  0.15254216515E+03  0.00000000000E+00 0. -1.
</event>
<event>
 7    1  0.8653652E-006  0.1054086E+03  0.7561462E-02  0.1269317E+00
          2   -1    0    0  501    0  0.00000000000E+00  0.00000000000E+00  0.32698518108E+03  0.32698518108E+03  0.00000000000E+00 0. -1.
         -2   -1    0    0    0  501 -0.00000000000E+00 -0.00000000000E+00 -0.10302801857E+03  0.10302801857E+03  0.00000000000E+00 0.  1.
         23    2    1    2    0    0  0.82881396333E+02  0.37805021171E+02 -0.16138414168E+02  0.15558420975E+03  0.12508977747E+03 0.  0.
          5    1    3    3  502    0  0.88239937610E+02  0.51744924079E+02 -0.53223927433E+02  0.11538666565E+03  0.41800000000E+01 0. -1.
         -5    1    3    3    0  502 -0.53585412770E+01 -0.13939902908E+02  0.37085513265E+02  0.40197544102E+02  0.41800000000E+01 0. -1.
        -11    1    1    2    0    0 -0.34956846501E+02 -0.26022044867E+02  0.18395734926E+02  0.47302547498E+02  0.00000000000E+00 0.  1.
         11    1    1    2    0    0 -0.47924549832E+02 -0.11782976304E+02  0.22169984175E+03  0.22712644241E+03  0.00000000000E+00 0. -1.
</event>
<event>
 7    1  0.8653652E-006  0.9667958E+02  0.7561462E-02  0.1287437E+00
          2   -1    0    0  501    0  0.00000000000E+00  0.00000000000E+00  0.40446616554E+03  0.40446616554E+03  0.00000000000E+00 0.  1.
         -2   -1    0    0    0  501 -0.00000000000E+00 -0.00000000000E+00 -0.50909165748E+02  0.50909165748E+02  0.00000000000E+00 0. -1.
         23    2    1    2    0    0 -0.73681092558E+02 -0.39369315718E+01  0.99575998206E+02  0.17609125796E+03  0.12509336066E+03 0.  0.
          5    1    3    3  502    0 -0.54136560209E+02  0.10119150024E+02  0.12752214450E+03  0.13896954373E+03  0.41800000000E+01 0. -1.
         -5    1    3    3    0  502 -0.19544532349E+02 -0.14056081596E+02 -0.27946146292E+02  0.37121714227E+02  0.41800000000E+01 0. -1.
        -11    1    1    2    0    0  0.73270128328E+01 -0.35671073167E+02  0.11007234585E+03  0.11593977703E+03  0.00000000000E+00 0.  1.
         11    1    1    2    0    0  0.66354079725E+02  0.39608004739E+02  0.14390865574E+03  0.16334429630E+03  0.00000000000E+00 0. -1.
</event>
<event>
 7    1  0.8653652E-006  0.1372483E+03  0.7561462E-02  0.1217080E+00
         -1   -1    0    0    0  501 -0.00000000000E+00  0.00000000000E+00  0.20699166880E+03  0.20699166880E+03  0.00000000000E+00 0.  1.
          1   -1    0    0  501    0  0.00000000000E+00 -0.00000000000E+00 -0.10399886576E+03  0.10399886576E+03  0.00000000000E+00 0. -1.
         23    2    1    2    0    0  0.22953455212E+02 -0.94383169722E+02  0.36756212125E+02  0.16258558805E+03  0.12509200806E+03 0.  0.
          5    1    3    3  502    0 -0.30991400972E+02  0.15297903723E+02  0.16845533313E+02  0.38674761604E+02  0.41800000000E+01 0. -1.
         -5    1    3    3    0  502  0.53944856184E+02 -0.10968107344E+03  0.19910678812E+02  0.12391082645E+03  0.41800000000E+01 0. -1.
        -11    1    1    2    0    0  0.17959446001E+01 -0.99721377637E+01 -0.11959797144E+02  0.15675002275E+02  0.00000000000E+00 0. -1.
         11    1    1    2    0    0 -0.24749399812E+02  0.10435530749E+03  0.78196388058E+02  0.13272994424E+03  0.00000000000E+00 0.  1.
</event>
<event>
 7    1  0.8653652E-006  0.2500992E+03  0.7561462E-02  0.1113242E+00
          1   -1    0    0  501    0  0.00000000000E+00  0.00000000000E+00  0.15337165421E+03  0.15337165421E+03  0.00000000000E+00 0. -1.
         -1   -1    0    0    0  501 -0.00000000000E+00 -0.00000000000E+00 -0.65336309896E+03  0.65336309896E+03  0.00000000000E+00 0.  1.
         23    2    1    2    0    0 -0.18560523058E+03  0.15558048666E+03 -0.47451660920E+03  0.54723748879E+03  0.12509303449E+03 0.  0.
          5    1    3    3  502    0 -0.40815015075E+02  0.29053985148E+02 -0.20738654416E+02  0.54383487342E+02  0.41800000000E+01 0.  1.
         -5    1    3    3    0  502 -0.14479021551E+03  0.12652650151E+03 -0.45377795479E+03  0.49285400145E+03  0.41800000000E+01 0.  1.
        -11    1    1    2    0    0  0.16073800109E+03 -0.83061262245E+02 -0.94575902827E+01  0.18117760428E+03  0.00000000000E+00 0. -1.
         11    1    1    2    0    0  0.24867229495E+02 -0.72519224414E+02 -0.16017245266E+02  0.78319660100E+02  0.00000000000E+00 0.  1.
</event>
<event>
 7    1  0.8653652E-006  0.8717535E+02  0.7561462E-02  0.1309840E+00
          2   -1    0    0  501    0  0.00000000000E+00  0.00000000000E+00  0.23215181171E+03  0.23215181171E+03  0.00000000000E+00 0. -1.
         -2   -1    0    0    0  501 -0.00000000000E+00 -0.00000000000E+00 -0.50216334009E+02  0.50216334009E+02  0.00000000000E+00 0.  1.
         23    2    1    2    0    0  0.98327590077E+01 -0.10280173227E+02  0.88933049496E+02  0.15413960305E+03  0.12509022673E+03 0.  0.
          5    1    3    3  502    0  0.36767287816E+02 -0.49035020701E+02  0.87279323599E+02  0.10673059279E+03  0.41800000000E+01 0. -1.
         -5    1    3    3    0  502 -0.26934528808E+02  0.38754847474E+02  0.16537258969E+01  0.47409010264E+02  0.41800000000E+01 0. -1.
        -11    1    1    2    0    0 -0.18332187615E+02 -0.24011983588E+02  0.16189203684E+01  0.30253352901E+02  0.00000000000E+00 0.  1.
         11    1    1    2    0    0  0.84994286070E+01  0.34292156815E+02  0.91383507835E+02  0.97975189767E+02  0.00000000000E+00 0. -1.
</event>
<event>
 7    1  0.8653652E-006  0.1555034E+03  0.7561462E-02  0.1193869E+00
          2   -1    0    0  501    0  0.00000000000E+00  0.00000000000E+00  0.99993998897E+03  0.99993998897E+03  0.00000000000E+00 0. -1.
         -2   -1    0    0    0  501 -0.00000000000E+00 -0.00000000000E+00 -0.25243067284E+02  0.25243067284E+02  0.00000000000E+00 0.  1.
         23    2    1    2    0    0  0.73450693495E+01 -0.11624902448E+03  0.49425639280E+03  0.52297672489E+03  0.12508991651E+03 0.  0.
          5    1    3    3  502    0  0.63263273112E+02 -0.86810149427E+02  0.31937184424E+03  0.33697787919E+03  0.41800000000E+01 0. -1.
         -5    1    3    3    0  502 -0.55918203762E+02 -0.29438875051E+02  0.17488454856E+03  0.18599884570E+03  0.41800000000E+01 0. -1.
        -11    1    1    2    0    0  0.26967969700E+02  0.10397480549E+02  0.51380658586E+02  0.58952108259E+02  0.00000000000E+00 0.  1.
         11    1    1    2    0    0 -0.34313039050E+02  0.10585154393E+03  0.42905987030E+03  0.44325422311E+03  0.00000000000E+00 0. -1.
</event>
<event>
 7    1  0.8653652E-006  0.1119421E+03  0.7561462E-02  0.1257015E+00
          2   -1    0    0  501    0  0.00000000000E+00  0.00000000000E+00  0.50859446603E+03  0.50859446603E+03  0.00000000000E+00 0.  1.
         -2   -1    0    0    0  501 -0.00000000000E+00 -0.00000000000E+00 -0.28097562919E+02  0.28097562919E+02  0.00000000000E+00 0. -1.
         23    2    1    2    0    0 -0.36550025651E+02 -0.83040972201E+01  0.19100099389E+03  0.23137510346E+03  0.12509275131E+03 0.  0.
          5    1    3    3  502    0 -0.81318627221E+02 -0.10904335940E+02  0.14706775079E+03  0.16845776740E+03  0.41800000000E+01 0. -1.
         -5    1    3    3    0  502  0.44768601571E+02  0.26002387196E+01  0.43933243098E+02  0.62917336061E+02  0.41800000000E+01 0. -1.
        -11    1    1    2    0    0  0.21079461450E+02  0.48899538508E+02  0.17156312386E+03  0.17963689496E+03  0.00000000000E+00 0.  1.
         11    1    1    2    0    0  0.15470564201E+02 -0.40595441288E+02  0.11793278537E+03  0.12568003053E+03  0.00000000000E+00 0. -1.
</event>
<event>
 7    1  0.8653652E-006  0.1280786E+03  0.7561462E-02  0.1230335E+00
         -1   -1    0    0    0  501 -0.00000000000E+00  0.00000000000E+00  0.26626577063E+03  0.26626577063E+03  0.00000000000E+00 0.  1.
          1   -1    0    0  501    0  0.00000000000E+00 -0.00000000000E+00 -0.90632142517E+02  0.90632142517E+02  0.00000000000E+00 0. -1.
         23    2    1    2    0    0  0.78370381862E+02  0.44296645412E+02  0.16720809729E+03  0.22739783539E+03  0.12508844148E+03 0.  0.
          5    1    3    3  502    0 -0.20757843472E+02  0.23036252174E+02  0.10222001745E+03  0.10690164333E+03  0.41800000000E+01 0. -1.
         -5    1    3    3    0  502  0.99128225334E+02  0.21260393238E+02  0.64988079846E+02  0.12049619206E+03  0.41800000000E+01 0. -1.
        -11    1    1    2    0    0 -0.90206771438E+02 -0.14535280257E+02 -0.11016941925E+02  0.92032108499E+02  0.00000000000E+00 0. -1.
         11    1    1    2    0    0  0.11836389576E+02 -0.29761365155E+02  0.19442472747E+02  0.37467969261E+02  0.00000000000E+00 0.  1.
</event>
<event>
 6    1  0.8653652E-006  0.1293621E+03  0.7561462E-02  0.1228405E+00
          1   -1    0    0  501    0  0.00000000000E+00  0.00000000000E+00  0.45587919760E+03  0.45587919760E+03  0.00000000000E+00 0. -1.
         -1   -1    0    0    0  501 -0.00000000000E+00 -0.00000000000E+00 -0.43240400450E+02  0.43240400450E+02  0.00000000000E+00 0.  1.
          5    1    1    2  502    0 -0.65945099792E+02 -0.23573867425E+00  0.13186193564E+03  0.14749187852E+03  0.41800000000E+01 0. -1.
         -5    1    1    2    0  502  0.90928129343E+02  0.29762292222E+02  0.67028921781E+02  0.11689340229E+03  0.41800000000E+01 0.  1.
        -11    1    1    2    0    0 -0.57025380553E+02 -0.64419594101E+01  0.12046531536E+03  0.13343644582E+03  0.00000000000E+00 0.  1.
         11    1    1    2    0    0  0.32042351002E+02 -0.23084594138E+02  0.93282624375E+02  0.10129787142E+03  0.00000000000E+00 0. -1.
</event>
<event>
 7    1  0.8653652E-006  0.1251312E+03  0.7561462E-02  0.1234864E+00
         -2   -1    0    0    0  501 -0.00000000000E+00  0.00000000000E+00  0.60604478659E+03  0.60604478659E+03  0.00000000000E+00 0.  1.
          2   -1    0    0  501    0  0.00000000000E+00 -0.00000000000E+00 -0.37945602076E+02  0.37945602076E+02  0.00000000000E+00 0. -1.
         23    2    1    2    0    0 -0.25380241017E+02  0.93375351062E+02  0.41754410662E+03  0.44649049589E+03  0.12509024394E+03 0.  0.
          5    1    3    3  502    0  0.17820310742E+02 -0.22725924365E+02  0.42971612272E+02  0.51942881845E+02  0.41800000000E+01 0.  1.
         -5    1    3    3    0  502 -0.43200551759E+02  0.11610127543E+03  0.37457249435E+03  0.39454761405E+03  0.41800000000E+01 0.  1.
        -11    1    1    2    0    0  0.11540775418E+00 -0.10309161119E+02 -0.10385158948E+02  0.14633647812E+02  0.00000000000E+00 0. -1.
         11    1    1    2    0    0  0.25264833263E+02 -0.83066189943E+02  0.16094023684E+03  0.18286624496E+03  0.00000000000E+00 0.  1.
</event>
<event>
 7    1  0.8653652E-006  0.1047507E+03  0.7561462E-02  0.1270612E+00
         -1   -1    0    0    0  501 -0.00000000000E+00  0.00000000000E+00  0.33796906146E+02  0.33796906146E+02  0.00000000000E+00 0.  1.
          1   -1    0    0  501    0  0.00000000000E+00 -0.00000000000E+00 -0.48137392317E+03  0.48137392317E+03  0.00000000000E+00 0. -1.
         23    2    1    2    0    0  0.56136781047E+02 -0.22786839087E+02 -0.18617548341E+03  0.23233345182E+03  0.12508774516E+03 0.  0.
          5    1    3    3  502    0  0.24421910820E+02 -0.68123277503E+02 -0.14855095462E+03  0.16529388732E+03  0.41800000000E+01 0. -1.
         -5    1    3    3    0  502  0.31714870227E+02  0.45336438417E+02 -0.37624528790E+02  0.67039564501E+02  0.41800000000E+01 0. -1.
        -11    1    1    2    0    0 -0.58652617651E+02  0.35504738405E+02 -0.26101261760E+03  0.26986719428E+03  0.00000000000E+00 0. -1.
         11    1    1    2    0    0  0.25158366046E+01 -0.12717899318E+02 -0.38891601516E+00  0.12970183212E+02  0.00000000000E+00 0.  1.
</event>
<event>
 7    1  0.8653652E-006  0.1571274E+03  0.7561462E-02  0.1191979E+00
         -1   -1    0    0    0  501 -0.00000000000E+00  0.00000000000E+00  0.55022442018E+02  0.55022442018E+02  0.00000000000E+00 0.  1.
          1   -1    0    0  501    0  0.00000000000E+00 -0.00000000000E+00 -0.56185558948E+03  0.56185558948E+03  0.00000000000E+00 0. -1.
         23    2    1    2    0    0  0.12509197914E+03 -0.53732083796E+02 -0.24756475745E+03  0.30898429098E+03  0.12509133810E+03 0.  0.
          5    1    3    3  502    0  0.46255214569E+02  0.35675528438E+02 -0.12459176558E+03  0.13766941800E+03  0.41800000000E+01 0. -1.
         -5    1    3    3    0  502  0.78836764569E+02 -0.89407612234E+02 -0.12297299187E+03  0.17131487297E+03  0.41800000000E+01 0. -1.
        -11    1    1    2    0    0 -0.92310905294E+02  0.35467398201E+02 -0.87403035388E+02  0.13197927931E+03  0.00000000000E+00 0.  1.
         11    1    1    2    0    0 -0.32781073843E+02  0.18264685595E+02 -0.17186535462E+03  0.17591446121E+03  0.00000000000E+00 0. -1.
</event>
<event>
 7    1  0.8653652E-006  0.1147121E+03  0.7561462E-02  0.1252084E+00
          3   -1    0    0  501    0  0.00000000000E+00  0.00000000000E+00  0.55093788453E+03  0.55093788453E+03  0.00000000000E+00 0. -1.
         -3   -1    0    0    0  501 -0.00000000000E+00 -0.00000000000E+00 -0.29738848200E+02  0.29738848200E+02  0.00000000000E+00 0.  1.
         23    2    1    2    0    0  0.53045975747E+01 -0.64067084292E+02  0.23090210617E+03  0.27036208586E+03  0.12508854779E+03 0.  0.
          5    1    3    3  502    0  0.62561939135E+02 -0.36981738708E+02  0.15621533652E+03  0.17234369438E+03  0.41800000000E+01 0.  1.
         -5    1    3    3    0  502 -0.57257341560E+02 -0.27085345584E+02  0.74686769651E+02  0.98018391483E+02  0.41800000000E+01 0.  1.
        -11    1    1    2    0    0 -0.36454183627E+02  0.35570443933E+02  0.73358409215E+02  0.89306327817E+02  0.00000000000E+00 0.  1.
         11    1    1    2    0    0  0.31149586053E+02  0.28496640359E+02  0.21693852094E+03  0.22100831905E+03  0.00000000000E+00 0. -1.
</event>
<event>
 7    1  0.8653652E-006  0.9581107E+02  0.7561462E-02  0.1289360E+00
         -3   -1    0    0    0  501 -0.00000000000E+00  0.00000000000E+00  0.25763672353E+02  0.25763672353E+02  0.00000000000E+00 0.  1.
          3   -1    0    0  501    0  0.00000000000E+00 -0.00000000000E+00 -0.68476069037E+03  0.68476069037E+03  0.00000000000E+00 0. -1.
         23    2    1    2    0    0  0.56508766819E+02  0.24564083214E+02 -0.24174254526E+03  0.27907673111E+03  0.12509088196E+03 0.  0.
          5    1    3    3  502    0 -0.14944949677E+02 -0.17433205501E+02 -0.16304850358E+03  0.16471051907E+03  0.41800000000E+01 0.  1.
         -5    1    3    3    0  502  0.71453716496E+02  0.41997288715E+02 -0.78694041679E+02  0.11436621204E+03  0.41800000000E+01 0.  1.
        -11    1    1    2    0    0  0.10272594837E+02 -0.14484574647E+02 -0.14098367278E+02  0.22673620516E+02  0.00000000000E+00 0.  1.
         11    1    1    2    0    0 -0.66781361656E+02 -0.10079508567E+02 -0.40315610549E+03  0.40877401110E+03  0.00000000000E+00 0. -1.
</event>
<event>
 7    1  0.8653652E-006  0.1047259E+03  0.7561462E-02  0.1270661E+00
          2   -1    0    0  501    0  0.00000000000E+00  0.00000000000E+00  0.48786181203E+03  0.48786181203E+03  0.00000000000E+00 0. -1.
         -2   -1    0    0    0  501 -0.00000000000E+00 -0.00000000000E+00 -0.24077342249E+02  0.24077342249E+02  0.00000000000E+00 0.  1.
         23    2    1    2    0    0 -0.71391419880E+01 -0.58028353556E+01  0.23411239637E+03  0.26559411746E+03  0.12508789250E+03 0.  0.
          5    1    3    3  502    0  0.40409785129E+02  0.40076026151E+02  0.13311169308E+03  0.14482829089E+03  0.41800000000E+01 0. -1.
         -5    1    3    3    0  502 -0.47548927117E+02 -0.45878861507E+02  0.10100070329E+03  0.12076582657E+03  0.41800000000E+01 0. -1.
        -11    1    1    2    0    0  0.39892881975E+02 -0.19866480676E+02  0.87321363659E+02  0.98036419957E+02  0.00000000000E+00 0. -1.
         11    1    1    2    0    0 -0.32753739987E+02  0.25669316031E+02  0.14235070975E+03  0.14830861686E+03  0.00000000000E+00 0.  1.
</event>
<event>
 7    1  0.8653652E-006  0.1178275E+03  0.7561462E-02  0.1246725E+00
         -2   -1    0    0    0  501 -0.00000000000E+00  0.00000000000E+00  0.56093067235E+03  0.56093067235E+03  0.00000000000E+00 0.  1.
          2   -1    0    0  501    0  0.00000000000E+00 -0.00000000000E+00 -0.34131776767E+02  0.34131776767E+02  0.00000000000E+00 0. -1.
         23    2    1    2    0    0 -0.41463503872E+02 -0.66484614527E+02  0.39552596226E+03  0.42217210853E+03  0.12509626804E+03 0.  0.
          5    1    3    3  502    0 -0.42247981043E+01 -0.90927007060E+02  0.17661080500E+03  0.19873202654E+03  0.41800000000E+01 0. -1.
         -5    1    3    3    0  502 -0.37238705767E+02  0.24442392533E+02  0.21891515727E+03  0.22344008199E+03  0.41800000000E+01 0. -1.
        -11    1    1    2    0    0  0.26159949012E+02 -0.50485858879E+01  0.52203168929E+01  0.27149269976E+02  0.00000000000E+00 0. -1.
         11    1    1    2    0    0  0.15303554860E+02  0.71533200415E+02  0.12605261643E+03  0.14574107060E+03  0.00000000000E+00 0.  1.
</event>
<event>
 7    1  0.8653652E-006  0.1480306E+03  0.7561462E-02  0.1202914E+00
         -1   -1    0    0    0  501 -0.00000000000E+00  0.00000000000E+00  0.97927372071E+02  0.97927372071E+02  0.00000000000E+00 0.  1.
          1   -1    0    0  501    0  0.00000000000E+00 -0.00000000000E+00 -0.26081720296E+03  0.26081720296E+03  0.00000000000E+00 0. -1.
         23    2    1    2    0    0  0.97265830253E+02  0.32353275805E+02 -0.20848585595E+02  0.16305933329E+03  0.12508519681E+03 0.  0.
          5    1    3    3  502    0  0.66841946626E+02  0.80385539124E+02 -0.15972699379E+02  0.10584082508E+03  0.41800000000E+01 0.  1.
         -5    1    3    3    0  502  0.30423883628E+02 -0.48032263319E+02 -0.48758862164E+01  0.57218508203E+02  0.41800000000E+01 0.  1.
        -11    1    1    2    0    0 -0.70134522861E+02 -0.62444832997E+02 -0.94545140633E+02  0.13325536418E+03  0.00000000000E+00 0.  1.
         11    1    1    2    0    0 -0.27131307392E+02  0.30091557192E+02 -0.47496104659E+02  0.62429877565E+02  0.00000000000E+00 0. -1.
</event>
<event>
 7    1  0.8653652E-006  0.2651686E+03  0.7561462E-02  0.1104077E+00
          2   -1    0    0  501    0  0.00000000000E+00  0.00000000000E+00  0.29016962817E+04  0.29016962817E+04  0.00000000000E+00 0. -1.
         -2   -1    0    0    0  501 -0.00000000000E+00 -0.00000000000E+00 -0.25448625349E+02  0.25448625349E+02  0.00000000000E+00 0.  1.
         23    2    1    2    0    0  0.32650716481E+02 -0.24367237442E+03  0.16671620125E+04  0.16898244283E+04  0.12504050219E+03 0.  0.
          5    1    3    3  502    0  0.53722217495E+02 -0.24209529747E+03  0.14003272289E+04  0.14221216650E+04  0.41800000000E+01 0. -1.
         -5    1    3    3    0  502 -0.21071501014E+02 -0.15770769516E+01  0.26683478366E+03  0.26770276333E+03  0.41800000000E+01 0. -1.
        -11    1    1    2    0    0  0.23117054511E+00  0.22062022012E+03  0.10723710971E+04  0.10948301717E+04  0.00000000000E+00 0.  1.
         11    1    1    2    0    0 -0.32881887027E+02  0.23052154302E+02  0.13671454673E+03  0.14249030704E+03  0.00000000000E+00 0. -1.
</event>
<event>
 7    1  0.8653652E-006  0.1296288E+03  0.7561462E-02  0.1228008E+00
         -1   -1    0    0    0  501 -0.00000000000E+00  0.00000000000E+00  0.79484525423E+02  0.79484525423E+02  0.00000000000E+00 0.  1.
          1   -1    0    0  501    0  0.00000000000E+00 -0.00000000000E+00 -0.57808867989E+03  0.57808867989E+03  0.00000000000E+00 0. -1.
         23    2    1    2    0    0 -0.38126975191E+02  0.10310299461E+03 -0.32389874874E+02  0.16965170016E+03  0.12509477063E+03 0.  0.
          5    1    3    3  502    0 -0.66671470263E+02  0.69009417137E+02 -0.63574382942E+02  0.11518055030E+03  0.41800000000E+01 0. -1.
         -5    1    3    3    0  502  0.28544495072E+02  0.34093577474E+02  0.31184508068E+02  0.54471149863E+02  0.41800000000E+01 0. -1.
        -11    1    1    2    0    0 -0.40723905757E+01 -0.52512005307E+02 -0.77749650254E+02  0.93910080295E+02  0.00000000000E+00 0.  1.
         11    1    1    2    0    0  0.42199365767E+02 -0.50590989305E+02 -0.38846462934E+03  0.39401142486E+03  0.00000000000E+00 0. -1.
</event>
<event>
 7    1  0.8653652E-006  0.1444205E+03  0.7561462E-02  0.1207502E+00
          1   -1    0    0  501    0  0.00000000000E+00  0.00000000000E+00  0.26543945912E+03  0.26543945912E+03  0.00000000000E+00 0. -1.
         -1   -1    0    0    0  501 -0.00000000000E+00 -0.00000000000E+00 -0.11258341682E+03  0.11258341682E+03  0.00000000000E+00 0.  1.
         23    2    1    2    0    0  0.10588577473E+03 -0.58461208440E+02  0.17111086558E+02  0.17486571605E+03  0.12512281640E+03 0.  0.
          5    1    3    3  502    0  0.28567525917E+02 -0.61493619583E+02  0.56114553529E+02  0.88112906570E+02  0.41800000000E+01 0. -1.
         -5    1    3    3    0  502  0.77318248814E+02  0.30324111427E+01 -0.39003466971E+02  0.86752809481E+02  0.41800000000E+01 0. -1.
        -11    1    1    2    0    0  0.11381328380E+02 -0.18795878051E+01 -0.28090264635E+01  0.11872578308E+02  0.00000000000E+00 0.  1.
         11    1    1    2    0    0 -0.11726710311E+03  0.60340796245E+02  0.13855398221E+03  0.19128458158E+03  0.00000000000E+00 0. -1.
</event>
<event>
 7    1  0.8653652E-006  0.1119641E+03  0.7561462E-02  0.1256975E+00
         -1   -1    0    0    0  501 -0.00000000000E+00  0.00000000000E+00  0.43499708583E+02  0.43499708583E+02  0.00000000000E+00 0.  1.
          1   -1    0    0  501    0  0.00000000000E+00 -0.00000000000E+00 -0.44935262344E+03  0.44935262344E+03  0.00000000000E+00 0. -1.
         23    2    1    2    0    0  0.32334998241E+02 -0.80460552742E+02 -0.21503285164E+03  0.26344630591E+03  0.12508147806E+03 0.  0.
          5    1    3    3  502    0  0.41405513728E+02 -0.50927844289E+02 -0.24193906346E+02  0.70077666880E+02  0.41800000000E+01 0.  1.
         -5    1    3    3    0  502 -0.90705154867E+01 -0.29532708453E+02 -0.19083894529E+03  0.19336863903E+03  0.41800000000E+01 0.  1.
        -11    1    1    2    0    0 -0.64157350614E+02  0.40382874795E+02 -0.12219966601E+03  0.14380438306E+03  0.00000000000E+00 0.  1.
         11    1    1    2    0    0  0.31822352373E+02  0.40077677948E+02 -0.68620397200E+02  0.85601643046E+02  0.00000000000E+00 0. -1.
</event>
<event>
 7    1  0.8653652E-006  0.8138598E+02  0.7561462E-02  0.1325164E+00
         -2   -1    0    0    0  501 -0.00000000000E+00  0.00000000000E+00  0.26431700299E+02  0.26431700299E+02  0.00000000000E+00 0.  1.
          2   -1    0    0  501    0  0.00000000000E+00 -0.00000000000E+00 -0.46063314955E+03  0.46063314955E+03  0.00000000000E+00 0. -1.
         23    2    1    2    0    0  0.67441515561E+01 -0.21266811372E+02 -0.24857321652E+03  0.27916609887E+03  0.12508919194E+03 0.  0.
          5    1    3    3  502    0 -0.28792683727E+02  0.24994388382E+02 -0.20055636080E+02  0.43283241854E+02  0.41800000000E+01 0.  1.
         -5    1    3    3    0  502  0.35536835283E+02 -0.46261199753E+02 -0.22851758044E+03  0.23588285701E+03  0.41800000000E+01 0.  1.
        -11    1    1    2    0    0  0.17101878313E+02  0.34610728256E+02 -0.17394957322E+03  0.17818201586E+03  0.00000000000E+00 0. -1.
         11    1    1    2    0    0 -0.23846029869E+02 -0.13343916884E+02 -0.11678659517E+02  0.29716735124E+02  0.00000000000E+00 0.  1.
</event>
<event>
 7    1  0.8653652E-006  0.1596517E+03  0.7561462E-02  0.1189091E+00
          2   -1    0    0  501    0  0.00000000000E+00  0.00000000000E+00  0.83891337262E+03  0.83891337262E+03  0.00000000000E+00 0. -1.
         -2   -1    0    0    0  501 -0.00000000000E+00 -0.00000000000E+00 -0.37251823890E+02  0.37251823890E+02  0.00000000000E+00 0.  1.
         23    2    1    2    0    0  0.96261783838E+02  0.83337349302E+02  0.40216451362E+03  0.44003349303E+03  0.12522673098E+03 0.  0.
          5    1    3    3  502    0  0.40321267917E+02  0.84134083595E+02  0.35393894469E+03  0.36605272522E+03  0.41800000000E+01 0.  1.
         -5    1    3    3    0  502  0.55940515921E+02 -0.79673429310E+00  0.48225568928E+02  0.73980767808E+02  0.41800000000E+01 0.  1.
        -11    1    1    2    0    0 -0.92928095247E+02 -0.67739177544E+01  0.27038174304E+03  0.28598567065E+03  0.00000000000E+00 0. -1.
         11    1    1    2    0    0 -0.33336885914E+01 -0.76563431548E+02  0.12911529207E+03  0.15014603284E+03  0.00000000000E+00 0.  1.
</event>
<event>
 7    1  0.8653652E-006  0.9385232E+02  0.7561462E-02  0.1293782E+00
          1   -1    0    0  501    0  0.00000000000E+00  0.00000000000E+00  0.40443405383E+02  0.40443405383E+02  0.00000000000E+00 0. -1.
         -1   -1    0    0    0  501 -0.00000000000E+00 -0.00000000000E+00 -0.32720478785E+03  0.32720478785E+03  0.00000000000E+00 0.  1.
         23    2    1    2    0    0  0.53357256620E+02  0.14340312486E+01 -0.20863327146E+03  0.24904841926E+03  0.12509284511E+03 0.  0.
          5    1    3    3  502    0  0.83278643242E+01  0.39368834144E+02 -0.97833773365E+01  0.41622653666E+02  0.41800000000E+01 0.  1.
         -5    1    3    3    0  502  0.45029392296E+02 -0.37934802895E+02 -0.19884989412E+03  0.20742576559E+03  0.41800000000E+01 0.  1.
        -11    1    1    2    0    0  0.46016309417E+00 -0.28138758997E+02 -0.33540927286E+02  0.43783505012E+02  0.00000000000E+00 0. -1.
         11    1    1    2    0    0 -0.53817419714E+02  0.26704727749E+02 -0.44587183730E+02  0.74816268965E+02  0.00000000000E+00 0.  1.
</event>
<event>
 7    1  0.8653652E-006  0.9913600E+02  0.7561462E-02  0.1282123E+00
          3   -1    0    0  501    0  0.00000000000E+00  0.00000000000E+00  0.20749767664E+03  0.20749767664E+03  0.00000000000E+00 0. -1.
         -3   -1    0    0    0  501 -0.00000000000E+00 -0.00000000000E+00 -0.76388456643E+02  0.76388456643E+02  0.00000000000E+00 0.  1.
         23    2    1    2    0    0 -0.14421890882E+02 -0.53558994636E+02  0.37473209018E+02  0.14187533011E+03  0.12509121095E+03 0.  0.
          5    1    3    3  502    0  0.67155460800E+01 -0.82665680262E+02  0.57008526687E+02  0.10072813791E+03  0.41800000000E+01 0.  1.
         -5    1    3    3    0  502 -0.21137436962E+02  0.29106685625E+02 -0.19535317669E+02  0.41147192199E+02  0.41800000000E+01 0.  1.
        -11    1    1    2    0    0 -0.91232911477E+01 -0.86049105657E+01 -0.11897649786E+02  0.17286786794E+02  0.00000000000E+00 0.  1.
         11    1    1    2    0    0  0.23545182029E+02  0.62163905202E+02  0.10553366076E+03  0.12472401637E+03  0.00000000000E+00 0. -1.
</event>
<event>
 7    1  0.8653652E-006  0.1049616E+03  0.7561462E-02  0.1270195E+00
          1   -1    0    0  501    0  0.00000000000E+00  0.00000000000E+00  0.37759814267E+03  0.37759814267E+03  0.00000000000E+00 0. -1.
         -1   -1    0    0    0  501 -0.00000000000E+00 -0.00000000000E+00 -0.68613787571E+02  0.68613787571E+02  0.00000000000E+00 0.  1.
         23    2    1    2    0    0 -0.21924839482E+02 -0.10003021358E+03  0.67093984313E+02  0.17503174577E+03  0.12509103517E+03 0.  0.
          5    1    3    3  502    0 -0.12357177777E+02 -0.52285250762E+02  0.10173579189E+03  0.11512641331E+03  0.41800000000E+01 0.  1.
         -5    1    3    3    0  502 -0.95676617047E+01 -0.47744962821E+02 -0.34641807575E+02  0.59905332462E+02  0.41800000000E+01 0.  1.
        -11    1    1    2    0    0 -0.78366833458E+01  0.12953623838E+02  0.33506599072E+01  0.15506027802E+02  0.00000000000E+00 0.  1.
         11    1    1    2    0    0  0.29761522827E+02  0.87076589746E+02  0.23853971088E+03  0.25567415667E+03  0.00000000000E+00 0. -1.
</event>
<event>
 7    1  0.8653652E-006  0.6989946E+02  0.7561462E-02  0.1360435E+00
         -3   -1    0    0    0  501 -0.00000000000E+00  0.00000000000E+00  0.28171221768E+02  0.28171221768E+02  0.00000000000E+00 0.  1.
          3   -1    0    0  501    0  0.00000000000E+00 -0.00000000000E+00 -0.43246108068E+03  0.43246108068E+03  0.00000000000E+00 0. -1.
         23    2    1    2    0    0  0.33918053852E+01  0.17925388328E+02 -0.18363282206E+03  0.22290594541E+03  0.12503288876E+03 0.  0.
          5    1    3    3  502    0 -0.19116292525E+02 -0.55170780450E+01 -0.18866335594E+03  0.18975564567E+03  0.41800000000E+01 0. -1.
         -5    1    3    3    0  502  0.22508097911E+02  0.23442466373E+02  0.50305338846E+01  0.33150299733E+02  0.41800000000E+01 0. -1.
        -11    1    1    2    0    0  0.39712227612E+02 -0.17991399149E+02 -0.13448045935E+03  0.14137094967E+03  0.00000000000E+00 0. -1.
         11    1    1    2    0    0 -0.43104032997E+02  0.66010820180E-01 -0.86176577513E+02  0.96355407372E+02  0.00000000000E+00 0.  1.
</event>
<event>
 7    1  0.8653652E-006  0.1240578E+03  0.7561462E-02  0.1236549E+00
          3   -1    0    0  501    0  0.00000000000E+00  0.00000000000E+00  0.24540218657E+03  0.24540218657E+03  0.00000000000E+00 0. -1.
         -3   -1    0    0    0  501 -0.00000000000E+00 -0.00000000000E+00 -0.95131269997E+02  0.95131269997E+02  0.00000000000E+00 0.  1.
         23    2    1    2    0    0 -0.90624417019E+02 -0.56143035950E+02  0.68551118725E+02  0.17806961633E+03  0.12507880290E+03 0.  0.
          5    1    3    3  502    0 -0.76747877844E+02 -0.11564058323E+01 -0.13693969369E+02  0.78080543191E+02  0.41800000000E+01 0. -1.
         -5    1    3    3    0  502 -0.13876539175E+02 -0.54986630118E+02  0.82245088094E+02  0.99989073137E+02  0.41800000000E+01 0. -1.
        -11    1    1    2    0    0  0.14319781544E+01  0.16860270673E+02  0.60365137739E+02  0.62691858665E+02  0.00000000000E+00 0. -1.
         11    1    1    2    0    0  0.89192438865E+02  0.39282765277E+02  0.21354660107E+02  0.99771981572E+02  0.00000000000E+00 0.  1.
</event>
<event>
 7    1  0.8653652E-006  0.2234036E+03  0.7561462E-02  0.1131371E+00
          2   -1    0    0  501    0  0.00000000000E+00  0.00000000000E+00  0.26500291056E+03  0.26500291056E+03  0.00000000000E+00 0. -1.
         -2   -1    0    0    0  501 -0.00000000000E+00 -0.00000000000E+00 -0.26136016149E+03  0.26136016149E+03  0.00000000000E+00 0.  1.
         23    2    1    2    0    0  0.19879554071E+03 -0.35081164903E+02 -0.12708081434E+03  0.26934709365E+03  0.12509183966E+03 0.  0.
          5    1    3    3  502    0  0.64189591877E+02  0.36051691324E+02 -0.45608488311E+01  0.73880321431E+02  0.41800000000E+01 0. -1.
         -5    1    3    3    0  502  0.13460594883E+03 -0.71132856227E+02 -0.12251996550E+03  0.19546677222E+03  0.41800000000E+01 0. -1.
        -11    1    1    2    0    0 -0.33679443335E+02  0.43997486110E+02  0.25297248757E+02  0.60910052389E+02  0.00000000000E+00 0.  1.
         11    1    1    2    0    0 -0.16511609737E+03 -0.89163212066E+01  0.10542631465E+03  0.19610592601E+03  0.00000000000E+00 0. -1.
</event>
<event>
 7    1  0.8653652E-006  0.1261760E+03  0.7561462E-02  0.1233243E+00
          2   -1    0    0  501    0  0.00000000000E+00  0.00000000000E+00  0.69701003845E+02  0.69701003845E+02  0.00000000000E+00 0. -1.
         -2   -1    0    0    0  501 -0.00000000000E+00 -0.00000000000E+00 -0.32708457184E+03  0.32708457184E+03  0.00000000000E+00 0.  1.
         23    2    1    2    0    0 -0.88362259780E+01 -0.97440903261E+02 -0.19078936481E+03  0.24824464627E+03  0.12510800997E+03 0.  0.
          5    1    3    3  502    0 -0.43366717506E+02 -0.80968626197E+02 -0.18845420686E+03  0.20968798511E+03  0.41800000000E+01 0. -1.
         -5    1    3    3    0  502  0.34530491528E+02 -0.16472277065E+02 -0.23351579422E+01  0.38556661155E+02  0.41800000000E+01 0. -1.
        -11    1    1    2    0    0  0.37114233346E+02  0.26652979531E+02  0.23594627904E+01  0.45753849012E+02  0.00000000000E+00 0. -1.
         11    1    1    2    0    0 -0.28278007368E+02  0.70787923730E+02 -0.68953665982E+02  0.10278708041E+03  0.00000000000E+00 0.  1.
</event>
<event>
 7    1  0.8653652E-006  0.1884664E+03  0.7561462E-02  0.1159852E+00
          2   -1    0    0  501    0  0.00000000000E+00  0.00000000000E+00  0.90393471220E+03  0.90393471220E+03  0.00000000000E+00 0. -1.
         -2   -1    0    0    0  501 -0.00000000000E+00 -0.00000000000E+00 -0.46370567279E+02  0.46370567279E+02  0.00000000000E+00 0.  1.
         23    2    1    2    0    0  0.99068361427E+02  0.12885313248E+03  0.30849504503E+03  0.37045181439E+03  0.12509070306E+03 0.  0.
          5    1    3    3  502    0  0.47652699119E+01 -0.24343147525E+02  0.37752609004E+02  0.45365499174E+02  0.41800000000E+01 0. -1.
         -5    1    3    3    0  502  0.94303091515E+02  0.15319628001E+03  0.27074243602E+03  0.32508631522E+03  0.41800000000E+01 0. -1.
        -11    1    1    2    0    0 -0.72974443574E+01 -0.50911199680E+02  0.76460099695E+02  0.92148520294E+02  0.00000000000E+00 0.  1.
         11    1    1    2    0    0 -0.91770917069E+02 -0.77941932801E+02  0.47260900020E+03  0.48770494480E+03  0.00000000000E+00 0. -1.
</event>
<event>
 7    1  0.8653652E-006  0.9799549E+02  0.7561462E-02  0.1284569E+00
         -2   -1    0    0    0  501 -0.00000000000E+00  0.00000000000E+00  0.95475030620E+02  0.95475030620E+02  0.00000000000E+00 0. -1.
          2   -1    0    0  501    0  0.00000000000E+00 -0.00000000000E+00 -0.16409519240E+03  0.16409519240E+03  0.00000000000E+00 0.  1.
         23    2    1    2    0    0 -0.42265876135E+01 -0.17365662141E+02  0.25400565212E+02  0.12888687193E+03  0.12508879558E+03 0.  0.
          5    1    3    3  502    0 -0.51725900324E+02  0.12305826696E+02 -0.19702726903E+02  0.56856591372E+02  0.41800000000E+01 0.  1.
         -5    1    3    3    0  502  0.47499312710E+02 -0.29671488837E+02  0.45103292116E+02  0.72030280559E+02  0.41800000000E+01 0.  1.
        -11    1    1    2    0    0 -0.21163898664E+02  0.44536063178E+02 -0.72617938387E+02  0.87776628470E+02  0.00000000000E+00 0.  1.
         11    1    1    2    0    0  0.25390486278E+02 -0.27170401037E+02 -0.21402788610E+02  0.42906722623E+02  0.00000000000E+00 0. -1.
</event>
<event>
 6    1  0.8653652E-006  0.9114174E+02  0.7561462E-02  0.1300110E+00
          1   -1    0    0  501    0  0.00000000000E+00  0.00000000000E+00  0.36963140676E+03  0.36963140676E+03  0.00000000000E+00 0. -1.
         -1   -1    0    0    0  501 -0.00000000000E+00 -0.00000000000E+00 -0.43811779232E+02  0.43811779232E+02  0.00000000000E+00 0.  1.
          5    1    1    2  502    0 -0.10508359817E+02  0.64999414457E+02  0.16938744350E+03  0.18178263922E+03  0.41800000000E+01 0. -1.
         -5    1    1    2    0  502  0.17480057339E+02 -0.73277317895E+02  0.47393982283E+02  0.89099829849E+02  0.41800000000E+01 0.  1.
        -11    1    1    2    0    0 -0.23475979831E+02  0.56474213231E+01  0.12011027318E+03  0.12251323488E+03  0.00000000000E+00 0. -1.
         11    1    1    2    0    0  0.16504282309E+02  0.26304821146E+01 -0.11072071433E+02  0.20047482049E+02  0.00000000000E+00 0.  1.
</event>
<event>
 7    1  0.8653652E-006  0.1406197E+03  0.7561462E-02  0.1212497E+00
         -2   -1    0    0    0  501 -0.00000000000E+00  0.00000000000E+00  0.30256935800E+03  0.30256935800E+03  0.00000000000E+00 0.  1.
          2   -1    0    0  501    0  0.00000000000E+00 -0.00000000000E+00 -0.75906705130E+02  0.75906705130E+02  0.00000000000E+00 0. -1.
         23    2    1    2    0    0 -0.10314918832E+03 -0.23245606608E+02  0.14455784336E+03  0.21331474390E+03  0.11587103438E+03 0.  0.
          5    1    3    3  502    0 -0.61085616530E+02 -0.57243215815E+02  0.34553426873E+02  0.90662285501E+02  0.41800000000E+01 0. -1.
         -5    1    3    3    0  502 -0.42063571793E+02  0.33997609207E+02  0.11000441649E+03  0.12265245840E+03  0.41800000000E+01 0.  1.
        -11    1    1    2    0    0  0.71941955784E+02  0.60907687306E+02  0.50646886280E+02  0.10700700194E+03  0.00000000000E+00 0.  1.
         11    1    1    2    0    0  0.31207232539E+02 -0.37662080698E+02  0.31457923224E+02  0.58154317285E+02  0.00000000000E+00 0. -1.
</event>
<event>
 7    1  0.8653652E-006  0.2135991E+03  0.7561462E-02  0.1138747E+00
         -2   -1    0    0    0  501 -0.00000000000E+00  0.00000000000E+00  0.81539963276E+02  0.81539963276E+02  0.00000000000E+00 0. -1.
          2   -1    0    0  501    0  0.00000000000E+00 -0.00000000000E+00 -0.82187641523E+03  0.82187641523E+03  0.00000000000E+00 0.  1.
         23    2    1    2    0    0 -0.13387080436E+02 -0.20433601294E+03 -0.18042375035E+03  0.30021895507E+03  0.12508505581E+03 0.  0.
          5    1    3    3  502    0 -0.82638592545E+01 -0.15395082838E+03 -0.19379173376E+03  0.24767288387E+03  0.41800000000E+01 0.  1.
         -5    1    3    3    0  502 -0.51232211819E+01 -0.50385184564E+02  0.13367983410E+02  0.52546071206E+02  0.41800000000E+01 0.  1.
        -11    1    1    2    0    0 -0.22020293693E+02  0.17440218937E+03 -0.40522729546E+03  0.44171277770E+03  0.00000000000E+00 0. -1.
         11    1    1    2    0    0  0.35407374129E+02  0.29933823568E+02 -0.15468540614E+03  0.16148464574E+03  0.00000000000E+00 0.  1.
</event>
<event>
 7    1  0.8653652E-006  0.8344173E+02  0.7561462E-02  0.1319559E+00
          2   -1    0    0  501    0  0.00000000000E+00  0.00000000000E+00  0.45254330072E+03  0.45254330072E+03  0.00000000000E+00 0.  1.
         -2   -1    0    0    0  501 -0.00000000000E+00 -0.00000000000E+00 -0.35630543649E+02  0.35630543649E+02  0.00000000000E+00 0. -1.
         23    2    1    2    0    0 -0.61977757496E+02 -0.51996014798E+01  0.16007198990E+03  0.21245981496E+03  0.12509137756E+03 0.  0.
          5    1    3    3  502    0 -0.42267711266E+02  0.92969558631E+01  0.17709984683E+03  0.18235904406E+03  0.41800000000E+01 0. -1.
         -5    1    3    3    0  502 -0.19710046231E+02 -0.14496557343E+02 -0.17027856926E+02  0.30100770899E+02  0.41800000000E+01 0. -1.
        -11    1    1    2    0    0 -0.11182966189E+02  0.20947839443E+02  0.42493088813E+02  0.48677852325E+02  0.00000000000E+00 0. -1.
         11    1    1    2    0    0  0.73160723685E+02 -0.15748237963E+02  0.21434767836E+03  0.22703617709E+03  0.00000000000E+00 0.  1.
</event>
<event>
 7    1  0.8653652E-006  0.1367732E+03  0.7561462E-02  0.1217738E+00
         -1   -1    0    0    0  501 -0.00000000000E+00  0.00000000000E+00  0.20545086900E+03  0.20545086900E+03  0.00000000000E+00 0.  1.
          1   -1    0    0  501    0  0.00000000000E+00 -0.00000000000E+00 -0.16317839141E+03  0.16317839141E+03  0.00000000000E+00 0. -1.
         23    2    1    2    0    0 -0.10488133655E+03  0.68054667088E+01  0.13190682846E+03  0.20333079513E+03  0.11356756456E+03 0.  0.
          5    1    3    3  502    0  0.14111614362E+02 -0.92656669900E+01  0.61856393003E+02  0.64254774142E+02  0.41800000000E+01 0. -1.
         -5    1    3    3    0  502 -0.11899295092E+03  0.16071133699E+02  0.70050435457E+02  0.13907602099E+03  0.41800000000E+01 0.  1.
        -11    1    1    2    0    0  0.11769239899E+03 -0.17919547317E+02 -0.88424329832E+02  0.14829522266E+03  0.00000000000E+00 0. -1.
         11    1    1    2    0    0 -0.12811062440E+02  0.11114080608E+02 -0.12100210413E+01  0.17003242618E+02  0.00000000000E+00 0.  1.
</event>
<event>
 7    1  0.8653652E-006  0.1167496E+03  0.7561462E-02  0.1248558E+00
         -4   -1    0    0    0  501 -0.00000000000E+00  0.00000000000E+00  0.32744509551E+03  0.32744509551E+03  0.00000000000E+00 0.  1.
          4   -1    0    0  501    0  0.00000000000E+00 -0.00000000000E+00 -0.69042364492E+02  0.69042364492E+02  0.00000000000E+00 0. -1.
         23    2    1    2    0    0 -0.11294469733E+02 -0.41661549159E+02  0.26110236396E+03  0.29271593240E+03  0.12507966617E+03 0.  0.
          5    1    3    3  502    0 -0.52894460190E+02 -0.65386173547E+02  0.16968605905E+03  0.18943074366E+03  0.41800000000E+01 0.  1.
         -5    1    3    3    0  502  0.41599990457E+02  0.23724624388E+02  0.91416304913E+02  0.10328518874E+03  0.41800000000E+01 0.  1.
        -11    1    1    2    0    0  0.48023098576E+02  0.33368776010E+01 -0.12629555844E+02  0.49768046272E+02  0.00000000000E+00 0. -1.
         11    1    1    2    0    0 -0.36728628843E+02  0.38324671558E+02  0.99299229007E+01  0.54003481328E+02  0.00000000000E+00 0.  1.
</event>
<event>
 7    1  0.8653652E-006  0.1041529E+03  0.7561462E-02  0.1271798E+00
          2   -1    0    0  501    0  0.00000000000E+00  0.00000000000E+00  0.24275755772E+03  0.24275755772E+03  0.00000000000E+00 0.  1.
         -2   -1    0    0    0  501 -0.00000000000E+00 -0.00000000000E+00 -0.69036413819E+02  0.69036413819E+02  0.00000000000E+00 0. -1.
         23    2    1    2    0    0  0.23545158717E+02 -0.39728211762E+02  0.11212819793E+03  0.17421975032E+03  0.12508830210E+03 0.  0.
          5    1    3    3  502    0 -0.31509816650E+01 -0.80816697702E+02  0.87476944093E+02  0.11920971211E+03  0.41800000000E+01 0. -1.
         -5    1    3    3    0  502  0.26696140382E+02  0.41088485941E+02  0.24651253832E+02  0.55010038208E+02  0.41800000000E+01 0. -1.
        -11    1    1    2    0    0  0.21872163888E+02  0.12870208998E+02  0.78234543988E+02  0.82247660792E+02  0.00000000000E+00 0.  1.
         11    1    1    2    0    0 -0.45417322604E+02  0.26858002764E+02 -0.16641598010E+02  0.55326560433E+02  0.00000000000E+00 0. -1.
</event>
<event>
 7    1  0.8653652E-006  0.1314866E+03  0.7561462E-02  0.1225266E+00
         -3   -1    0    0    0  501 -0.00000000000E+00  0.00000000000E+00  0.47663366153E+02  0.47663366153E+02  0.00000000000E+00 0.  1.
          3   -1    0    0  501    0  0.00000000000E+00 -0.00000000000E+00 -0.58312905312E+03  0.58312905312E+03  0.00000000000E+00 0. -1.
         23    2    1    2    0    0 -0.13455055987E+02  0.12366457888E+03 -0.26263913014E+03  0.31638778637E+03  0.12509177463E+03 0.  0.
          5    1    3    3  502    0 -0.13003933826E+02  0.62017271749E+02 -0.24358408325E+03  0.25172588723E+03  0.41800000000E+01 0.  1.
         -5    1    3    3    0  502 -0.45112216069E+00  0.61647307134E+02 -0.19055046896E+02  0.64661899140E+02  0.41800000000E+01 0.  1.
        -11    1    1    2    0    0  0.36668053025E+02 -0.85156710018E+02 -0.10235992500E+03  0.13810780434E+03  0.00000000000E+00 0.  1.
         11    1    1    2    0    0 -0.23212997038E+02 -0.38507868865E+02 -0.17046663183E+03  0.17629682857E+03  0.00000000000E+00 0. -1.
</event>
<event>
 7    1  0.8653652E-006  0.8348688E+02  0.7561462E-02  0.1319438E+00
          2   -1    0    0  501    0  0.00000000000E+00  0.00000000000E+00  0.47488011885E+02  0.47488011885E+02  0.00000000000E+00 0. -1.
         -2   -1    0    0    0  501 -0.00000000000E+00 -0.00000000000E+00 -0.43906266460E+03  0.43906266460E+03  0.00000000000E+00 0.  1.
         23    2    1    2    0    0 -0.46973898606E+02  0.56082674860E+01 -0.35110653645E+03  0.37571490192E+03  0.12509151760E+03 0.  0.
          5    1    3    3  502    0  0.20653053792E+02  0.60161505870E+01 -0.26613431981E+03  0.26703500010E+03  0.41800000000E+01 0. -1.
         -5    1    3    3    0  502 -0.67626952398E+02 -0.40788310099E+00 -0.84972216641E+02  0.10867990182E+03  0.41800000000E+01 0. -1.
        -11    1    1    2    0    0  0.31456631884E+02 -0.33144375179E+02  0.14059773875E+02  0.47809481663E+02  0.00000000000E+00 0. -1.
         11    1    1    2    0    0  0.15517266722E+02  0.27536107693E+02 -0.54527890144E+02  0.63026292902E+02  0.00000000000E+00 0.  1.
</event>
<event>
 7    1  0.8653652E-006  0.1193439E+03  0.7561462E-02  0.1244183E+00
          1   -1    0    0  501    0  0.00000000000E+00  0.00000000000E+00  0.79698607319E+02  0.79698607319E+02  0.00000000000E+00 0. -1.
         -1   -1    0    0    0  501 -0.00000000000E+00 -0.00000000000E+00 -0.29404378462E+03  0.29404378462E+03  0.00000000000E+00 0.  1.
         23    2    1    2    0    0  0.95372638198E+02  0.10878624589E+02 -0.17951498755E+03  0.23892947628E+03  0.12508948514E+03 0.  0.
          5    1    3    3  502    0  0.10717990141E+03  0.37711037419E+01 -0.69253007330E+02  0.12773098259E+03  0.41800000000E+01 0.  1.
         -5    1    3    3    0  502 -0.11807263212E+02  0.71075208472E+01 -0.11026198022E+03  0.11119849369E+03  0.41800000000E+01 0.  1.
        -11    1    1    2    0    0 -0.52929525565E+02 -0.39260215325E+02 -0.48655448226E+02  0.81916126776E+02  0.00000000000E+00 0.  1.
         11    1    1    2    0    0 -0.42443112632E+02  0.28381590736E+02  0.13825258470E+02  0.52896788885E+02  0.00000000000E+00 0. -1.
</event>
<event>
 7    1  0.8653652E-006  0.1206665E+03  0.7561462E-02  0.1242002E+00
          2   -1    0    0  501    0  0.00000000000E+00  0.00000000000E+00  0.41422514599E+03  0.41422514599E+03  0.00000000000E+00 0.  1.
         -2   -1    0    0    0  501 -0.00000000000E+00 -0.00000000000E+00 -0.53783699444E+02  0.53783699444E+02  0.00000000000E+00 0. -1.
         23    2    1    2    0    0  0.42241158857E+02 -0.97644887212E+02  0.19824853204E+03  0.25742897053E+03  0.12509338477E+03 0.  0.
          5    1    3    3  502    0 -0.18432320880E+02 -0.46892661890E-01 -0.85990317342E+01  0.20764594836E+02  0.41800000000E+01 0. -1.
         -5    1    3    3    0  502  0.60673479736E+02 -0.97597994550E+02  0.20684756377E+03  0.23666437569E+03  0.41800000000E+01 0. -1.
        -11    1    1    2    0    0 -0.39753664802E+02  0.77137789774E+02  0.16802837469E+03  0.18911405865E+03  0.00000000000E+00 0.  1.
         11    1    1    2    0    0 -0.24874940549E+01  0.20507097439E+02 -0.58354601840E+01  0.21465816257E+02  0.00000000000E+00 0. -1.
</event>
<event>
 7    1  0.8653652E-006  0.1525823E+03  0.7561462E-02  0.1197335E+00
         -4   -1    0    0    0  501 -0.00000000000E+00  0.00000000000E+00  0.26663848386E+03  0.26663848386E+03  0.00000000000E+00 0.  1.
          4   -1    0    0  501    0  0.00000000000E+00 -0.00000000000E+00 -0.90523069773E+02  0.90523069773E+02  0.00000000000E+00 0. -1.
         23    2    1    2    0    0  0.73767434485E+02 -0.78867445677E+02  0.12548686612E+03  0.20750000603E+03  0.12509032959E+03 0.  0.
          5    1    3    3  502    0  0.10680293638E+03 -0.41094277028E+02  0.80498314819E+02  0.13997520464E+03  0.41800000000E+01 0.  1.
         -5    1    3    3    0  502 -0.33035501897E+02 -0.37773168649E+02  0.44988551297E+02  0.67524801393E+02  0.41800000000E+01 0.  1.
        -11    1    1    2    0    0 -0.43275651571E+02  0.96013242113E+02  0.43583425509E+02  0.11397736468E+03  0.00000000000E+00 0.  1.
         11    1    1    2    0    0 -0.30491782914E+02 -0.17145796436E+02  0.70451224661E+01  0.35684182928E+02  0.00000000000E+00 0. -1.
</event>
<event>
 6    1  0.8653652E-006  0.1148236E+03  0.7561462E-02  0.1251889E+00
          2   -1    0    0  501    0  0.00000000000E+00  0.00000000000E+00  0.41785139631E+02  0.41785139631E+02  0.00000000000E+00 0. -1.
         -2   -1    0    0    0  501 -0.00000000000E+00 -0.00000000000E+00 -0.62420111354E+03  0.62420111354E+03  0.00000000000E+00 0.  1.
          5    1    1    2  502    0 -0.17255777034E+02  0.67840447026E+02 -0.16053133919E+03  0.17517954035E+03  0.41800000000E+01 0. -1.
         -5    1    1    2    0  502 -0.13550052320E+00 -0.53429513486E+02 -0.36671292392E+03  0.37060838124E+03  0.41800000000E+01 0.  1.
        -11    1    1    2    0    0  0.58794091025E+02 -0.23877294357E+02 -0.40424209341E+02  0.75239531007E+02  0.00000000000E+00 0. -1.
         11    1    1    2    0    0 -0.41402813468E+02  0.94663608180E+01 -0.14747501451E+02  0.44958800576E+02  0.00000000000E+00 0.  1.
</event>
<event>
 7    1  0.8653652E-006  0.1154523E+03  0.7561462E-02  0.1250794E+00
          1   -1    0    0  501    0  0.00000000000E+00  0.00000000000E+00  0.42803048042E+03  0.42803048042E+03  0.00000000000E+00 0. -1.
         -1   -1    0    0    0  501 -0.00000000000E+00 -0.00000000000E+00 -0.41983786093E+02  0.41983786093E+02  0.00000000000E+00 0.  1.
         23    2    1    2    0    0  0.11521090179E+02  0.76336956670E+02  0.18368545692E+03  0.23526253537E+03  0.12509215399E+03 0.  0.
          5    1    3    3  502    0 -0.44001579105E+02  0.58987194493E+02  0.49049182289E+02  0.88537691189E+02  0.41800000000E+01 0.  1.
         -5    1    3    3    0  502  0.55522669284E+02  0.17349762177E+02  0.13463627463E+03  0.14672484418E+03  0.41800000000E+01 0.  1.
        -11    1    1    2    0    0  0.24913001450E+02 -0.41868391670E+02  0.34871276447E+02  0.59913485822E+02  0.00000000000E+00 0.  1.
         11    1    1    2    0    0 -0.36434091629E+02 -0.34468565001E+02  0.16748996095E+03  0.17483824532E+03  0.00000000000E+00 0. -1.
</event>
<event>
 7    1  0.8653652E-006  0.7863315E+02  0.7561462E-02  0.1332976E+00
          2   -1    0    0  501    0  0.00000000000E+00  0.00000000000E+00  0.12304659656E+03  0.12304659656E+03  0.00000000000E+00 0. -1.
         -2   -1    0    0    0  501 -0.00000000000E+00 -0.00000000000E+00 -0.12082978191E+03  0.12082978191E+03  0.00000000000E+00 0.  1.
         23    2    1    2    0    0  0.25110112220E+02  0.43245049731E+01 -0.48494169015E+02  0.13656168432E+03  0.12509272608E+03 0.  0.
          5    1    3    3  502    0 -0.28006876868E+01  0.36382969249E+02 -0.76931627554E+02  0.85249703935E+02  0.41800000000E+01 0. -1.
         -5    1    3    3    0  502  0.27910799907E+02 -0.32058464276E+02  0.28437458540E+02  0.51311980388E+02  0.41800000000E+01 0. -1.
        -11    1    1    2    0    0  0.22023598378E+02 -0.18332111319E+02 -0.89331773783E+01  0.30015110345E+02  0.00000000000E+00 0.  1.
         11    1    1    2    0    0 -0.47133710598E+02  0.14007606346E+02  0.59644161038E+02  0.77299583803E+02  0.00000000000E+00 0. -1.
</event>
<event>
 7    1  0.8653652E-006  0.1336581E+03  0.7561462E-02  0.1222127E+00
          2   -1    0    0  501    0  0.00000000000E+00  0.00000000000E+00  0.11826829283E+03  0.11826829283E+03  0.00000000000E+00 0. -1.
         -2   -1    0    0    0  501 -0.00000000000E+00 -0.00000000000E+00 -0.23508509823E+03  0.23508509823E+03  0.00000000000E+00 0.  1.
         23    2    1    2    0    0 -0.92640415424E+01  0.84573032985E+02 -0.16785582340E+03  0.22596726449E+03  0.12508879567E+03 0.  0.
          5    1    3    3  502    0 -0.67206947654E+02  0.45715397529E+02 -0.90301485141E+02  0.12156686227E+03  0.41800000000E+01 0. -1.
         -5    1    3    3    0  502  0.57942906112E+02  0.38857635456E+02 -0.77554338255E+02  0.10440040222E+03  0.41800000000E+01 0. -1.
        -11    1    1    2    0    0 -0.18453662247E+02  0.74714907745E+01  0.14143781802E+02  0.24421453445E+02  0.00000000000E+00 0.  1.
         11    1    1    2    0    0  0.27717703789E+02 -0.92044523759E+02  0.36895236198E+02  0.10296467312E+03  0.00000000000E+00 0. -1.
</event>
<event>
 7    1  0.8653652E-006  0.2895770E+03  0.7561462E-02  0.1090570E+00
         -2   -1    0    0    0  501 -0.00000000000E+00  0.00000000000E+00  0.13121359385E+03  0.13121359385E+03  0.00000000000E+00 0.  1.
          2   -1    0    0  501    0  0.00000000000E+00 -0.00000000000E+00 -0.82774193817E+03  0.82774193817E+03  0.00000000000E+00 0. -1.
         23    2    1    2    0    0 -0.20189204561E+03  0.19358407519E+03 -0.14734895207E+03  0.33589765257E+03  0.11349152867E+03 0.  0.
          5    1    3    3  502    0  0.70632496736E+01 -0.14306550610E+01 -0.22460589921E+02  0.23955933909E+02  0.41800000000E+01 0. -1.
         -5    1    3    3    0  502 -0.20895529528E+03  0.19501473025E+03 -0.12488836215E+03  0.31194171866E+03  0.41800000000E+01 0.  1.
        -11    1    1    2    0    0  0.52338853849E+02 -0.20456906791E+02 -0.18162614830E+03  0.19012074690E+03  0.00000000000E+00 0.  1.
         11    1    1    2    0    0  0.14955319176E+03 -0.17312716840E+03 -0.36755324395E+03  0.43293713255E+03  0.00000000000E+00 0. -1.
</event>
<event>
 7    1  0.8653652E-006  0.7606121E+02  0.7561462E-02  0.1340616E+00
         -1   -1    0    0    0  501 -0.00000000000E+00  0.00000000000E+00  0.48891513596E+02  0.48891513596E+02  0.00000000000E+00 0.  1.
          1   -1    0    0  501    0  0.00000000000E+00 -0.00000000000E+00 -0.25966137029E+03  0.25966137029E+03  0.00000000000E+00 0. -1.
         23    2    1    2    0    0 -0.18175940099E+02 -0.27528333805E+02 -0.11695025453E+03  0.17439309296E+03  0.12508962737E+03 0.  0.
          5    1    3    3  502    0 -0.33450945849E+02  0.27944875059E+01 -0.13254761267E+03  0.13679589527E+03  0.41800000000E+01 0. -1.
         -5    1    3    3    0  502  0.15275005749E+02 -0.30322821311E+02  0.15597358138E+02  0.37597197685E+02  0.41800000000E+01 0. -1.
        -11    1    1    2    0    0  0.68060210241E+01 -0.27277449307E+02 -0.65823643796E+02  0.71576066150E+02  0.00000000000E+00 0. -1.
         11    1    1    2    0    0  0.11369919075E+02  0.54805783112E+02 -0.27995958362E+02  0.62583724777E+02  0.00000000000E+00 0.  1.
</event>
<event>
 7    1  0.8653652E-006  0.7938872E+02  0.7561462E-02  0.1330795E+00
          1   -1    0    0  501    0  0.00000000000E+00  0.00000000000E+00  0.61315084106E+02  0.61315084106E+02  0.00000000000E+00 0. -1.
         -1   -1    0    0    0  501 -0.00000000000E+00 -0.00000000000E+00 -0.23031537863E+03  0.23031537863E+03  0.00000000000E+00 0.  1.
         23    2    1    2    0    0  0.10310586000E+02 -0.13586516950E+02 -0.13949129641E+03  0.18813933697E+03  0.12509071394E+03 0.  0.
          5    1    3    3  502    0 -0.24387060362E+02  0.41793550596E+02 -0.10127346754E+03  0.11231748400E+03  0.41800000000E+01 0. -1.
         -5    1    3    3    0  502  0.34697646362E+02 -0.55380067546E+02 -0.38217828876E+02  0.75821852975E+02  0.41800000000E+01 0. -1.
        -11    1    1    2    0    0  0.42784222402E+01  0.25519543328E+02  0.30845824183E+02  0.40261853634E+02  0.00000000000E+00 0. -1.
         11    1    1    2    0    0 -0.14589008240E+02 -0.11933026377E+02 -0.60354822296E+02  0.63229272132E+02  0.00000000000E+00 0.  1.
</event>
<event>
 7    1  0.8653652E-006  0.8748403E+02  0.7561462E-02  0.1309061E+00
          2   -1    0    0  501    0  0.00000000000E+00  0.00000000000E+00  0.17811044735E+03  0.17811044735E+03  0.00000000000E+00 0. -1.
         -2   -1    0    0    0  501 -0.00000000000E+00 -0.00000000000E+00 -0.10152477117E+03  0.10152477117E+03  0.00000000000E+00 0.  1.
         23    2    1    2    0    0 -0.40631022582E+02 -0.67954536042E+02  0.31713986957E+02  0.15139965776E+03  0.12508948972E+03 0.  0.
          5    1    3    3  502    0 -0.99089015029E+01  0.81887967300E+01  0.62247991178E+02  0.63698724685E+02  0.41800000000E+01 0.  1.
         -5    1    3    3    0  502 -0.30722121080E+02 -0.76143332772E+02 -0.30534004221E+02  0.87700933080E+02  0.41800000000E+01 0.  1.
        -11    1    1    2    0    0  0.12494923849E+02  0.23783635147E+02  0.66387173691E+02  0.71617325093E+02  0.00000000000E+00 0. -1.
         11    1    1    2    0    0  0.28136098734E+02  0.44170900895E+02 -0.21515484463E+02  0.56618235662E+02  0.00000000000E+00 0.  1.
</event>
<event>
 7    1  0.8653652E-006  0.8236690E+02  0.7561462E-02  0.1322466E+00
         -2   -1    0    0    0  501 -0.00000000000E+00  0.00000000000E+00  0.30816199093E+02  0.30816199093E+02  0.00000000000E+00 0.  1.
          2   -1    0    0  501    0  0.00000000000E+00 -0.00000000000E+00 -0.45566634924E+03  0.45566634924E+03  0.00000000000E+00 0. -1.
         23    2    1    2    0    0  0.33567299805E+02  0.14324824283E+01 -0.18248463563E+03  0.22377861132E+03  0.12508960397E+03 0.  0.
          5    1    3    3  502    0  0.26501869070E+02 -0.29051896279E+02 -0.98904124384E+00  0.39557709036E+02  0.41800000000E+01 0. -1.
         -5    1    3    3    0  502  0.70654307347E+01  0.30484378707E+02 -0.18149559438E+03  0.18422090228E+03  0.41800000000E+01 0. -1.
        -11    1    1    2    0    0 -0.40283178904E+02 -0.38634081565E+02 -0.91549946663E+02  0.10722275642E+03  0.00000000000E+00 0.  1.
         11    1    1    2    0    0  0.67158790992E+01  0.37201599136E+02 -0.15081556785E+03  0.15548118059E+03  0.00000000000E+00 0. -1.
</event>
<event>
 6    1  0.8653652E-006  0.2066974E+03  0.7561462E-02  0.1144208E+00
         -3   -1    0    0    0  501 -0.00000000000E+00  0.00000000000E+00  0.88106061497E+02  0.88106061497E+02  0.00000000000E+00 0.  1.
          3   -1    0    0  501    0  0.00000000000E+00 -0.00000000000E+00 -0.68892916297E+03  0.68892916297E+03  0.00000000000E+00 0. -1.
          5    1    1    2  502    0 -0.12283043346E+02  0.94558249380E+02 -0.78086046681E+02  0.12331682272E+03  0.41800000000E+01 0. -1.
         -5    1    1    2    0  502  0.14037993020E+03  0.11324503515E+02 -0.60631589691E+02  0.15338980166E+03  0.41800000000E+01 0.  1.
        -11    1    1    2    0    0 -0.68002085290E+02 -0.17574729976E+02 -0.95943742048E+02  0.11890482066E+03  0.00000000000E+00 0.  1.
         11    1    1    2    0    0 -0.60094801566E+02 -0.88308022920E+02 -0.36616172305E+03  0.38142377943E+03  0.00000000000E+00 0. -1.
</event>
<event>
 7    1  0.8653652E-006  0.9931677E+02  0.7561462E-02  0.1281739E+00
         -1   -1    0    0    0  501 -0.00000000000E+00  0.00000000000E+00  0.15486589439E+02  0.15486589439E+02  0.00000000000E+00 0.  1.
          1   -1    0    0  501    0  0.00000000000E+00 -0.00000000000E+00 -0.84528630964E+03  0.84528630964E+03  0.00000000000E+00 0. -1.
         23    2    1    2    0    0  0.37271222525E+02 -0.17984279971E+02 -0.48755339502E+03  0.50504169342E+03  0.12508485418E+03 0.  0.
          5    1    3    3  502    0  0.50402004231E+02 -0.50011169355E+02 -0.44195155165E+03  0.44763838698E+03  0.41800000000E+01 0. -1.
         -5    1    3    3    0  502 -0.13130781707E+02  0.32026889383E+02 -0.45601843365E+02  0.57403306438E+02  0.41800000000E+01 0. -1.
        -11    1    1    2    0    0 -0.12611855094E+02 -0.33369961602E+02 -0.18677725437E+03  0.19015350635E+03  0.00000000000E+00 0. -1.
         11    1    1    2    0    0 -0.24659367430E+02  0.51354241573E+02 -0.15546907081E+03  0.16557769931E+03  0.00000000000E+00 0.  1.
</event>
<event>
 7    1  0.8653652E-006  0.2316159E+03  0.7561462E-02  0.1125508E+00
          1   -1    0    0  501    0  0.00000000000E+00  0.00000000000E+00  0.80740278739E+03  0.80740278739E+03  0.00000000000E+00 0. -1.
         -1   -1    0    0    0  501 -0.00000000000E+00 -0.00000000000E+00 -0.91790586415E+02  0.91790586415E+02  0.00000000000E+00 0.  1.
         23    2    1    2    0    0 -0.21974592974E+03  0.62686891833E+02  0.20209835766E+03  0.32971033422E+03  0.12508892150E+03 0.  0.
          5    1    3    3  502    0 -0.16517792787E+03  0.64044542907E+02  0.77109919956E+02  0.19325854053E+03  0.41800000000E+01 0. -1.
         -5    1    3    3    0  502 -0.54568001868E+02 -0.13576510740E+01  0.12498843770E+03  0.13645179370E+03  0.41800000000E+01 0. -1.
        -11    1    1    2    0    0  0.47738120175E+02 -0.29442858671E+02  0.54636119151E+02  0.78300163221E+02  0.00000000000E+00 0.  1.
         11    1    1    2    0    0  0.17200780956E+03 -0.33244033162E+02  0.45887772417E+03  0.49118287636E+03  0.00000000000E+00 0. -1.
</event>
<event>
 7    1  0.8653652E-006  0.8450248E+02  0.7561462E-02  0.1316739E+00
         -1   -1    0    0    0  501 -0.00000000000E+00  0.00000000000E+00  0.29545572299E+02  0.29545572299E+02  0.00000000000E+00 0.  1.
          1   -1    0    0  501    0  0.00000000000E+00 -0.00000000000E+00 -0.43531147488E+03  0.43531147488E+03  0.00000000000E+00 0. -1.
         23    2    1    2    0    0  0.27589692175E+02  0.83279457176E+01 -0.19262083998E+03  0.23147499625E+03  0.12508932848E+03 0.  0.
          5    1    3    3  502    0 -0.18852056440E+02 -0.32547218537E+02 -0.10776384299E+02  0.39348752523E+02  0.41800000000E+01 0.  1.
         -5    1    3    3    0  502  0.46441748616E+02  0.40875164255E+02 -0.18184445568E+03  0.19212624373E+03  0.41800000000E+01 0.  1.
        -11    1    1    2    0    0 -0.14863479630E+02  0.27429220429E+02 -0.21196464886E+02  0.37717042352E+02  0.00000000000E+00 0.  1.
         11    1    1    2    0    0 -0.12726212545E+02 -0.35757166147E+02 -0.19194859771E+03  0.19566500857E+03  0.00000000000E+00 0. -1.
</event>
<event>
 7    1  0.8653652E-006  0.1164659E+03  0.7561462E-02  0.1249044E+00
         -1   -1    0    0    0  501 -0.00000000000E+00  0.00000000000E+00  0.16303834007E+03  0.16303834007E+03  0.00000000000E+00 0.  1.
          1   -1    0    0  501    0  0.00000000000E+00 -0.00000000000E+00 -0.11510166676E+03  0.11510166676E+03  0.00000000000E+00 0. -1.
         23    2    1    2    0    0  0.65078168249E+02  0.67128892559E+01  0.74823331311E+02  0.15977100770E+03  0.12509201864E+03 0.  0.
          5    1    3    3  502    0 -0.14395073377E+02 -0.43220620148E+02  0.13961972682E+02  0.47829376169E+02  0.41800000000E+01 0. -1.
         -5    1    3    3    0  502  0.79473241626E+02  0.49933509404E+02  0.60861358628E+02  0.11194163153E+03  0.41800000000E+01 0. -1.
        -11    1    1    2    0    0 -0.52705429794E+02  0.25629218295E+02  0.18339080429E+02  0.61408802554E+02  0.00000000000E+00 0.  1.
         11    1    1    2    0    0 -0.12372738455E+02 -0.32342107551E+02 -0.45225738425E+02  0.56960196575E+02  0.00000000000E+00 0. -1.
</event>
<event>
 7    1  0.8653652E-006  0.8621674E+02  0.7561462E-02  0.1312281E+00
          1   -1    0    0  501    0  0.00000000000E+00  0.00000000000E+00  0.62417244998E+03  0.62417244998E+03  0.00000000000E+00 0. -1.
         -1   -1    0    0    0  501 -0.00000000000E+00 -0.00000000000E+00 -0.19092626022E+02  0.19092626022E+02  0.00000000000E+00 0.  1.
         23    2    1    2    0    0  0.10720449948E+02 -0.25945985055E+01  0.31892001178E+03  0.34275584930E+03  0.12509971354E+03 0.  0.
          5    1    3    3  502    0  0.47887475717E+02  0.19462398898E+01  0.29324060347E+03  0.29716076811E+03  0.41800000000E+01 0. -1.
         -5    1    3    3    0  502 -0.37167025769E+02 -0.45408383953E+01  0.25679408311E+02  0.45595081194E+02  0.41800000000E+01 0. -1.
        -11    1    1    2    0    0 -0.28199455998E+02  0.37907811358E+02  0.10540128675E+03  0.11550602897E+03  0.00000000000E+00 0.  1.
         11    1    1    2    0    0  0.17479006050E+02 -0.35313212853E+02  0.18075852543E+03  0.18500319773E+03  0.00000000000E+00 0. -1.
</event>
<event>
 7    1  0.8653652E-006  0.2472577E+03  0.7561462E-02  0.1115050E+00
         -1   -1    0    0    0  501 -0.00000000000E+00  0.00000000000E+00  0.36352781840E+03  0.36352781840E+03  0.00000000000E+00 0.  1.
          1   -1    0    0  501    0  0.00000000000E+00 -0.00000000000E+00 -0.42012595179E+03  0.42012595179E+03  0.00000000000E+00 0. -1.
         23    2    1    2    0    0 -0.21893924274E+03  0.38353586550E+02  0.27384359185E+03  0.37422475901E+03  0.12509383616E+03 0.  0.
          5    1    3    3  502    0 -0.41442657165E+02 -0.42491014372E+02  0.73880696227E+02  0.94862056747E+02  0.41800000000E+01 0.  1.
         -5    1    3    3    0  502 -0.17749658557E+03  0.80844600922E+02  0.19996289562E+03  0.27936270226E+03  0.41800000000E+01 0.  1.
        -11    1    1    2    0    0  0.56602073302E+02 -0.52205114406E+02 -0.83523954903E+02  0.11360202337E+03  0.00000000000E+00 0.  1.
         11    1    1    2    0    0  0.16233716943E+03  0.13851527856E+02 -0.24691777034E+03  0.29582698780E+03  0.00000000000E+00 0. -1.
</event>
<event>
 7    1  0.8653652E-006  0.8011425E+02  0.7561462E-02  0.1328728E+00
         -1   -1    0    0    0  501 -0.00000000000E+00  0.00000000000E+00  0.12270439749E+03  0.12270439749E+03  0.00000000000E+00 0.  1.
          1   -1    0    0  501    0  0.00000000000E+00 -0.00000000000E+00 -0.12253993999E+03  0.12253993999E+03  0.00000000000E+00 0. -1.
         23    2    1    2    0    0 -0.87216628504E+01  0.48903743361E+02  0.30821137017E+02  0.13798468410E+03  0.12498874766E+03 0.  0.
          5    1    3    3  502    0  0.26549569713E+02 -0.10738567206E+01 -0.37523337728E+02  0.46168236857E+02  0.41800000000E+01 0. -1.
         -5    1    3    3    0  502 -0.35271232564E+02  0.49977600081E+02  0.68344474745E+02  0.91816447244E+02  0.41800000000E+01 0. -1.
        -11    1    1    2    0    0 -0.15608404579E+02 -0.44674250609E+02 -0.55018630012E+02  0.72570383831E+02  0.00000000000E+00 0. -1.
         11    1    1    2    0    0  0.24330067430E+02 -0.42294927516E+01  0.24361950491E+02  0.34689269549E+02  0.00000000000E+00 0.  1.
</event>
<event>
 7    1  0.8653652E-006  0.1056226E+03  0.7561462E-02  0.1268898E+00
          2   -1    0    0  501    0  0.00000000000E+00  0.00000000000E+00  0.39904137492E+03  0.39904137492E+03  0.00000000000E+00 0. -1.
         -2   -1    0    0    0  501 -0.00000000000E+00 -0.00000000000E+00 -0.35231076752E+02  0.35231076752E+02  0.00000000000E+00 0.  1.
         23    2    1    2    0    0 -0.22482481039E+02  0.38017223677E+02  0.17054431966E+03  0.21606631968E+03  0.12509403776E+03 0.  0.
          5    1    3    3  502    0  0.38195082431E+02  0.30128423527E+02  0.13852911199E+03  0.14688217555E+03  0.41800000000E+01 0.  1.
         -5    1    3    3    0  502 -0.60677563470E+02  0.78888001506E+01  0.32015207667E+02  0.69184144126E+02  0.41800000000E+01 0.  1.
        -11    1    1    2    0    0  0.32054828310E+02  0.22918052618E+02  0.82356439523E+02  0.91298040968E+02  0.00000000000E+00 0.  1.
         11    1    1    2    0    0 -0.95723472702E+01 -0.60935276295E+02  0.11090953899E+03  0.12690809103E+03  0.00000000000E+00 0. -1.
</event>
<event>
 7    1  0.8653652E-006  0.6422608E+02  0.7561462E-02  0.1380907E+00
          3   -1    0    0  501    0  0.00000000000E+00  0.00000000000E+00  0.31360845443E+02  0.31360845443E+02  0.00000000000E+00 0. -1.
         -3   -1    0    0    0  501 -0.00000000000E+00 -0.00000000000E+00 -0.51730217269E+03  0.51730217269E+03  0.00000000000E+00 0.  1.
         23    2    1    2    0    0  0.52617057481E+02 -0.34542588403E+02 -0.31146970188E+03  0.34150124470E+03  0.12509188539E+03 0.  0.
          5    1    3    3  502    0  0.75899739185E+01 -0.57405152721E+00  0.11053476334E+02  0.14056634672E+02  0.41800000000E+01 0.  1.
         -5    1    3    3    0  502  0.45027083563E+02 -0.33968536876E+02 -0.32252317821E+03  0.32744461003E+03  0.41800000000E+01 0.  1.
        -11    1    1    2    0    0 -0.40611496169E+02  0.23625653324E+02 -0.18292677894E+03  0.18886416169E+03  0.00000000000E+00 0.  1.
         11    1    1    2    0    0 -0.12005561313E+02  0.10916935078E+02  0.84551535675E+01  0.18297611751E+02  0.00000000000E+00 0. -1.
</event>
<event>
 7    1  0.8653652E-006  0.1192361E+03  0.7561462E-02  0.1244363E+00
          2   -1    0    0  501    0  0.00000000000E+00  0.00000000000E+00  0.79701529110E+03  0.79701529110E+03  0.00000000000E+00 0.  1.
         -2   -1    0    0    0  501 -0.00000000000E+00 -0.00000000000E+00 -0.27045704651E+02  0.27045704651E+02  0.00000000000E+00 0. -1.
         23    2    1    2    0    0  0.77553675449E+02  0.37589254024E+02  0.28369034101E+03  0.32180027496E+03  0.12509069826E+03 0.  0.
          5    1    3    3  502    0 -0.12003934461E+02  0.17613186892E+02 -0.18984326828E+01  0.21803560299E+02  0.41800000000E+01 0. -1.
         -5    1    3    3    0  502  0.89557609910E+02  0.19976067131E+02  0.28558877369E+03  0.29999671466E+03  0.41800000000E+01 0. -1.
        -11    1    1    2    0    0 -0.40581983939E+02 -0.66540698138E+02  0.27538665280E+03  0.28620337257E+03  0.00000000000E+00 0.  1.
         11    1    1    2    0    0 -0.36971691509E+02  0.28951444114E+02  0.21089259264E+03  0.21605734822E+03  0.00000000000E+00 0. -1.
</event>
<event>
 7    1  0.8653652E-006  0.2378077E+03  0.7561462E-02  0.1121262E+00
         -2   -1    0    0    0  501 -0.00000000000E+00  0.00000000000E+00  0.92580269727E+03  0.92580269727E+03  0.00000000000E+00 0.  1.
          2   -1    0    0  501    0  0.00000000000E+00 -0.00000000000E+00 -0.64070089942E+02  0.64070089942E+02  0.00000000000E+00 0. -1.
         23    2    1    2    0    0 -0.21371354840E+03 -0.17229266081E+02  0.51387346625E+03  0.57068681736E+03  0.12508867182E+03 0.  0.
          5    1    3    3  502    0 -0.22035893739E+03 -0.34443211294E+02  0.42679181874E+03  0.48157359254E+03  0.41800000000E+01 0.  1.
         -5    1    3    3    0  502  0.66453889937E+01  0.17213945212E+02  0.87081647507E+02  0.89113224817E+02  0.41800000000E+01 0.  1.
        -11    1    1    2    0    0  0.63071265674E+02 -0.37463367297E+02  0.11892916893E+03  0.13973416070E+03  0.00000000000E+00 0. -1.
         11    1    1    2    0    0  0.15064228273E+03  0.54692633378E+02  0.22892997215E+03  0.27945180915E+03  0.00000000000E+00 0.  1.
</event>
<event>
 7    1  0.8653652E-006  0.2268978E+03  0.7561462E-02  0.1128842E+00
         -2   -1    0    0    0  501 -0.00000000000E+00  0.00000000000E+00  0.20454380973E+03  0.20454380973E+03  0.00000000000E+00 0. -1.
          2   -1    0    0  501    0  0.00000000000E+00 -0.00000000000E+00 -0.26735474547E+03  0.26735474547E+03  0.00000000000E+00 0.  1.
         23    2    1    2    0    0  0.19967841751E+03  0.32334813886E+01  0.21277170479E+02  0.23660553932E+03  0.12509011723E+03 0.  0.
          5    1    3    3  502    0  0.11047782806E+03  0.63864854669E+02  0.95724758159E+01  0.12803583424E+03  0.41800000000E+01 0.  1.
         -5    1    3    3    0  502  0.89200589451E+02 -0.60631373281E+02  0.11704694663E+02  0.10856970508E+03  0.41800000000E+01 0.  1.
        -11    1    1    2    0    0 -0.11339096923E+03 -0.45399934717E+02 -0.33049942286E+02  0.12653444061E+03  0.00000000000E+00 0.  1.
         11    1    1    2    0    0 -0.86287448287E+02  0.42166453328E+02 -0.51038163928E+02  0.10875857527E+03  0.00000000000E+00 0. -1.
</event>
<event>
 7    1  0.8653652E-006  0.1142299E+03  0.7561462E-02  0.1252931E+00
          3   -1    0    0  501    0  0.00000000000E+00  0.00000000000E+00  0.85550035917E+02  0.85550035917E+02  0.00000000000E+00 0. -1.
         -3   -1    0    0    0  501 -0.00000000000E+00 -0.00000000000E+00 -0.17990899784E+03  0.17990899784E+03  0.00000000000E+00 0.  1.
         23    2    1    2    0    0  0.15556637570E+02  0.52490594054E+02 -0.82861178604E+02  0.15972103994E+03  0.12509022441E+03 0.  0.
          5    1    3    3  502    0 -0.37925685229E+02 -0.15309105483E+02 -0.17131316469E+01  0.41147703835E+02  0.41800000000E+01 0. -1.
         -5    1    3    3    0  502  0.53482322799E+02  0.67799699537E+02 -0.81148046957E+02  0.11857333610E+03  0.41800000000E+01 0. -1.
        -11    1    1    2    0    0 -0.24516979657E+02 -0.73804979435E+02 -0.21284885347E+02  0.80630661818E+02  0.00000000000E+00 0.  1.
         11    1    1    2    0    0  0.89603420874E+01  0.21314385382E+02  0.97871020235E+01  0.25107332008E+02  0.00000000000E+00 0. -1.
</event>
<event>
 7    1  0.8653652E-006  0.1102483E+03  0.7561462E-02  0.1260111E+00
          2   -1    0    0  501    0  0.00000000000E+00  0.00000000000E+00  0.19395382436E+03  0.19395382436E+03  0.00000000000E+00 0.  1.
         -2   -1    0    0    0  501 -0.00000000000E+00 -0.00000000000E+00 -0.91808898382E+02  0.91808898382E+02  0.00000000000E+00 0. -1.
         23    2    1    2    0    0  0.77551397091E+02  0.16533409114E-01  0.44018441890E+02  0.15362096080E+03  0.12509019509E+03 0.  0.
          5    1    3    3  502    0  0.35849991174E+02  0.53019307813E+02 -0.12720673072E+02  0.65387741906E+02  0.41800000000E+01 0.  1.
         -5    1    3    3    0  502  0.41701405917E+02 -0.53002774403E+02  0.56739114962E+02  0.88233218895E+02  0.41800000000E+01 0.  1.
        -11    1    1    2    0    0 -0.62964848221E+02  0.18113303088E+02  0.77769877714E+02  0.10168981139E+03  0.00000000000E+00 0.  1.
         11    1    1    2    0    0 -0.14586548870E+02 -0.18129836497E+02 -0.19643393627E+02  0.30451950553E+02  0.00000000000E+00 0. -1.
</event>
<event>
 7    1  0.8653652E-006  0.1331139E+03  0.7561462E-02  0.1222907E+00
         -1   -1    0    0    0  501 -0.00000000000E+00  0.00000000000E+00  0.31725466806E+02  0.31725466806E+02  0.00000000000E+00 0.  1.
          1   -1    0    0  501    0  0.00000000000E+00 -0.00000000000E+00 -0.93809793647E+03  0.93809793647E+03  0.00000000000E+00 0. -1.
         23    2    1    2    0    0 -0.99339516097E+02  0.71756199188E+02 -0.32654596831E+03  0.37053556427E+03  0.12508814249E+03 0.  0.
          5    1    3    3  502    0 -0.70548151121E+02  0.59886844656E+02 -0.81195904580E+02  0.12318166710E+03  0.41800000000E+01 0.  1.
         -5    1    3    3    0  502 -0.28791364976E+02  0.11869354532E+02 -0.24535006373E+03  0.24735389717E+03  0.41800000000E+01 0.  1.
        -11    1    1    2    0    0  0.92600539243E+02 -0.86025004169E+02 -0.55926246412E+03  0.57336695491E+03  0.00000000000E+00 0. -1.
         11    1    1    2    0    0  0.67389768541E+01  0.14268804981E+02 -0.20564037233E+02  0.25920884089E+02  0.00000000000E+00 0.  1.
</event>
<event>
 7    1  0.8653652E-006  0.1186261E+03  0.7561462E-02  0.1245381E+00
          2   -1    0    0  501    0  0.00000000000E+00  0.00000000000E+00  0.19986569174E+03  0.19986569174E+03  0.00000000000E+00 0. -1.
         -2   -1    0    0    0  501 -0.00000000000E+00 -0.00000000000E+00 -0.82774252524E+02  0.82774252524E+02  0.00000000000E+00 0.  1.
         23    2    1    2    0    0 -0.44150330013E+02  0.50499119736E+02  0.85261022095E+02  0.16557981855E+03  0.12509125344E+03 0.  0.
          5    1    3    3  502    0 -0.13841025121E+02  0.82519440903E+02  0.19038279942E+02  0.85912517170E+02  0.41800000000E+01 0. -1.
         -5    1    3    3    0  502 -0.30309304892E+02 -0.32020321167E+02  0.66222742153E+02  0.79667301379E+02  0.41800000000E+01 0. -1.
        -11    1    1    2    0    0  0.66840070735E+02 -0.17416614028E+02  0.33794990501E+02  0.76896260527E+02  0.00000000000E+00 0.  1.
         11    1    1    2    0    0 -0.22689740722E+02 -0.33082505708E+02 -0.19645733838E+01  0.40163865184E+02  0.00000000000E+00 0. -1.
</event>
<event>
 7    1  0.8653652E-006  0.1966608E+03  0.7561462E-02  0.1152587E+00
          2   -1    0    0  501    0  0.00000000000E+00  0.00000000000E+00  0.79255772264E+02  0.79255772264E+02  0.00000000000E+00 0. -1.
         -2   -1    0    0    0  501 -0.00000000000E+00 -0.00000000000E+00 -0.50146300321E+03  0.50146300321E+03  0.00000000000E+00 0.  1.
         23    2    1    2    0    0  0.14046731015E+02  0.16505379058E+03 -0.25641576007E+03  0.32990335976E+03  0.12508845004E+03 0.  0.
          5    1    3    3  502    0  0.33033438828E+02 -0.58033347249E+01 -0.59868469322E+02  0.68750220317E+02  0.41800000000E+01 0.  1.
         -5    1    3    3    0  502 -0.18986707813E+02  0.17085712531E+03 -0.19654729074E+03  0.26115313944E+03  0.41800000000E+01 0.  1.
        -11    1    1    2    0    0 -0.47253221158E+02 -0.13404326461E+03 -0.13422512654E+03  0.19549129978E+03  0.00000000000E+00 0.  1.
         11    1    1    2    0    0  0.33206490143E+02 -0.31010525973E+02 -0.31566344344E+02  0.55324115935E+02  0.00000000000E+00 0. -1.
</event>
<event>
 7    1  0.8653652E-006  0.2291408E+03  0.7561462E-02  0.1127246E+00
          2   -1    0    0  501    0  0.00000000000E+00  0.00000000000E+00  0.16640242780E+04  0.16640242780E+04  0.00000000000E+00 0. -1.
         -2   -1    0    0    0  501 -0.00000000000E+00 -0.00000000000E+00 -0.32845669514E+02  0.32845669514E+02  0.00000000000E+00 0.  1.
         23    2    1    2    0    0  0.20512524014E+03  0.24845303726E+02  0.81234539018E+03  0.84749172413E+03  0.12507412310E+03 0.  0.
          5    1    3    3  502    0  0.11013087193E+03 -0.48374967774E+02  0.36526690674E+03  0.38458592280E+03  0.41800000000E+01 0.  1.
         -5    1    3    3    0  502  0.94994368205E+02  0.73220271499E+02  0.44707848344E+03  0.46290580133E+03  0.41800000000E+01 0.  1.
        -11    1    1    2    0    0 -0.30529275249E+02  0.21414346711E+02  0.72844058634E+02  0.81834392345E+02  0.00000000000E+00 0.  1.
         11    1    1    2    0    0 -0.17459596489E+03 -0.46259650436E+02  0.74598915970E+03  0.76754383106E+03  0.00000000000E+00 0. -1.
</event>
<event>
 7    1  0.8653652E-006  0.1167603E+03  0.7561462E-02  0.1248539E+00
          1   -1    0    0  501    0  0.00000000000E+00  0.00000000000E+00  0.29847159186E+03  0.29847159186E+03  0.00000000000E+00 0. -1.
         -1   -1    0    0    0  501 -0.00000000000E+00 -0.00000000000E+00 -0.73716309066E+02  0.73716309066E+02  0.00000000000E+00 0.  1.
         23    2    1    2    0    0  0.23102954595E+01  0.58898746884E+02  0.19050813241E+02  0.13958895839E+03  0.12509094279E+03 0.  0.
          5    1    3    3  502    0  0.29696693943E+02 -0.26428675919E+02 -0.16292631817E+02  0.43165852169E+02  0.41800000000E+01 0.  1.
         -5    1    3    3    0  502 -0.27386398483E+02  0.85327422803E+02  0.35343445058E+02  0.96423106217E+02  0.41800000000E+01 0.  1.
        -11    1    1    2    0    0 -0.14396834682E+02  0.19651521962E+02  0.23646088015E+02  0.33949795915E+02  0.00000000000E+00 0.  1.
         11    1    1    2    0    0  0.12086539222E+02 -0.78550268845E+02  0.18205838154E+03  0.19864914662E+03  0.00000000000E+00 0. -1.
</event>
<event>
 7    1  0.8653652E-006  0.1238712E+03  0.7561462E-02  0.1236844E+00
          1   -1    0    0  501    0  0.00000000000E+00  0.00000000000E+00  0.80312067662E+02  0.80312067662E+02  0.00000000000E+00 0. -1.
         -1   -1    0    0    0  501 -0.00000000000E+00 -0.00000000000E+00 -0.23483360131E+03  0.23483360131E+03  0.00000000000E+00 0.  1.
         23    2    1    2    0    0 -0.69969495862E+02  0.46808120850E+02 -0.98967556894E+02  0.18035790247E+03  0.12509062770E+03 0.  0.
          5    1    3    3  502    0 -0.82469060061E+01  0.61108569284E+02 -0.99181862550E+02  0.11686223923E+03  0.41800000000E+01 0.  1.
         -5    1    3    3    0  502 -0.61722589856E+02 -0.14300448434E+02  0.21430565593E+00  0.63495663244E+02  0.41800000000E+01 0.  1.
        -11    1    1    2    0    0  0.65249106196E+02 -0.71794386898E+02 -0.39709770560E+02  0.10482721845E+03  0.00000000000E+00 0.  1.
         11    1    1    2    0    0  0.47203896662E+01  0.24986266049E+02 -0.15844206194E+02  0.29960548052E+02  0.00000000000E+00 0. -1.
</event>
<event>
 7    1  0.8653652E-006  0.9841150E+02  0.7561462E-02  0.1283672E+00
          1   -1    0    0  501    0  0.00000000000E+00  0.00000000000E+00  0.15565136591E+03  0.15565136591E+03  0.00000000000E+00 0. -1.
         -1   -1    0    0    0  501 -0.00000000000E+00 -0.00000000000E+00 -0.11776323367E+03  0.11776323367E+03  0.00000000000E+00 0.  1.
         23    2    1    2    0    0 -0.78222154796E+02 -0.54192301871E+01 -0.65909233059E+01  0.14777435240E+03  0.12508295408E+03 0.  0.
          5    1    3    3  502    0 -0.11111474926E+02 -0.11365276583E+02 -0.59676345253E+02  0.61898085347E+02  0.41800000000E+01 0. -1.
         -5    1    3    3    0  502 -0.67110679870E+02  0.59460463957E+01  0.53085421947E+02  0.85876267057E+02  0.41800000000E+01 0. -1.
        -11    1    1    2    0    0  0.18900909764E+02  0.39985445603E+02  0.73913241468E+00  0.44233771789E+02  0.00000000000E+00 0.  1.
         11    1    1    2    0    0  0.59321245033E+02 -0.34566215416E+02  0.43739923130E+02  0.81406475392E+02  0.00000000000E+00 0. -1.
</event>
<event>
 7    1  0.8653652E-006  0.1254601E+03  0.7561462E-02  0.1234352E+00
         -1   -1    0    0    0  501 -0.00000000000E+00  0.00000000000E+00  0.12034578027E+02  0.12034578027E+02  0.00000000000E+00 0.  1.
          1   -1    0    0  501    0  0.00000000000E+00 -0.00000000000E+00 -0.13129649562E+04  0.13129649562E+04  0.00000000000E+00 0. -1.
         23    2    1    2    0    0  0.52564706600E+02  0.20023845014E+01 -0.66909419681E+03  0.68271632992E+03  0.12508990770E+03 0.  0.
          5    1    3    3  502    0  0.92146423521E+02  0.15480053735E+02 -0.47610702295E+03  0.48520713631E+03  0.41800000000E+01 0.  1.
         -5    1    3    3    0  502 -0.39581716921E+02 -0.13477669233E+02 -0.19298717387E+03  0.19750919361E+03  0.41800000000E+01 0.  1.
        -11    1    1    2    0    0  0.31196477106E+02  0.36845351609E+01 -0.17469422632E+03  0.17749610895E+03  0.00000000000E+00 0.  1.
         11    1    1    2    0    0 -0.83761183706E+02 -0.56869196623E+01 -0.45714195507E+03  0.46478709539E+03  0.00000000000E+00 0. -1.
</event>
<event>
 7    1  0.8653652E-006  0.1112584E+03  0.7561462E-02  0.1258257E+00
         -1   -1    0    0    0  501 -0.00000000000E+00  0.00000000000E+00  0.13539966398E+03  0.13539966398E+03  0.00000000000E+00 0.  1.
          1   -1    0    0  501    0  0.00000000000E+00 -0.00000000000E+00 -0.14966692327E+03  0.14966692327E+03  0.00000000000E+00 0. -1.
         23    2    1    2    0    0  0.71963283097E+02  0.52608813612E+02  0.12727445475E+02  0.15413520683E+03  0.12509705325E+03 0.  0.
          5    1    3    3  502    0  0.56580121106E+02  0.14257651119E+02  0.64950434074E+02  0.87410651561E+02  0.41800000000E+01 0. -1.
         -5    1    3    3    0  502  0.15383161991E+02  0.38351162492E+02 -0.52222988599E+02  0.66724555267E+02  0.41800000000E+01 0. -1.
        -11    1    1    2    0    0  0.53512901994E+01 -0.44417777031E+02  0.83761438499E+01  0.45516315854E+02  0.00000000000E+00 0.  1.
         11    1    1    2    0    0 -0.77314573296E+02 -0.81910365810E+01 -0.35370848609E+02  0.85415064570E+02  0.00000000000E+00 0. -1.
</event>
<event>
 6    1  0.8653652E-006  0.2081683E+03  0.7561462E-02  0.1143025E+00
          1   -1    0    0  501    0  0.00000000000E+00  0.00000000000E+00  0.14174900261E+03  0.14174900261E+03  0.00000000000E+00 0. -1.
         -1   -1    0    0    0  501 -0.00000000000E+00 -0.00000000000E+00 -0.41292257496E+03  0.41292257496E+03  0.00000000000E+00 0.  1.
          5    1    1    2  502    0 -0.75338145429E+02  0.13687705355E+03 -0.16740705381E+03  0.22902785422E+03  0.41800000000E+01 0. -1.
         -5    1    1    2    0  502 -0.57841853289E+02 -0.10428008858E+03 -0.10828593837E+03  0.16113141753E+03  0.41800000000E+01 0.  1.
        -11    1    1    2    0    0  0.95849406057E+02 -0.37788008228E+02 -0.36034018734E+02  0.10914894738E+03  0.00000000000E+00 0.  1.
         11    1    1    2    0    0  0.37330592661E+02  0.51910432570E+01  0.40553438565E+02  0.55363358442E+02  0.00000000000E+00 0. -1.
</event>
<event>
 7    1  0.8653652E-006  0.1784554E+03  0.7561462E-02  0.1169306E+00
         -1   -1    0    0    0  501 -0.00000000000E+00  0.00000000000E+00  0.63460488473E+02  0.63460488473E+02  0.00000000000E+00 0.  1.
          1   -1    0    0  501    0  0.00000000000E+00 -0.00000000000E+00 -0.63701051169E+03  0.63701051169E+03  0.00000000000E+00 0. -1.
         23    2    1    2    0    0  0.12595892244E+03  0.95100501744E+02 -0.19037908846E+03  0.27713238282E+03  0.12509358381E+03 0.  0.
          5    1    3    3  502    0  0.12798591302E+03  0.11280165440E+03 -0.19410673544E+03  0.25845600072E+03  0.41800000000E+01 0.  1.
         -5    1    3    3    0  502 -0.20269905878E+01 -0.17701152655E+02  0.37276469755E+01  0.18676382095E+02  0.41800000000E+01 0.  1.
        -11    1    1    2    0    0 -0.10528498354E+03 -0.46408985475E+02 -0.32473215610E+03  0.34451370785E+03  0.00000000000E+00 0. -1.
         11    1    1    2    0    0 -0.20673938893E+02 -0.48691516269E+02 -0.58438778659E+02  0.78824909496E+02  0.00000000000E+00 0.  1.
</event>
<event>
 7    1  0.8653652E-006  0.2073165E+03  0.7561462E-02  0.1143709E+00
          2   -1    0    0  501    0  0.00000000000E+00  0.00000000000E+00  0.42839914076E+03  0.42839914076E+03  0.00000000000E+00 0.  1.
         -2   -1    0    0    0  501 -0.00000000000E+00 -0.00000000000E+00 -0.10615832892E+03  0.10615832892E+03  0.00000000000E+00 0. -1.
         23    2    1    2    0    0 -0.25928109756E+02  0.18124150870E+03  0.16609225085E+03  0.27704707120E+03  0.12509073713E+03 0.  0.
          5    1    3    3  502    0  0.45096681521E+02  0.41146417092E+02  0.25810101853E+02  0.66410632292E+02  0.41800000000E+01 0.  1.
         -5    1    3    3    0  502 -0.71024791278E+02  0.14009509161E+03  0.14028214899E+03  0.21063643890E+03  0.41800000000E+01 0.  1.
        -11    1    1    2    0    0  0.48507414976E+02 -0.89091347904E+02  0.11705979093E+03  0.15489748943E+03  0.00000000000E+00 0.  1.
         11    1    1    2    0    0 -0.22579305220E+02 -0.92150160794E+02  0.39088770065E+02  0.10261290905E+03  0.00000000000E+00 0. -1.
</event>
<event>
 7    1  0.8653652E-006  0.1007271E+03  0.7561462E-02  0.1278774E+00
          1   -1    0    0  501    0  0.00000000000E+00  0.00000000000E+00  0.19030242721E+03  0.19030242721E+03  0.00000000000E+00 0. -1.
         -1   -1    0    0    0  501 -0.00000000000E+00 -0.00000000000E+00 -0.73101781028E+02  0.73101781028E+02  0.00000000000E+00 0.  1.
         23    2    1    2    0    0 -0.20160698253E+02 -0.16269362854E+02  0.24376016662E+02  0.13005208022E+03  0.12509279540E+03 0.  0.
          5    1    3    3  502    0  0.16739938066E+01 -0.60308434555E+02 -0.20000173176E+02  0.63697636226E+02  0.41800000000E+01 0. -1.
         -5    1    3    3    0  502 -0.21834692060E+02  0.44039071701E+02  0.44376189838E+02  0.66354443997E+02  0.41800000000E+01 0. -1.
        -11    1    1    2    0    0  0.26330228167E+02  0.50452757715E+02  0.75469914093E+02  0.94522323340E+02  0.00000000000E+00 0.  1.
         11    1    1    2    0    0 -0.61695299135E+01 -0.34183394862E+02  0.17354715431E+02  0.38829804678E+02  0.00000000000E+00 0. -1.
</event>
<event>
 7    1  0.8653652E-006  0.8886859E+02  0.7561462E-02  0.1305615E+00
          1   -1    0    0  501    0  0.00000000000E+00  0.00000000000E+00  0.62395112400E+03  0.62395112400E+03  0.00000000000E+00 0. -1.
         -1   -1    0    0    0  501 -0.00000000000E+00 -0.00000000000E+00 -0.24873672785E+02  0.24873672785E+02  0.00000000000E+00 0.  1.
         23    2    1    2    0    0  0.37054533938E+02  0.31008681931E+02  0.23683576146E+03  0.27215898193E+03  0.12507900184E+03 0.  0.
          5    1    3    3  502    0 -0.10085581824E+02  0.27070253466E+02 -0.14134427572E+01  0.29223069720E+02  0.41800000000E+01 0.  1.
         -5    1    3    3    0  502  0.47140115762E+02  0.39384284650E+01  0.23824920422E+03  0.24293591221E+03  0.41800000000E+01 0.  1.
        -11    1    1    2    0    0  0.29550305216E+02 -0.10690853531E+02  0.79747834558E+02  0.85715996199E+02  0.00000000000E+00 0.  1.
         11    1    1    2    0    0 -0.66604839155E+02 -0.20317828400E+02  0.28249385520E+03  0.29094981865E+03  0.00000000000E+00 0. -1.
</event>
<event>
 7    1  0.8653652E-006  0.1278826E+03  0.7561462E-02  0.1230632E+00
          1   -1    0    0  501    0  0.00000000000E+00  0.00000000000E+00  0.17978591683E+03  0.17978591683E+03  0.00000000000E+00 0. -1.
         -1   -1    0    0    0  501 -0.00000000000E+00 -0.00000000000E+00 -0.10522445737E+03  0.10522445737E+03  0.00000000000E+00 0.  1.
         23    2    1    2    0    0  0.73091548425E+02 -0.12878031772E+02 -0.11242226408E+02  0.14010386088E+03  0.11829829258E+03 0.  0.
          5    1    3    3  502    0  0.44479557747E+02 -0.65621172496E+02 -0.92370268050E+01  0.79920988491E+02  0.41800000000E+01 0. -1.
         -5    1    3    3    0  502  0.28611990678E+02  0.52743140724E+02 -0.20051996029E+01  0.60182872393E+02  0.41800000000E+01 0.  1.
        -11    1    1    2    0    0  0.20028038050E+02 -0.66154087670E+01  0.21211667251E+02  0.29913554935E+02  0.00000000000E+00 0.  1.
         11    1    1    2    0    0 -0.93119586475E+02  0.19493440539E+02  0.64592018615E+02  0.11499295838E+03  0.00000000000E+00 0. -1.
</event>
<event>
 7    1  0.8653652E-006  0.8962783E+02  0.7561462E-02  0.1303755E+00
         -2   -1    0    0    0  501 -0.00000000000E+00  0.00000000000E+00  0.16998449214E+02  0.16998449214E+02  0.00000000000E+00 0.  1.
          2   -1    0    0  501    0  0.00000000000E+00 -0.00000000000E+00 -0.80088554918E+03  0.80088554918E+03  0.00000000000E+00 0. -1.
         23    2    1    2    0    0 -0.42438125541E+02 -0.10523511741E+02 -0.45099610621E+03  0.47006050470E+03  0.12509057304E+03 0.  0.
          5    1    3    3  502    0 -0.32424825404E+02  0.25547225515E+02 -0.40976943232E+02  0.58314769232E+02  0.41800000000E+01 0. -1.
         -5    1    3    3    0  502 -0.10013300137E+02 -0.36070737256E+02 -0.41001916297E+03  0.41174573546E+03  0.41800000000E+01 0. -1.
        -11    1    1    2    0    0 -0.28076979099E+02 -0.32012086333E+01 -0.76264965760E+02  0.81332093877E+02  0.00000000000E+00 0.  1.
         11    1    1    2    0    0  0.70515104640E+02  0.13724720374E+02 -0.25662602800E+03  0.26649139982E+03  0.00000000000E+00 0. -1.
</event>
<event>
 7    1  0.8653652E-006  0.1055472E+03  0.7561462E-02  0.1269045E+00
          1   -1    0    0  501    0  0.00000000000E+00  0.00000000000E+00  0.17425352201E+03  0.17425352201E+03  0.00000000000E+00 0. -1.
         -1   -1    0    0    0  501 -0.00000000000E+00 -0.00000000000E+00 -0.13939121671E+03  0.13939121671E+03  0.00000000000E+00 0.  1.
         23    2    1    2    0    0  0.39617848246E+02  0.80685379038E+01 -0.85783315412E+02  0.15696953125E+03  0.12508389718E+03 0.  0.
          5    1    3    3  502    0 -0.39637406509E+02 -0.50842838513E+01 -0.60528168776E+02  0.72650571591E+02  0.41800000000E+01 0.  1.
         -5    1    3    3    0  502  0.79255254756E+02  0.13152821755E+02 -0.25255146636E+02  0.84318959660E+02  0.41800000000E+01 0.  1.
        -11    1    1    2    0    0  0.62439463495E+00 -0.39437434836E+02  0.20902100386E+02  0.44638536442E+02  0.00000000000E+00 0.  1.
         11    1    1    2    0    0 -0.40242242881E+02  0.31368896932E+02  0.99743520328E+02  0.11203667102E+03  0.00000000000E+00 0. -1.
</event>
<event>
 7    1  0.8653652E-006  0.1507186E+03  0.7561462E-02  0.1199593E+00
         -4   -1    0    0    0  501 -0.00000000000E+00  0.00000000000E+00  0.20311983260E+02  0.20311983260E+02  0.00000000000E+00 0.  1.
          4   -1    0    0  501    0  0.00000000000E+00 -0.00000000000E+00 -0.13686846751E+04  0.13686846751E+04  0.00000000000E+00 0. -1.
         23    2    1    2    0    0  0.49751428234E+02 -0.11645915841E+03 -0.71570648905E+03  0.73750081510E+03  0.12503492954E+03 0.  0.
          5    1    3    3  502    0 -0.12847947972E+02  0.41040559604E+01 -0.29601616212E+03  0.29635275210E+03  0.41800000000E+01 0. -1.
         -5    1    3    3    0  502  0.62599376206E+02 -0.12056321437E+03 -0.41969032693E+03  0.44114806299E+03  0.41800000000E+01 0. -1.
        -11    1    1    2    0    0 -0.45255812248E+02  0.11958508883E+02 -0.27080512930E+03  0.27482087353E+03  0.00000000000E+00 0.  1.
         11    1    1    2    0    0 -0.44956159856E+01  0.10450064953E+03 -0.36186107351E+03  0.37667496975E+03  0.00000000000E+00 0. -1.
</event>
<event>
 7    1  0.8653652E-006  0.1057009E+03  0.7561462E-02  0.1268745E+00
         -2   -1    0    0    0  501 -0.00000000000E+00  0.00000000000E+00  0.70859344868E+02  0.70859344868E+02  0.00000000000E+00 0.  1.
          2   -1    0    0  501    0  0.00000000000E+00 -0.00000000000E+00 -0.23155422426E+03  0.23155422426E+03  0.00000000000E+00 0. -1.
         23    2    1    2    0    0 -0.63498455262E+02 -0.40121929054E+01 -0.58246390614E+02  0.15194844086E+03  0.12509010812E+03 0.  0.
          5    1    3    3  502    0 -0.21431499560E+02 -0.54386117253E+02  0.73490006405E+01  0.59064702942E+02  0.41800000000E+01 0. -1.
         -5    1    3    3    0  502 -0.42066955702E+02  0.50373924348E+02 -0.65595391255E+02  0.92883737921E+02  0.41800000000E+01 0. -1.
        -11    1    1    2    0    0 -0.80265860152E+01  0.12658031144E+02 -0.69757380378E+02  0.71349449562E+02  0.00000000000E+00 0. -1.
         11    1    1    2    0    0  0.71525041277E+02 -0.86458382382E+01 -0.32691108401E+02  0.79115678705E+02  0.00000000000E+00 0.  1.
</event>
<event>
 7    1  0.8653652E-006  0.1076138E+03  0.7561462E-02  0.1265054E+00
         -1   -1    0    0    0  501 -0.00000000000E+00  0.00000000000E+00  0.89568153612E+02  0.89568153612E+02  0.00000000000E+00 0.  1.
          1   -1    0    0  501    0  0.00000000000E+00 -0.00000000000E+00 -0.16871511823E+03  0.16871511823E+03  0.00000000000E+00 0. -1.
         23    2    1    2    0    0  0.15608395570E+02  0.51588569479E+02 -0.19243489432E+02  0.13756130080E+03  0.12509115507E+03 0.  0.
          5    1    3    3  502    0  0.48794663757E+02 -0.98802313151E+01  0.23866791868E+02  0.55368170785E+02  0.41800000000E+01 0.  1.
         -5    1    3    3    0  502 -0.33186268187E+02  0.61468800794E+02 -0.43110281299E+02  0.82193130011E+02  0.41800000000E+01 0.  1.
        -11    1    1    2    0    0 -0.24172956963E+02 -0.70498877267E+02 -0.65501215164E+02  0.99221130472E+02  0.00000000000E+00 0. -1.
         11    1    1    2    0    0  0.85645613931E+01  0.18910307788E+02  0.55977399775E+01  0.21500840573E+02  0.00000000000E+00 0.  1.
</event>
<event>
 7    1  0.8653652E-006  0.9826385E+02  0.7561462E-02  0.1283990E+00
          1   -1    0    0  501    0  0.00000000000E+00  0.00000000000E+00  0.22210052227E+03  0.22210052227E+03  0.00000000000E+00 0. -1.
         -1   -1    0    0    0  501 -0.00000000000E+00 -0.00000000000E+00 -0.81505879855E+02  0.81505879855E+02  0.00000000000E+00 0.  1.
         23    2    1    2    0    0 -0.40839826506E+02 -0.57604213650E+02  0.37170341507E+02  0.14837420825E+03  0.12508850677E+03 0.  0.
          5    1    3    3  502    0 -0.47969202636E+02 -0.72240329371E+02 -0.19740661747E+02  0.89033003518E+02  0.41800000000E+01 0.  1.
         -5    1    3    3    0  502  0.71293761307E+01  0.14636115721E+02  0.56911003254E+02  0.59341204730E+02  0.41800000000E+01 0.  1.
        -11    1    1    2    0    0  0.44613250067E+02  0.10741510200E+02  0.50051717490E+01  0.46160306186E+02  0.00000000000E+00 0.  1.
         11    1    1    2    0    0 -0.37734235616E+01  0.46862703450E+02  0.98419129154E+02  0.10907188769E+03  0.00000000000E+00 0. -1.
</event>
<event>
 7    1  0.8653652E-006  0.1128235E+03  0.7561462E-02  0.1255429E+00
         -2   -1    0    0    0  501 -0.00000000000E+00  0.00000000000E+00  0.20650375443E+02  0.20650375443E+02  0.00000000000E+00 0.  1.
          2   -1    0    0  501    0  0.00000000000E+00 -0.00000000000E+00 -0.73657749450E+03  0.73657749450E+03  0.00000000000E+00 0. -1.
         23    2    1    2    0    0 -0.24755592043E+02 -0.41820112055E+02 -0.36419733226E+03  0.38813665361E+03  0.12509438013E+03 0.  0.
          5    1    3    3  502    0  0.27520732513E+02 -0.60605383331E+02 -0.11637505368E+03  0.13413064051E+03  0.41800000000E+01 0.  1.
         -5    1    3    3    0  502 -0.52276324556E+02  0.18785271276E+02 -0.24782227859E+03  0.25400601310E+03  0.41800000000E+01 0.  1.
        -11    1    1    2    0    0  0.59533787363E+02  0.28536112484E+02 -0.14899489843E+03  0.16296644229E+03  0.00000000000E+00 0. -1.
         11    1    1    2    0    0 -0.34778195320E+02  0.13283999571E+02 -0.20273488836E+03  0.20612477404E+03  0.00000000000E+00 0.  1.
</event>
<event>
 7    1  0.1722591E-005  0.2708528E+03  0.7561462E-02  0.1100792E+00
          4   -1    0    0  501    0  0.00000000000E+00  0.00000000000E+00  0.73575756219E+03  0.73575756219E+03  0.00000000000E+00 0. -1.
         -4   -1    0    0    0  501 -0.00000000000E+00 -0.00000000000E+00 -0.11260922847E+03  0.11260922847E+03  0.00000000000E+00 0.  1.
         23    2    1    2    0    0 -0.13894428744E+03 -0.22386150719E+03  0.26069853328E+03  0.39119156463E+03  0.12509046954E+03 0.  0.
          5    1    3    3  502    0 -0.75870391966E+02 -0.68569373608E+02  0.31255051230E+02  0.10701600816E+03  0.41800000000E+01 0. -1.
         -5    1    3    3    0  502 -0.63073895471E+02 -0.15529213358E+03  0.22944348205E+03  0.28417555647E+03  0.41800000000E+01 0. -1.
        -11    1    1    2    0    0  0.11602628339E+03  0.21961836275E+03  0.29405997838E+03  0.38492284237E+03  0.00000000000E+00 0.  1.
         11    1    1    2    0    0  0.22918004051E+02  0.42431444430E+01  0.68389822055E+02  0.72252383664E+02  0.00000000000E+00 0. -1.
</event>
<event>
 7    1  0.8653652E-006  0.1216766E+03  0.7561462E-02  0.1240357E+00
         -1   -1    0    0    0  501 -0.00000000000E+00  0.00000000000E+00  0.14473711538E+02  0.14473711538E+02  0.00000000000E+00 0.  1.
          1   -1    0    0  501    0  0.00000000000E+00 -0.00000000000E+00 -0.12338408841E+04  0.12338408841E+04  0.00000000000E+00 0. -1.
         23    2    1    2    0    0 -0.64655792488E+02 -0.32744371436E+02 -0.53763830258E+03  0.55673563653E+03  0.12508820576E+03 0.  0.
          5    1    3    3  502    0 -0.80440125011E+02  0.10134402551E+02 -0.19777247631E+03  0.21378668016E+03  0.41800000000E+01 0. -1.
         -5    1    3    3    0  502  0.15784332524E+02 -0.42878773987E+02 -0.33986582626E+03  0.34294895637E+03  0.41800000000E+01 0. -1.
        -11    1    1    2    0    0  0.25682896252E+01  0.51394620181E+02 -0.29538225913E+03  0.29983108929E+03  0.00000000000E+00 0.  1.
         11    1    1    2    0    0  0.62087502863E+02 -0.18650248744E+02 -0.38634661083E+03  0.39174786980E+03  0.00000000000E+00 0. -1.
</event>
<event>
 7    1  0.8653652E-006  0.2054734E+03  0.7561462E-02  0.1145202E+00
          2   -1    0    0  501    0  0.00000000000E+00  0.00000000000E+00  0.83578796773E+02  0.83578796773E+02  0.00000000000E+00 0. -1.
         -2   -1    0    0    0  501 -0.00000000000E+00 -0.00000000000E+00 -0.81702870900E+03  0.81702870900E+03  0.00000000000E+00 0.  1.
         23    2    1    2    0    0 -0.17333391505E+03 -0.65813170662E+02 -0.63041768411E+03  0.66891725743E+03  0.12509125191E+03 0.  0.
          5    1    3    3  502    0 -0.10999220950E+03 -0.10244556347E+03 -0.42374120381E+03  0.44963035911E+03  0.41800000000E+01 0.  1.
         -5    1    3    3    0  502 -0.63341705549E+02  0.36632392805E+02 -0.20667648030E+03  0.21928689832E+03  0.41800000000E+01 0.  1.
        -11    1    1    2    0    0  0.16381285929E+03  0.54816965265E+02 -0.11925023184E+03  0.20990514607E+03  0.00000000000E+00 0.  1.
         11    1    1    2    0    0  0.95210557609E+01  0.10996205398E+02  0.16218003735E+02  0.21785102274E+02  0.00000000000E+00 0. -1.
</event>
<event>
 7    1  0.8653652E-006  0.1659591E+03  0.7561462E-02  0.1182129E+00
         -1   -1    0    0    0  501 -0.00000000000E+00  0.00000000000E+00  0.37922473616E+02  0.37922473616E+02  0.00000000000E+00 0.  1.
          1   -1    0    0  501    0  0.00000000000E+00 -0.00000000000E+00 -0.79193534582E+03  0.79193534582E+03  0.00000000000E+00 0. -1.
         23    2    1    2    0    0 -0.11533058653E+03 -0.64284866645E+02 -0.33305626918E+03  0.37948345183E+03  0.12509006157E+03 0.  0.
          5    1    3    3  502    0 -0.78632169412E+02  0.26585466319E+02 -0.13650031821E+03  0.15981118345E+03  0.41800000000E+01 0. -1.
         -5    1    3    3    0  502 -0.36698417122E+02 -0.90870332964E+02 -0.19655595097E+03  0.21967226838E+03  0.41800000000E+01 0. -1.
        -11    1    1    2    0    0 -0.61409167435E+00  0.29726309959E+02 -0.35129181023E+02  0.46022711477E+02  0.00000000000E+00 0.  1.
         11    1    1    2    0    0  0.11594467821E+03  0.34558556687E+02 -0.38582742201E+03  0.40435165613E+03  0.00000000000E+00 0. -1.
</event>
<event>
 7    1  0.8653652E-006  0.1304164E+03  0.7561462E-02  0.1226839E+00
          2   -1    0    0  501    0  0.00000000000E+00  0.00000000000E+00  0.17622714061E+03  0.17622714061E+03  0.00000000000E+00 0. -1.
         -2   -1    0    0    0  501 -0.00000000000E+00 -0.00000000000E+00 -0.12220306839E+03  0.12220306839E+03  0.00000000000E+00 0.  1.
         23    2    1    2    0    0 -0.28762466865E+02 -0.90637320383E+02  0.53375967026E+00  0.15713143225E+03  0.12509036236E+03 0.  0.
          5    1    3    3  502    0 -0.26245680493E+02  0.24620158043E+02 -0.17730254240E+02  0.40333884540E+02  0.41800000000E+01 0. -1.
         -5    1    3    3    0  502 -0.25167863715E+01 -0.11525747843E+03  0.18264013910E+02  0.11679754771E+03  0.41800000000E+01 0. -1.
        -11    1    1    2    0    0  0.33329437671E+02  0.20863445725E+02 -0.16245659841E+02  0.42544755806E+02  0.00000000000E+00 0.  1.
         11    1    1    2    0    0 -0.45669708058E+01  0.69773874658E+02  0.69735972396E+02  0.98754020947E+02  0.00000000000E+00 0. -1.
</event>
<event>
 7    1  0.8653652E-006  0.1200680E+03  0.7561462E-02  0.1242985E+00
         -2   -1    0    0    0  501 -0.00000000000E+00  0.00000000000E+00  0.65841304709E+03  0.65841304709E+03  0.00000000000E+00 0. -1.
          2   -1    0    0  501    0  0.00000000000E+00 -0.00000000000E+00 -0.29616566600E+02  0.29616566600E+02  0.00000000000E+00 0.  1.
         23    2    1    2    0    0  0.56565096280E+02 -0.65476744922E+02  0.31164810618E+03  0.34678395548E+03  0.12509098870E+03 0.  0.
          5    1    3    3  502    0 -0.31059052332E+02  0.11044402511E+02  0.45965466864E+02  0.56718075625E+02  0.41800000000E+01 0.  1.
         -5    1    3    3    0  502  0.87624148612E+02 -0.76521147433E+02  0.26568263932E+03  0.29006587986E+03  0.41800000000E+01 0.  1.
        -11    1    1    2    0    0 -0.11907033147E+02  0.33555911633E+02  0.23852234928E+02  0.42856805235E+02  0.00000000000E+00 0.  1.
         11    1    1    2    0    0 -0.44658063133E+02  0.31920833289E+02  0.29329613938E+03  0.29838885297E+03  0.00000000000E+00 0. -1.
</event>
<event>
 7    1  0.8653652E-006  0.1068762E+03  0.7561462E-02  0.1266467E+00
          2   -1    0    0  501    0  0.00000000000E+00  0.00000000000E+00  0.22234268543E+03  0.22234268543E+03  0.00000000000E+00 0. -1.
         -2   -1    0    0    0  501 -0.00000000000E+00 -0.00000000000E+00 -0.76760377334E+02  0.76760377334E+02  0.00000000000E+00 0.  1.
         23    2    1    2    0    0 -0.12536234394E+02 -0.57848645331E+02  0.32543536630E+02  0.14216969385E+03  0.12509803009E+03 0.  0.
          5    1    3    3  502    0 -0.63253384482E+02 -0.84682406826E+01  0.31409886742E+02  0.71251351804E+02  0.41800000000E+01 0. -1.
         -5    1    3    3    0  502  0.50717150088E+02 -0.49380404649E+02  0.11336498880E+01  0.70918342045E+02  0.41800000000E+01 0. -1.
        -11    1    1    2    0    0 -0.12260338687E+02  0.51980884741E+02  0.11928706403E+03  0.13069709992E+03  0.00000000000E+00 0. -1.
         11    1    1    2    0    0  0.24796573081E+02  0.58677605905E+01 -0.62482925609E+01  0.26236268996E+02  0.00000000000E+00 0.  1.
</event>
<event>
 7    1  0.8653652E-006  0.9546296E+02  0.7561462E-02  0.1290137E+00
         -2   -1    0    0    0  501 -0.00000000000E+00  0.00000000000E+00  0.36381439325E+02  0.36381439325E+02  0.00000000000E+00 0.  1.
          2   -1    0    0  501    0  0.00000000000E+00 -0.00000000000E+00 -0.34496902502E+03  0.34496902502E+03  0.00000000000E+00 0. -1.
         23    2    1    2    0    0 -0.22016633086E+02  0.14513096041E+02 -0.13895688186E+03  0.18881726400E+03  0.12509029571E+03 0.  0.
          5    1    3    3  502    0  0.28241433680E+02 -0.40650549906E+02 -0.34938951367E+02  0.60730951800E+02  0.41800000000E+01 0.  1.
         -5    1    3    3    0  502 -0.50258066765E+02  0.55163645947E+02 -0.10401793050E+03  0.12808631220E+03  0.41800000000E+01 0.  1.
        -11    1    1    2    0    0  0.43461126346E+02 -0.99208312822E+01 -0.16391652272E+03  0.16987029998E+03  0.00000000000E+00 0.  1.
         11    1    1    2    0    0 -0.21444493260E+02 -0.45922647590E+01 -0.57141811145E+01  0.22662900358E+02  0.00000000000E+00 0. -1.
</event>
<event>
 7    1  0.8653652E-006  0.9316252E+02  0.7561462E-02  0.1295369E+00
         -2   -1    0    0    0  501 -0.00000000000E+00  0.00000000000E+00  0.10046822004E+03  0.10046822004E+03  0.00000000000E+00 0.  1.
          2   -1    0    0  501    0  0.00000000000E+00 -0.00000000000E+00 -0.14329252869E+03  0.14329252869E+03  0.00000000000E+00 0. -1.
         23    2    1    2    0    0  0.29137513284E+02  0.23155927513E+02  0.13502848246E+02  0.13120706811E+03  0.12509107143E+03 0.  0.
          5    1    3    3  502    0  0.27531540635E+02 -0.45905481092E+02 -0.15925678210E+02  0.56003558373E+02  0.41800000000E+01 0. -1.
         -5    1    3    3    0  502  0.16059726490E+01  0.69061408605E+02  0.29428526456E+02  0.75203509732E+02  0.41800000000E+01 0. -1.
        -11    1    1    2    0    0  0.10247207749E+02  0.81684116137E+01  0.18322349286E+02  0.22526355637E+02  0.00000000000E+00 0.  1.
         11    1    1    2    0    0 -0.39384721032E+02 -0.31324339127E+02 -0.74649506179E+02  0.90027324993E+02  0.00000000000E+00 0. -1.
</event>
<event>
 7    1  0.8653652E-006  0.1365706E+03  0.7561462E-02  0.1218019E+00
         -2   -1    0    0    0  501 -0.00000000000E+00  0.00000000000E+00  0.17261162535E+04  0.17261162535E+04  0.00000000000E+00 0.  1.
          2   -1    0    0  501    0  0.00000000000E+00 -0.00000000000E+00 -0.17756438828E+02  0.17756438828E+02  0.00000000000E+00 0. -1.
         23    2    1    2    0    0  0.36543442308E+02 -0.11236232934E+03  0.12509392196E+04  0.12627182362E+04  0.12509075313E+03 0.  0.
          5    1    3    3  502    0 -0.20910248304E+02 -0.40845412382E+01  0.39394289401E+02  0.44981156039E+02  0.41800000000E+01 0. -1.
         -5    1    3    3    0  502  0.57453690612E+02 -0.10827778810E+03  0.12115449302E+04  0.12177370801E+04  0.41800000000E+01 0. -1.
        -11    1    1    2    0    0 -0.42673320052E+02  0.48396904464E+02  0.10745930176E+03  0.12534262699E+03  0.00000000000E+00 0. -1.
         11    1    1    2    0    0  0.61298777443E+01  0.63965424877E+02  0.34996129332E+03  0.35581182920E+03  0.00000000000E+00 0.  1.
</event>
<event>
 7    1  0.8653652E-006  0.1056628E+03  0.7561462E-02  0.1268819E+00
         -2   -1    0    0    0  501 -0.00000000000E+00  0.00000000000E+00  0.40454417752E+02  0.40454417752E+02  0.00000000000E+00 0.  1.
          2   -1    0    0  501    0  0.00000000000E+00 -0.00000000000E+00 -0.37861004599E+03  0.37861004599E+03  0.00000000000E+00 0. -1.
         23    2    1    2    0    0  0.10964799138E+02  0.59842421612E+02 -0.17645409930E+03  0.22468770195E+03  0.12508865657E+03 0.  0.
          5    1    3    3  502    0  0.16515078657E+02 -0.35606634195E+02 -0.77806709592E+02  0.87246413561E+02  0.41800000000E+01 0. -1.
         -5    1    3    3    0  502 -0.55502795190E+01  0.95449055807E+02 -0.98647389713E+02  0.13744128839E+03  0.41800000000E+01 0. -1.
        -11    1    1    2    0    0  0.17194596524E+02 -0.33189218868E+02 -0.11287799340E+02  0.39046034531E+02  0.00000000000E+00 0.  1.
         11    1    1    2    0    0 -0.28159395663E+02 -0.26653202744E+02 -0.15041372959E+03  0.15533072726E+03  0.00000000000E+00 0. -1.
</event>
<event>
 7    1  0.8653652E-006  0.1502221E+03  0.7561462E-02  0.1200200E+00
         -1   -1    0    0    0  501 -0.00000000000E+00  0.00000000000E+00  0.48158578004E+02  0.48158578004E+02  0.00000000000E+00 0.  1.
          1   -1    0    0  501    0  0.00000000000E+00 -0.00000000000E+00 -0.63102739399E+03  0.63102739399E+03  0.00000000000E+00 0. -1.
         23    2    1    2    0    0  0.39044044421E+02  0.11329229462E+03 -0.18322332126E+03  0.25215397169E+03  0.12510499014E+03 0.  0.
          5    1    3    3  502    0 -0.29072695067E+02  0.73280914623E+02 -0.39924741158E+02  0.88469042060E+02  0.41800000000E+01 0.  1.
         -5    1    3    3    0  502  0.68116739488E+02  0.40011379999E+02 -0.14329858010E+03  0.16368492963E+03  0.41800000000E+01 0.  1.
        -11    1    1    2    0    0  0.16704762496E+02 -0.69543364169E+02 -0.13162697159E+03  0.14980316499E+03  0.00000000000E+00 0.  1.
         11    1    1    2    0    0 -0.55748806917E+02 -0.43748930453E+02 -0.26801852313E+03  0.27722883531E+03  0.00000000000E+00 0. -1.
</event>
<event>
 7    1  0.8653652E-006  0.1460829E+03  0.7561462E-02  0.1205371E+00
         -1   -1    0    0    0  501 -0.00000000000E+00  0.00000000000E+00  0.65662891869E+02  0.65662891869E+02  0.00000000000E+00 0.  1.
          1   -1    0    0  501    0  0.00000000000E+00 -0.00000000000E+00 -0.37217799281E+03  0.37217799281E+03  0.00000000000E+00 0. -1.
         23    2    1    2    0    0  0.47907313985E+02 -0.10190228769E+03 -0.16052232229E+03  0.23258307149E+03  0.12509309421E+03 0.  0.
          5    1    3    3  502    0 -0.32196710060E+02 -0.47509235494E+01 -0.70430891628E+02  0.77699307003E+02  0.41800000000E+01 0.  1.
         -5    1    3    3    0  502  0.80104024045E+02 -0.97151364142E+02 -0.90091430663E+02  0.15488376449E+03  0.41800000000E+01 0.  1.
        -11    1    1    2    0    0 -0.30724158192E+01 -0.11246692755E+02 -0.46852206860E+02  0.48281022406E+02  0.00000000000E+00 0. -1.
         11    1    1    2    0    0 -0.44834898166E+02  0.11314898045E+03 -0.99140571792E+02  0.15697679078E+03  0.00000000000E+00 0.  1.
</event>
<event>
 7    1  0.8653652E-006  0.9835718E+02  0.7561462E-02  0.1283789E+00
         -1   -1    0    0    0  501 -0.00000000000E+00  0.00000000000E+00  0.10125327274E+03  0.10125327274E+03  0.00000000000E+00 0.  1.
          1   -1    0    0  501    0  0.00000000000E+00 -0.00000000000E+00 -0.14601009267E+03  0.14601009267E+03  0.00000000000E+00 0. -1.
         23    2    1    2    0    0  0.36692001030E+02  0.42483735218E+02 -0.34022063762E+02  0.14126528583E+03  0.12508880630E+03 0.  0.
          5    1    3    3  502    0  0.48567738819E+02  0.56117526032E+02  0.25758896049E+02  0.78670166566E+02  0.41800000000E+01 0. -1.
         -5    1    3    3    0  502 -0.11875737789E+02 -0.13633790814E+02 -0.59780959811E+02  0.62595119266E+02  0.41800000000E+01 0. -1.
        -11    1    1    2    0    0 -0.29370772577E+02  0.23388416495E+02  0.50034457649E+01  0.37877364974E+02  0.00000000000E+00 0.  1.
         11    1    1    2    0    0 -0.73212284534E+01 -0.65872151713E+02 -0.15738201935E+02  0.68120714599E+02  0.00000000000E+00 0. -1.
</event>
<event>
 7    1  0.8653652E-006  0.1203723E+03  0.7561462E-02  0.1242484E+00
          3   -1    0    0  501    0  0.00000000000E+00  0.00000000000E+00  0.16921437600E+02  0.16921437600E+02  0.00000000000E+00 0. -1.
         -3   -1    0    0    0  501 -0.00000000000E+00 -0.00000000000E+00 -0.93778717098E+03  0.93778717098E+03  0.00000000000E+00 0.  1.
         23    2    1    2    0    0  0.69052577760E+02  0.62441636797E+00 -0.65287360831E+03  0.66832441211E+03  0.12507966661E+03 0.  0.
          5    1    3    3  502    0  0.29875188861E+02 -0.61299076098E+02 -0.27244483067E+03  0.28088033359E+03  0.41800000000E+01 0. -1.
         -5    1    3    3    0  502  0.39177388899E+02  0.61923492466E+02 -0.38042877764E+03  0.38744407852E+03  0.41800000000E+01 0. -1.
        -11    1    1    2    0    0 -0.76438690228E+02  0.18399820461E+02 -0.18689851034E+03  0.20276212645E+03  0.00000000000E+00 0. -1.
         11    1    1    2    0    0  0.73861124677E+01 -0.19024236829E+02 -0.81093614724E+02  0.83622070013E+02  0.00000000000E+00 0.  1.
</event>
<event>
 6    1  0.8653652E-006  0.1421874E+03  0.7561462E-02  0.1210416E+00
          2   -1    0    0  501    0  0.00000000000E+00  0.00000000000E+00  0.49533647326E+03  0.49533647326E+03  0.00000000000E+00 0. -1.
         -2   -1    0    0    0  501 -0.00000000000E+00 -0.00000000000E+00 -0.61521887678E+02  0.61521887678E+02  0.00000000000E+00 0.  1.
          5    1    1    2  502    0 -0.84003528918E+02  0.53003342404E+01  0.15972449908E+03  0.18059367215E+03  0.41800000000E+01 0. -1.
         -5    1    1    2    0  502  0.84457784013E+02 -0.59790102090E+02  0.31850226715E+02  0.10835074033E+03  0.41800000000E+01 0.  1.
        -11    1    1    2    0    0  0.32822554180E+02  0.54075694428E+02  0.78445688423E+02  0.10077314535E+03  0.00000000000E+00 0.  1.
         11    1    1    2    0    0 -0.33276809274E+02  0.41407342156E+00  0.16379417137E+03  0.16714080312E+03  0.00000000000E+00 0. -1.
</event>
<event>
 7    1  0.8653652E-006  0.1984598E+03  0.7561462E-02  0.1151045E+00
          1   -1    0    0  501    0  0.00000000000E+00  0.00000000000E+00  0.73357386662E+03  0.73357386662E+03  0.00000000000E+00 0. -1.
         -1   -1    0    0    0  501 -0.00000000000E+00 -0.00000000000E+00 -0.75955165265E+02  0.75955165265E+02  0.00000000000E+00 0.  1.
         23    2    1    2    0    0  0.16670774697E+03  0.91159486095E+02  0.19057905363E+03  0.29676427087E+03  0.12508849657E+03 0.  0.
          5    1    3    3  502    0  0.14673575160E+03  0.71628042364E+02  0.20731712026E+03  0.26393146459E+03  0.41800000000E+01 0. -1.
         -5    1    3    3    0  502  0.19971995370E+02  0.19531443731E+02 -0.16738066626E+02  0.32832806272E+02  0.41800000000E+01 0. -1.
        -11    1    1    2    0    0 -0.15514418028E+03 -0.50642351212E+02  0.31205072583E+03  0.35215056425E+03  0.00000000000E+00 0.  1.
         11    1    1    2    0    0 -0.11563566697E+02 -0.40517134883E+02  0.15498892189E+03  0.16061419676E+03  0.00000000000E+00 0. -1.
</event>
<event>
 7    1  0.8653652E-006  0.1447007E+03  0.7561462E-02  0.1207140E+00
          2   -1    0    0  501    0  0.00000000000E+00  0.00000000000E+00  0.39746374941E+02  0.39746374941E+02  0.00000000000E+00 0. -1.
         -2   -1    0    0    0  501 -0.00000000000E+00 -0.00000000000E+00 -0.53633968992E+03  0.53633968992E+03  0.00000000000E+00 0.  1.
         23    2    1    2    0    0 -0.78087494305E+02  0.58997830189E+02 -0.26593609856E+03  0.30975233707E+03  0.12508437580E+03 0.  0.
          5    1    3    3  502    0  0.33603926616E+02  0.19936714586E+02 -0.83188723639E+02  0.92002894591E+02  0.41800000000E+01 0. -1.
         -5    1    3    3    0  502 -0.11169142092E+03  0.39061115603E+02 -0.18274737492E+03  0.21774944248E+03  0.41800000000E+01 0. -1.
        -11    1    1    2    0    0  0.10951299838E+02 -0.63483463376E+02 -0.93277376736E+02  0.11336114899E+03  0.00000000000E+00 0. -1.
         11    1    1    2    0    0  0.67136194467E+02  0.44856331870E+01 -0.13737983968E+03  0.15297257879E+03  0.00000000000E+00 0.  1.
</event>
<event>
 7    1  0.8653652E-006  0.2448617E+03  0.7561462E-02  0.1116596E+00
          2   -1    0    0  501    0  0.00000000000E+00  0.00000000000E+00  0.60179794728E+03  0.60179794728E+03  0.00000000000E+00 0.  1.
         -2   -1    0    0    0  501 -0.00000000000E+00 -0.00000000000E+00 -0.11439133949E+03  0.11439133949E+03  0.00000000000E+00 0. -1.
         23    2    1    2    0    0 -0.39494792497E+00 -0.23608791875E+03  0.29381203398E+03  0.39712759885E+03  0.12508859697E+03 0.  0.
          5    1    3    3  502    0  0.11582197029E+01 -0.50482996343E+02  0.16118980467E+03  0.16896597267E+03  0.41800000000E+01 0. -1.
         -5    1    3    3    0  502 -0.15531676279E+01 -0.18560492240E+03  0.13262222932E+03  0.22816162618E+03  0.41800000000E+01 0. -1.
        -11    1    1    2    0    0 -0.28858268692E+02  0.21597754936E+03  0.16172709937E+03  0.27135724823E+03  0.00000000000E+00 0.  1.
         11    1    1    2    0    0  0.29253216617E+02  0.20110369392E+02  0.31867474431E+02  0.47704439690E+02  0.00000000000E+00 0. -1.
</event>
<event>
 7    1  0.8653652E-006  0.8126312E+02  0.7561462E-02  0.1325505E+00
         -1   -1    0    0    0  501 -0.00000000000E+00  0.00000000000E+00  0.30535323208E+02  0.30535323208E+02  0.00000000000E+00 0.  1.
          1   -1    0    0  501    0  0.00000000000E+00 -0.00000000000E+00 -0.48760164541E+03  0.48760164541E+03  0.00000000000E+00 0. -1.
         23    2    1    2    0    0 -0.17510636353E+02  0.55068387498E+02 -0.26110257911E+03  0.29523135062E+03  0.12509134217E+03 0.  0.
          5    1    3    3  502    0 -0.34220542127E+02  0.16438349323E+02 -0.24804091197E+03  0.25096420311E+03  0.41800000000E+01 0.  1.
         -5    1    3    3    0  502  0.16709905773E+02  0.38630038175E+02 -0.13061667138E+02  0.44267147511E+02  0.41800000000E+01 0.  1.
        -11    1    1    2    0    0 -0.15738775484E+02  0.21240561184E+01  0.20444876312E+00  0.15882772662E+02  0.00000000000E+00 0.  1.
         11    1    1    2    0    0  0.33249411837E+02 -0.57192443616E+02 -0.19616819186E+03  0.20702284533E+03  0.00000000000E+00 0. -1.
</event>
<event>
 7    1  0.8653652E-006  0.9511717E+02  0.7561462E-02  0.1290912E+00
          3   -1    0    0  501    0  0.00000000000E+00  0.00000000000E+00  0.82374757493E+02  0.82374757493E+02  0.00000000000E+00 0. -1.
         -3   -1    0    0    0  501 -0.00000000000E+00 -0.00000000000E+00 -0.17562796035E+03  0.17562796035E+03  0.00000000000E+00 0.  1.
         23    2    1    2    0    0 -0.32350990207E+02  0.42817307344E+02 -0.70832745555E+02  0.15344243214E+03  0.12508954298E+03 0.  0.
          5    1    3    3  502    0 -0.47798275729E+02  0.66161878016E+02 -0.88192923531E+02  0.12023948364E+03  0.41800000000E+01 0. -1.
         -5    1    3    3    0  502  0.15447285522E+02 -0.23344570671E+02  0.17360177976E+02  0.33202948501E+02  0.41800000000E+01 0. -1.
        -11    1    1    2    0    0 -0.55555437213E+01 -0.41919160780E+02 -0.43923602492E+02  0.60970180928E+02  0.00000000000E+00 0.  1.
         11    1    1    2    0    0  0.37906533928E+02 -0.89814656479E+00  0.21503145185E+02  0.43590104778E+02  0.00000000000E+00 0. -1.
</event>
<event>
 7    1  0.8839897E-006  0.2093310E+03  0.7561462E-02  0.1142097E+00
         -3   -1    0    0    0  501 -0.00000000000E+00  0.00000000000E+00  0.16352002917E+03  0.16352002917E+03  0.00000000000E+00 0.  1.
          3   -1    0    0  501    0  0.00000000000E+00 -0.00000000000E+00 -0.27713625481E+03  0.27713625481E+03  0.00000000000E+00 0. -1.
         23    2    1    2    0    0 -0.17881306303E+03 -0.29027390672E+02 -0.35089122392E+02  0.22292435395E+03  0.12508924876E+03 0.  0.
          5    1    3    3  502    0 -0.10024614554E+03 -0.77383741519E+02 -0.31195726766E+02  0.13049206457E+03  0.41800000000E+01 0. -1.
         -5    1    3    3    0  502 -0.78566917488E+02  0.48356350847E+02 -0.38933956253E+01  0.92432289381E+02  0.41800000000E+01 0. -1.
        -11    1    1    2    0    0  0.92926026759E+02 -0.27348453246E+02 -0.18104399359E+02  0.98544170910E+02  0.00000000000E+00 0.  1.
         11    1    1    2    0    0  0.85887036269E+02  0.56375843919E+02 -0.60422703890E+02  0.11918775911E+03  0.00000000000E+00 0. -1.
</event>
<event>
 7    1  0.8653652E-006  0.9268671E+02  0.7561462E-02  0.1296473E+00
         -3   -1    0    0    0  501 -0.00000000000E+00  0.00000000000E+00  0.74171780946E+02  0.74171780946E+02  0.00000000000E+00 0.  1.
          3   -1    0    0  501    0  0.00000000000E+00 -0.00000000000E+00 -0.18027721728E+03  0.18027721728E+03  0.00000000000E+00 0. -1.
         23    2    1    2    0    0 -0.49785600800E+00 -0.24915945499E+02 -0.25589561001E+02  0.13008475081E+03  0.12508462959E+03 0.  0.
          5    1    3    3  502    0 -0.45361814488E+02 -0.52076535740E+02  0.47505477450E+01  0.69351999915E+02  0.41800000000E+01 0. -1.
         -5    1    3    3    0  502  0.44863958480E+02  0.27160590241E+02 -0.30340108747E+02  0.60732750897E+02  0.41800000000E+01 0. -1.
        -11    1    1    2    0    0 -0.21673606172E+02  0.33414957902E+02  0.61181054356E+00  0.39833138568E+02  0.00000000000E+00 0.  1.
         11    1    1    2    0    0  0.22171462180E+02 -0.84990124030E+01 -0.81127685873E+02  0.84531108842E+02  0.00000000000E+00 0. -1.
</event>
<event>
 7    1  0.8653652E-006  0.1048140E+03  0.7561462E-02  0.1270487E+00
         -2   -1    0    0    0  501 -0.00000000000E+00  0.00000000000E+00  0.25909861688E+02  0.25909861688E+02  0.00000000000E+00 0.  1.
          2   -1    0    0  501    0  0.00000000000E+00 -0.00000000000E+00 -0.45516918835E+03  0.45516918835E+03  0.00000000000E+00 0. -1.
         23    2    1    2    0    0 -0.72360125641E+01  0.12670531131E+02 -0.23011960598E+03  0.26232531467E+03  0.12508651175E+03 0.  0.
          5    1    3    3  502    0 -0.55866360211E+02 -0.22617406139E+02 -0.15283539160E+03  0.16434331927E+03  0.41800000000E+01 0.  1.
         -5    1    3    3    0  502  0.48630347647E+02  0.35287937270E+02 -0.77284214385E+02  0.97981995398E+02  0.41800000000E+01 0.  1.
        -11    1    1    2    0    0  0.92441090014E+01 -0.50379216967E+02 -0.94172745808E+02  0.10720086337E+03  0.00000000000E+00 0.  1.
         11    1    1    2    0    0 -0.20080964373E+01  0.37708685836E+02 -0.10496697487E+03  0.11155287201E+03  0.00000000000E+00 0. -1.
</event>
<event>
 7    1  0.8653652E-006  0.1022155E+03  0.7561462E-02  0.1275705E+00
         -1   -1    0    0    0  501 -0.00000000000E+00  0.00000000000E+00  0.73033755643E+03  0.73033755643E+03  0.00000000000E+00 0.  1.
          1   -1    0    0  501    0  0.00000000000E+00 -0.00000000000E+00 -0.34876818815E+02  0.34876818815E+02  0.00000000000E+00 0. -1.
         23    2    1    2    0    0 -0.19344877403E+01 -0.48601565276E+02  0.63451582348E+03  0.64668504295E+03  0.11500156578E+03 0.  0.
          5    1    3    3  502    0  0.38096126077E+02 -0.52555537978E+02  0.20045127841E+03  0.21074056754E+03  0.41800000000E+01 0. -1.
         -5    1    3    3    0  502 -0.40030613817E+02  0.39539727019E+01  0.43406454508E+03  0.43594447541E+03  0.41800000000E+01 0.  1.
        -11    1    1    2    0    0  0.43188957725E+02  0.34726274840E+02  0.47458761458E+02  0.72962553908E+02  0.00000000000E+00 0. -1.
         11    1    1    2    0    0 -0.41254469985E+02  0.13875290436E+02  0.13486152668E+02  0.45566778383E+02  0.00000000000E+00 0.  1.
</event>
<event>
 6    1  0.8653652E-006  0.2243810E+03  0.7561462E-02  0.1130658E+00
          1   -1    0    0  501    0  0.00000000000E+00  0.00000000000E+00  0.21334410135E+03  0.21334410135E+03  0.00000000000E+00 0. -1.
         -1   -1    0    0    0  501 -0.00000000000E+00 -0.00000000000E+00 -0.28240559462E+03  0.28240559462E+03  0.00000000000E+00 0.  1.
          5    1    1    2  502    0 -0.30027514344E+02  0.19908510718E+02 -0.53602342219E+02  0.64720042553E+02  0.41800000000E+01 0. -1.
         -5    1    1    2    0  502  0.72128499816E+02 -0.20142554425E+03 -0.50812354157E+02  0.21994121509E+03  0.41800000000E+01 0.  1.
        -11    1    1    2    0    0 -0.58290094347E+02  0.10315965085E+03  0.51943033121E+02  0.12937436899E+03  0.00000000000E+00 0. -1.
         11    1    1    2    0    0  0.16189108875E+02  0.78357382681E+02 -0.16589830018E+02  0.81714069332E+02  0.00000000000E+00 0.  1.
</event>
<event>
 7    1  0.8653652E-006  0.1030425E+03  0.7561462E-02  0.1274025E+00
          2   -1    0    0  501    0  0.00000000000E+00  0.00000000000E+00  0.47332190464E+03  0.47332190464E+03  0.00000000000E+00 0. -1.
         -2   -1    0    0    0  501 -0.00000000000E+00 -0.00000000000E+00 -0.32836065112E+02  0.32836065112E+02  0.00000000000E+00 0.  1.
         23    2    1    2    0    0  0.17246565089E+02  0.24709032214E+02  0.12690032278E+03  0.18071778826E+03  0.12508895551E+03 0.  0.
          5    1    3    3  502    0  0.39124339843E+02  0.65321936621E+02  0.10423133158E+03  0.12914841174E+03  0.41800000000E+01 0.  1.
         -5    1    3    3    0  502 -0.21877774753E+02 -0.40612904407E+02  0.22668991201E+02  0.51569376520E+02  0.41800000000E+01 0.  1.
        -11    1    1    2    0    0 -0.48038886546E+02 -0.87618540981E+01  0.13600445594E+03  0.14450507514E+03  0.00000000000E+00 0.  1.
         11    1    1    2    0    0  0.30792321457E+02 -0.15947178116E+02  0.17758106081E+03  0.18093510635E+03  0.00000000000E+00 0. -1.
</event>
<event>
 7    1  0.8653652E-006  0.1023516E+03  0.7561462E-02  0.1275427E+00
          1   -1    0    0  501    0  0.00000000000E+00  0.00000000000E+00  0.11308924325E+03  0.11308924325E+03  0.00000000000E+00 0. -1.
         -1   -1    0    0    0  501 -0.00000000000E+00 -0.00000000000E+00 -0.15180776049E+03  0.15180776049E+03  0.00000000000E+00 0.  1.
         23    2    1    2    0    0  0.36974407888E+02  0.28421854383E+02 -0.79146975026E+02  0.15519594097E+03  0.12508648125E+03 0.  0.
          5    1    3    3  502    0  0.69633946122E+02  0.26428167949E+02 -0.93168610839E+02  0.11935324444E+03  0.41800000000E+01 0.  1.
         -5    1    3    3    0  502 -0.32659538233E+02  0.19936864336E+01  0.14021635813E+02  0.35842696524E+02  0.41800000000E+01 0.  1.
        -11    1    1    2    0    0 -0.61912219584E+02 -0.37284666913E+01  0.91600926127E+01  0.62697142633E+02  0.00000000000E+00 0. -1.
         11    1    1    2    0    0  0.24937811696E+02 -0.24693387691E+02  0.31268365172E+02  0.47003920138E+02  0.00000000000E+00 0.  1.
</event>
<event>
 7    1  0.8653652E-006  0.1609223E+03  0.7561462E-02  0.1187659E+00
         -3   -1    0    0    0  501 -0.00000000000E+00  0.00000000000E+00  0.20161130209E+03  0.20161130209E+03  0.00000000000E+00 0.  1.
          3   -1    0    0  501    0  0.00000000000E+00 -0.00000000000E+00 -0.21753406752E+03  0.21753406752E+03  0.00000000000E+00 0. -1.
         23    2    1    2    0    0  0.13239377169E+02 -0.12964856307E+03  0.11466287964E+03  0.21396425881E+03  0.12509635113E+03 0.  0.
          5    1    3    3  502    0  0.52670547426E+02 -0.40751562636E+02  0.92632850194E+02  0.11416301397E+03  0.41800000000E+01 0.  1.
         -5    1    3    3    0  502 -0.39431170257E+02 -0.88897000432E+02  0.22030029450E+02  0.99801244838E+02  0.41800000000E+01 0.  1.
        -11    1    1    2    0    0  0.36946822140E+02  0.36300553151E+02 -0.35486597751E+02  0.62786116660E+02  0.00000000000E+00 0. -1.
         11    1    1    2    0    0 -0.50186199308E+02  0.93348009917E+02 -0.95099047316E+02  0.14239499414E+03  0.00000000000E+00 0.  1.
</event>
<event>
 7    1  0.8653652E-006  0.1074851E+03  0.7561462E-02  0.1265299E+00
          3   -1    0    0  501    0  0.00000000000E+00  0.00000000000E+00  0.28088320148E+03  0.28088320148E+03  0.00000000000E+00 0. -1.
         -3   -1    0    0    0  501 -0.00000000000E+00 -0.00000000000E+00 -0.46363331721E+02  0.46363331721E+02  0.00000000000E+00 0.  1.
         23    2    1    2    0    0  0.22674031243E+02 -0.27068045234E+02  0.13461135270E+03  0.18712187669E+03  0.12509032615E+03 0.  0.
          5    1    3    3  502    0  0.68387306725E+02 -0.24951053023E+02  0.43051734779E+02  0.84677641887E+02  0.41800000000E+01 0.  1.
         -5    1    3    3    0  502 -0.45713275482E+02 -0.21169922106E+01  0.91559617918E+02  0.10244423480E+03  0.41800000000E+01 0.  1.
        -11    1    1    2    0    0 -0.29475054816E+02 -0.27976174649E+02  0.56991560529E+02  0.69996308303E+02  0.00000000000E+00 0. -1.
         11    1    1    2    0    0  0.68010235733E+01  0.55044219883E+02  0.42916956532E+02  0.70128348206E+02  0.00000000000E+00 0.  1.
</event>
<event>
 7    1  0.8653652E-006  0.1268834E+03  0.7561462E-02  0.1232155E+00
          2   -1    0    0  501    0  0.00000000000E+00  0.00000000000E+00  0.15161508490E+03  0.15161508490E+03  0.00000000000E+00 0. -1.
         -2   -1    0    0    0  501 -0.00000000000E+00 -0.00000000000E+00 -0.23953219885E+03  0.23953219885E+03  0.00000000000E+00 0.  1.
         23    2    1    2    0    0  0.10295504465E+03  0.58277021794E+02 -0.15214229085E+03  0.22976072586E+03  0.12508701770E+03 0.  0.
          5    1    3    3  502    0  0.82700998154E+02  0.29434709102E+02 -0.16898902263E+03  0.19047472107E+03  0.41800000000E+01 0.  1.
         -5    1    3    3    0  502  0.20254046495E+02  0.28842312692E+02  0.16846731787E+02  0.39286004795E+02  0.41800000000E+01 0.  1.
        -11    1    1    2    0    0 -0.66986098227E+02 -0.65521290252E+02  0.78277500309E+02  0.12209645321E+03  0.00000000000E+00 0. -1.
         11    1    1    2    0    0 -0.35968946422E+02  0.72442684578E+01 -0.14052323406E+02  0.39290104674E+02  0.00000000000E+00 0.  1.
</event>
<event>
 7    1  0.8653652E-006  0.1977964E+03  0.7561462E-02  0.1151612E+00
          1   -1    0    0  501    0  0.00000000000E+00  0.00000000000E+00  0.28992417139E+03  0.28992417139E+03  0.00000000000E+00 0. -1.
         -1   -1    0    0    0  501 -0.00000000000E+00 -0.00000000000E+00 -0.14676624725E+03  0.14676624725E+03  0.00000000000E+00 0.  1.
         23    2    1    2    0    0  0.16570276082E+03 -0.53859396448E+02  0.54161576877E+02  0.22122116808E+03  0.12508832586E+03 0.  0.
          5    1    3    3  502    0  0.18482991265E+03 -0.57395346634E+02  0.55202765511E+02  0.20129863423E+03  0.41800000000E+01 0. -1.
         -5    1    3    3    0  502 -0.19127151831E+02  0.35359501857E+01 -0.10411886337E+01  0.19922533841E+02  0.41800000000E+01 0. -1.
        -11    1    1    2    0    0 -0.66651061103E+02  0.49403061931E+02  0.11067272719E+01  0.82971388560E+02  0.00000000000E+00 0.  1.
         11    1    1    2    0    0 -0.99051699715E+02  0.44563345167E+01  0.87889619993E+02  0.13249786201E+03  0.00000000000E+00 0. -1.
</event>
<event>
 7    1  0.8653652E-006  0.1401178E+03  0.7561462E-02  0.1213171E+00
          1   -1    0    0  501    0  0.00000000000E+00  0.00000000000E+00  0.28017492238E+03  0.28017492238E+03  0.00000000000E+00 0. -1.
         -1   -1    0    0    0  501 -0.00000000000E+00 -0.00000000000E+00 -0.11895060897E+03  0.11895060897E+03  0.00000000000E+00 0.  1.
         23    2    1    2    0    0  0.93718708360E+02 -0.80638545379E+02 -0.98654648211E+00  0.17588269310E+03  0.12509187487E+03 0.  0.
          5    1    3    3  502    0  0.76340978127E+02 -0.13056842078E+02 -0.48391253082E+02  0.91419975067E+02  0.41800000000E+01 0.  1.
         -5    1    3    3    0  502  0.17377730233E+02 -0.67581703301E+02  0.47404706600E+02  0.84462718030E+02  0.41800000000E+01 0.  1.
        -11    1    1    2    0    0 -0.52506446945E+02  0.74436346889E+02  0.50816121498E+02  0.10430711823E+03  0.00000000000E+00 0.  1.
         11    1    1    2    0    0 -0.41212261416E+02  0.62021984902E+01  0.11139473840E+03  0.11893572003E+03  0.00000000000E+00 0. -1.
</event>
<event>
 7    1  0.8653652E-006  0.1081768E+03  0.7561462E-02  0.1263984E+00
         -1   -1    0    0    0  501 -0.00000000000E+00  0.00000000000E+00  0.10590871590E+03  0.10590871590E+03  0.00000000000E+00 0.  1.
          1   -1    0    0  501    0  0.00000000000E+00 -0.00000000000E+00 -0.41712967477E+03  0.41712967477E+03  0.00000000000E+00 0. -1.
         23    2    1    2    0    0  0.17677393784E+02  0.46034023916E+02  0.58649185166E+02  0.13874335056E+03  0.11566489872E+03 0.  0.
          5    1    3    3  502    0  0.57568261474E+02  0.44152687573E+02  0.65485963803E+01  0.72965204472E+02  0.41800000000E+01 0. -1.
         -5    1    3    3    0  502 -0.39890867690E+02  0.18813363425E+01  0.52100588785E+02  0.65778146092E+02  0.41800000000E+01 0.  1.
        -11    1    1    2    0    0 -0.18063316717E+02  0.25909734099E+02 -0.13541585136E+03  0.13905053229E+03  0.00000000000E+00 0.  1.
         11    1    1    2    0    0  0.38592293233E+00 -0.71943758015E+02 -0.23445429269E+03  0.24524450781E+03  0.00000000000E+00 0. -1.
</event>
<event>
 7    1  0.8653652E-006  0.6815504E+02  0.7561462E-02  0.1366482E+00
         -1   -1    0    0    0  501 -0.00000000000E+00  0.00000000000E+00  0.41213621299E+02  0.41213621299E+02  0.00000000000E+00 0.  1.
          1   -1    0    0  501    0  0.00000000000E+00 -0.00000000000E+00 -0.30808833423E+03  0.30808833423E+03  0.00000000000E+00 0. -1.
         23    2    1    2    0    0  0.42052287145E+00  0.22503219780E+02 -0.12806436290E+03  0.18042785293E+03  0.12508859791E+03 0.  0.
          5    1    3    3  502    0  0.18799207078E+02  0.12215785514E+02 -0.14882371667E+03  0.15056097318E+03  0.41800000000E+01 0.  1.
         -5    1    3    3    0  502 -0.18378684207E+02  0.10287434266E+02  0.20759353766E+02  0.29866879746E+02  0.41800000000E+01 0.  1.
        -11    1    1    2    0    0  0.29039222444E+02 -0.45965713783E+02 -0.56791223697E+02  0.78621666052E+02  0.00000000000E+00 0.  1.
         11    1    1    2    0    0 -0.29459745316E+02  0.23462494003E+02 -0.82019126334E+02  0.90252436552E+02  0.00000000000E+00 0. -1.
</event>
<event>
 7    1  0.8653652E-006  0.1173133E+03  0.7561462E-02  0.1247596E+00
          1   -1    0    0  501    0  0.00000000000E+00  0.00000000000E+00  0.98296755946E+03  0.98296755946E+03  0.00000000000E+00 0. -1.
         -1   -1    0    0    0  501 -0.00000000000E+00 -0.00000000000E+00 -0.15567912460E+02  0.15567912460E+02  0.00000000000E+00 0.  1.
         23    2    1    2    0    0  0.56847623996E+02  0.59803917872E+01  0.46835430471E+03  0.48812988716E+03  0.12509042554E+03 0.  0.
          5    1    3    3  502    0  0.75267674866E+02 -0.39615705200E+02  0.34290995714E+03  0.35332610727E+03  0.41800000000E+01 0.  1.
         -5    1    3    3    0  502 -0.18420050871E+02  0.45596096987E+02  0.12544434757E+03  0.13480377989E+03  0.41800000000E+01 0.  1.
        -11    1    1    2    0    0 -0.78369901432E+02 -0.34866937045E+01  0.45001626909E+03  0.45680262798E+03  0.00000000000E+00 0. -1.
         11    1    1    2    0    0  0.21522277436E+02 -0.24936980826E+01  0.49029073198E+02  0.53602956773E+02  0.00000000000E+00 0.  1.
</event>
<event>
 7    1  0.8653652E-006  0.2977329E+03  0.7561462E-02  0.1086379E+00
         -1   -1    0    0    0  501 -0.00000000000E+00  0.00000000000E+00  0.51079427078E+02  0.51079427078E+02  0.00000000000E+00 0.  1.
          1   -1    0    0  501    0  0.00000000000E+00 -0.00000000000E+00 -0.21682272025E+04  0.21682272025E+04  0.00000000000E+00 0. -1.
         23    2    1    2    0    0 -0.25646394091E+03  0.14655569601E+03 -0.71680960766E+03  0.78531297616E+03  0.12509249327E+03 0.  0.
          5    1    3    3  502    0 -0.20718408105E+03  0.11725895261E+03 -0.41829234840E+03  0.48131161064E+03  0.41800000000E+01 0. -1.
         -5    1    3    3    0  502 -0.49279859859E+02  0.29296743400E+02 -0.29851725926E+03  0.30400136552E+03  0.41800000000E+01 0. -1.
        -11    1    1    2    0    0  0.23452590600E+03 -0.14892643933E+03 -0.13592963023E+04  0.13873960943E+04  0.00000000000E+00 0. -1.
         11    1    1    2    0    0  0.21938034902E+02  0.23707433144E+01 -0.41041865475E+02  0.46597559174E+02  0.00000000000E+00 0.  1.
</event>
<event>
 7    1  0.8653652E-006  0.1330406E+03  0.7561462E-02  0.1223013E+00
          4   -1    0    0  501    0  0.00000000000E+00  0.00000000000E+00  0.66722151539E+02  0.66722151539E+02  0.00000000000E+00 0. -1.
         -4   -1    0    0    0  501 -0.00000000000E+00 -0.00000000000E+00 -0.49495630000E+03  0.49495630000E+03  0.00000000000E+00 0.  1.
         23    2    1    2    0    0  0.77026593410E+02 -0.69048318115E+02 -0.38302432615E+03  0.41599985050E+03  0.12508986715E+03 0.  0.
          5    1    3    3  502    0  0.42096636098E+02  0.33175747632E+02 -0.11294460104E+03  0.12508681907E+03  0.41800000000E+01 0.  1.
         -5    1    3    3    0  502  0.34929957311E+02 -0.10222406575E+03 -0.27007972511E+03  0.29091303142E+03  0.41800000000E+01 0.  1.
        -11    1    1    2    0    0 -0.25968215543E+02  0.31554961219E+02 -0.67177833362E+02  0.78631578206E+02  0.00000000000E+00 0.  1.
         11    1    1    2    0    0 -0.51058377866E+02  0.37493356896E+02  0.21968011053E+02  0.67047022837E+02  0.00000000000E+00 0. -1.
</event>
<event>
 7    1  0.8653652E-006  0.1102754E+03  0.7561462E-02  0.1260061E+00
          2   -1    0    0  501    0  0.00000000000E+00  0.00000000000E+00  0.78824279842E+03  0.78824279842E+03  0.00000000000E+00 0. -1.
         -2   -1    0    0    0  501 -0.00000000000E+00 -0.00000000000E+00 -0.19554920520E+02  0.19554920520E+02  0.00000000000E+00 0.  1.
         23    2    1    2    0    0 -0.48463522162E+02 -0.23115162762E+02  0.37236759561E+03  0.39647009607E+03  0.12509151485E+03 0.  0.
          5    1    3    3  502    0 -0.45395167832E+02  0.31847079878E+02  0.30176483150E+03  0.30684596085E+03  0.41800000000E+01 0. -1.
         -5    1    3    3    0  502 -0.30683543296E+01 -0.54962242640E+02  0.70602764112E+02  0.89624135223E+02  0.41800000000E+01 0. -1.
        -11    1    1    2    0    0 -0.22799669593E+02 -0.16553094754E+02  0.87872193356E+02  0.92278666249E+02  0.00000000000E+00 0.  1.
         11    1    1    2    0    0  0.71263191755E+02  0.39668257516E+02  0.30844808893E+03  0.31904895661E+03  0.00000000000E+00 0. -1.
</event>
<event>
 6    1  0.8653652E-006  0.1071193E+03  0.7561462E-02  0.1265999E+00
         -2   -1    0    0    0  501 -0.00000000000E+00  0.00000000000E+00  0.83053298545E+02  0.83053298545E+02  0.00000000000E+00 0.  1.
          2   -1    0    0  501    0  0.00000000000E+00 -0.00000000000E+00 -0.45274491947E+03  0.45274491947E+03  0.00000000000E+00 0. -1.
          5    1    1    2  502    0  0.69990968162E+02 -0.40892891511E+01 -0.10918039046E+03  0.12982021403E+03  0.41800000000E+01 0. -1.
         -5    1    1    2    0  502  0.15555638052E+02  0.96606720236E+01  0.59293536345E+02  0.62197285402E+02  0.41800000000E+01 0.  1.
        -11    1    1    2    0    0  0.18796461205E+02  0.71399999928E+01 -0.37659777171E+02  0.42691279792E+02  0.00000000000E+00 0.  1.
         11    1    1    2    0    0 -0.10434306742E+03 -0.12711382865E+02 -0.28214498963E+03  0.30108943878E+03  0.00000000000E+00 0. -1.
</event>
<event>
 7    1  0.8653652E-006  0.1147110E+03  0.7561462E-02  0.1252086E+00
         -1   -1    0    0    0  501 -0.00000000000E+00  0.00000000000E+00  0.43661060984E+02  0.43661060984E+02  0.00000000000E+00 0.  1.
          1   -1    0    0  501    0  0.00000000000E+00 -0.00000000000E+00 -0.48380855851E+03  0.48380855851E+03  0.00000000000E+00 0. -1.
         23    2    1    2    0    0  0.85326452151E+02  0.42423209965E+02 -0.22683315261E+03  0.27600788397E+03  0.12508693262E+03 0.  0.
          5    1    3    3  502    0  0.52808067294E+02  0.43084923767E+02 -0.23286099866E+03  0.24266586023E+03  0.41800000000E+01 0.  1.
         -5    1    3    3    0  502  0.32518384857E+02 -0.66171380202E+00  0.60278460506E+01  0.33342023737E+02  0.41800000000E+01 0.  1.
        -11    1    1    2    0    0 -0.84343414566E+02 -0.64543010847E+02 -0.14559952012E+03  0.18021884499E+03  0.00000000000E+00 0.  1.
         11    1    1    2    0    0 -0.98303758494E+00  0.22119800882E+02 -0.67714824798E+02  0.71242890532E+02  0.00000000000E+00 0. -1.
</event>
<event>
 7    1  0.8653652E-006  0.1793291E+03  0.7561462E-02  0.1168454E+00
         -2   -1    0    0    0  501 -0.00000000000E+00  0.00000000000E+00  0.52952344579E+02  0.52952344579E+02  0.00000000000E+00 0.  1.
          2   -1    0    0  501    0  0.00000000000E+00 -0.00000000000E+00 -0.88118402210E+03  0.88118402210E+03  0.00000000000E+00 0. -1.
         23    2    1    2    0    0  0.96827680558E+02 -0.13536454511E+03 -0.24848632565E+03  0.32418015563E+03  0.12509260360E+03 0.  0.
          5    1    3    3  502    0  0.84118450520E+02 -0.96551019495E+02 -0.80644688424E+02  0.15139039353E+03  0.41800000000E+01 0. -1.
         -5    1    3    3    0  502  0.12709230038E+02 -0.38813525611E+02 -0.16784163723E+03  0.17278976210E+03  0.41800000000E+01 0. -1.
        -11    1    1    2    0    0 -0.54305223368E+02  0.13653890104E+03 -0.44103154427E+03  0.46486638061E+03  0.00000000000E+00 0.  1.
         11    1    1    2    0    0 -0.42522457190E+02 -0.11743559308E+01 -0.13871380760E+03  0.14508983044E+03  0.00000000000E+00 0. -1.
</event>
<event>
 7    1  0.8653652E-006  0.1172801E+03  0.7561462E-02  0.1247653E+00
          3   -1    0    0  501    0  0.00000000000E+00  0.00000000000E+00  0.38919850934E+02  0.38919850934E+02  0.00000000000E+00 0. -1.
         -3   -1    0    0    0  501 -0.00000000000E+00 -0.00000000000E+00 -0.36690428648E+03  0.36690428648E+03  0.00000000000E+00 0.  1.
         23    2    1    2    0    0 -0.41352264318E+02  0.19894391050E+02 -0.22056293386E+03  0.25768470938E+03  0.12509038771E+03 0.  0.
          5    1    3    3  502    0  0.30962703261E+02 -0.31541651509E+02 -0.74576712830E+02  0.86791262635E+02  0.41800000000E+01 0.  1.
         -5    1    3    3    0  502 -0.72314967579E+02  0.51436042560E+02 -0.14598622103E+03  0.17089344674E+03  0.41800000000E+01 0.  1.
        -11    1    1    2    0    0  0.43670099673E+02  0.28969122937E+02 -0.46964330969E+02  0.70369994121E+02  0.00000000000E+00 0. -1.
         11    1    1    2    0    0 -0.23178353559E+01 -0.48863513988E+02 -0.60457170719E+02  0.77769433914E+02  0.00000000000E+00 0.  1.
</event>
<event>
 7    1  0.8653652E-006  0.1393214E+03  0.7561462E-02  0.1214245E+00
          3   -1    0    0  501    0  0.00000000000E+00  0.00000000000E+00  0.35740601460E+03  0.35740601460E+03  0.00000000000E+00 0. -1.
         -3   -1    0    0    0  501 -0.00000000000E+00 -0.00000000000E+00 -0.65270981633E+02  0.65270981633E+02  0.00000000000E+00 0.  1.
         23    2    1    2    0    0  0.31708949164E+02 -0.96854088075E+02  0.10941240175E+03  0.19494699131E+03  0.12508830452E+03 0.  0.
          5    1    3    3  502    0  0.78475361858E+02 -0.44566717243E+02  0.52293745676E+02  0.10438717805E+03  0.41800000000E+01 0. -1.
         -5    1    3    3    0  502 -0.46766412694E+02 -0.52287370833E+02  0.57118656078E+02  0.90559813256E+02  0.41800000000E+01 0. -1.
        -11    1    1    2    0    0  0.90166196160E+01  0.66809464765E+02  0.15720847120E+03  0.17105352212E+03  0.00000000000E+00 0.  1.
         11    1    1    2    0    0 -0.40725568780E+02  0.30044623311E+02  0.25514160012E+02  0.56676482808E+02  0.00000000000E+00 0. -1.
</event>
<event>
 7    1  0.8653652E-006  0.1110323E+03  0.7561462E-02  0.1258670E+00
          3   -1    0    0  501    0  0.00000000000E+00  0.00000000000E+00  0.80742220569E+02  0.80742220569E+02  0.00000000000E+00 0. -1.
         -3   -1    0    0    0  501 -0.00000000000E+00 -0.00000000000E+00 -0.24107338848E+03  0.24107338848E+03  0.00000000000E+00 0.  1.
         23    2    1    2    0    0  0.41003239334E+02  0.28460152403E+02 -0.17153667073E+03  0.21809164516E+03  0.12509152799E+03 0.  0.
          5    1    3    3  502    0 -0.38531840017E+02 -0.12826326299E+02 -0.80614726234E+02  0.90362734726E+02  0.41800000000E+01 0.  1.
         -5    1    3    3    0  502  0.79535079351E+02  0.41286478702E+02 -0.90921944493E+02  0.12772891044E+03  0.41800000000E+01 0.  1.
        -11    1    1    2    0    0  0.69979349136E+01  0.21282382054E+02  0.24642275619E+02  0.33303943110E+02  0.00000000000E+00 0.  1.
         11    1    1    2    0    0 -0.48001174248E+02 -0.49742534457E+02 -0.13436772808E+02  0.70420020782E+02  0.00000000000E+00 0. -1.
</event>
<event>
 7    1  0.8653652E-006  0.1368469E+03  0.7561462E-02  0.1217636E+00
          2   -1    0    0  501    0  0.00000000000E+00  0.00000000000E+00  0.56903599451E+03  0.56903599451E+03  0.00000000000E+00 0. -1.
         -2   -1    0    0    0  501 -0.00000000000E+00 -0.00000000000E+00 -0.34358038732E+02  0.34358038732E+02  0.00000000000E+00 0.  1.
         23    2    1    2    0    0 -0.71972289229E+02  0.48879474285E+02  0.25153640759E+03  0.29407858819E+03  0.12506973361E+03 0.  0.
          5    1    3    3  502    0 -0.74466215223E+02  0.84958968761E+02  0.16317922419E+03  0.19851492435E+03  0.41800000000E+01 0. -1.
         -5    1    3    3    0  502  0.24939259931E+01 -0.36079494476E+02  0.88357183397E+02  0.95563663839E+02  0.41800000000E+01 0. -1.
        -11    1    1    2    0    0  0.36168001448E+02  0.23744195579E+02  0.88732844914E+02  0.98718939009E+02  0.00000000000E+00 0.  1.
         11    1    1    2    0    0  0.35804287782E+02 -0.72623669864E+02  0.19440870327E+03  0.21059650604E+03  0.00000000000E+00 0. -1.
</event>
<event>
 7    1  0.8653652E-006  0.7664511E+02  0.7561462E-02  0.1338851E+00
          1   -1    0    0  501    0  0.00000000000E+00  0.00000000000E+00  0.45352115520E+02  0.45352115520E+02  0.00000000000E+00 0. -1.
         -1   -1    0    0    0  501 -0.00000000000E+00 -0.00000000000E+00 -0.29829514567E+03  0.29829514567E+03  0.00000000000E+00 0.  1.
         23    2    1    2    0    0 -0.72696249912E+01 -0.12287829715E+02 -0.20960442885E+03  0.24451132623E+03  0.12509170177E+03 0.  0.
          5    1    3    3  502    0  0.33165345473E+02 -0.28035394708E+02 -0.16655658727E+02  0.46699109889E+02  0.41800000000E+01 0.  1.
         -5    1    3    3    0  502 -0.40434970464E+02  0.15747564993E+02 -0.19294877013E+03  0.19781221634E+03  0.41800000000E+01 0.  1.
        -11    1    1    2    0    0 -0.28472967459E+02  0.10270653329E+02  0.12547862828E+02  0.32766523424E+02  0.00000000000E+00 0. -1.
         11    1    1    2    0    0  0.35742592450E+02  0.20171763862E+01 -0.55886464127E+02  0.66369411540E+02  0.00000000000E+00 0.  1.
</event>
<event>
 7    1  0.8653652E-006  0.1040693E+03  0.7561462E-02  0.1271964E+00
         -2   -1    0    0    0  501 -0.00000000000E+00  0.00000000000E+00  0.93417339281E+02  0.93417339281E+02  0.00000000000E+00 0.  1.
          2   -1    0    0  501    0  0.00000000000E+00 -0.00000000000E+00 -0.14604302253E+03  0.14604302253E+03  0.00000000000E+00 0. -1.
         23    2    1    2    0    0  0.32832573135E+02 -0.97714862111E-01 -0.13412375180E+01  0.12933441937E+03  0.12509039015E+03 0.  0.
          5    1    3    3  502    0 -0.18418403250E+01  0.59357578354E+02 -0.79606374748E+01  0.60062955578E+02  0.41800000000E+01 0. -1.
         -5    1    3    3    0  502  0.34674413460E+02 -0.59455293216E+02  0.66193999568E+01  0.69271463793E+02  0.41800000000E+01 0. -1.
        -11    1    1    2    0    0  0.23326347661E+02  0.23685265726E+01  0.11283819777E+02  0.26020242160E+02  0.00000000000E+00 0.  1.
         11    1    1    2    0    0 -0.56158920796E+02 -0.22708117105E+01 -0.62568265503E+02  0.84105700276E+02  0.00000000000E+00 0. -1.
</event>
<event>
 7    1  0.8653652E-006  0.1135853E+03  0.7561462E-02  0.1254071E+00
          1   -1    0    0  501    0  0.00000000000E+00  0.00000000000E+00  0.11045013825E+03  0.11045013825E+03  0.00000000000E+00 0. -1.
         -1   -1    0    0    0  501 -0.00000000000E+00 -0.00000000000E+00 -0.26737785783E+03  0.26737785783E+03  0.00000000000E+00 0.  1.
         23    2    1    2    0    0 -0.58266900280E+02  0.12432423345E+01 -0.21626901385E+03  0.25654539273E+03  0.12508666938E+03 0.  0.
          5    1    3    3  502    0  0.35773047002E+02 -0.14813267982E+02 -0.91376751018E+02  0.99329385515E+02  0.41800000000E+01 0. -1.
         -5    1    3    3    0  502 -0.94039947282E+02  0.16056510316E+02 -0.12489226283E+03  0.15721600721E+03  0.41800000000E+01 0. -1.
        -11    1    1    2    0    0  0.46718998577E+02 -0.34143917975E+02  0.63796697821E+02  0.86130660137E+02  0.00000000000E+00 0. -1.
         11    1    1    2    0    0  0.11547901703E+02  0.32900675640E+02 -0.44554035479E+01  0.35151943219E+02  0.00000000000E+00 0.  1.
</event>
<event>
 7    1  0.8653652E-006  0.1020120E+03  0.7561462E-02  0.1276121E+00
         -1   -1    0    0    0  501 -0.00000000000E+00  0.00000000000E+00  0.69578271617E+02  0.69578271617E+02  0.00000000000E+00 0.  1.
          1   -1    0    0  501    0  0.00000000000E+00 -0.00000000000E+00 -0.19268129967E+03  0.19268129967E+03  0.00000000000E+00 0. -1.
         23    2    1    2    0    0 -0.28987366020E+02 -0.10400634113E+02 -0.39021481183E+02  0.13460546982E+03  0.12509003131E+03 0.  0.
          5    1    3    3  502    0 -0.64987793186E+02 -0.30005927138E+02 -0.55044679458E+02  0.90394458144E+02  0.41800000000E+01 0. -1.
         -5    1    3    3    0  502  0.36000427165E+02  0.19605293025E+02  0.16023198275E+02  0.44211011679E+02  0.41800000000E+01 0. -1.
        -11    1    1    2    0    0  0.50013375596E+02 -0.20241386445E+02 -0.29128042518E+02  0.61314715401E+02  0.00000000000E+00 0.  1.
         11    1    1    2    0    0 -0.21026009576E+02  0.30642020558E+02 -0.54953504348E+02  0.66339386059E+02  0.00000000000E+00 0. -1.
</event>
<event>
 7    1  0.8653652E-006  0.8151276E+02  0.7561462E-02  0.1324812E+00
          2   -1    0    0  501    0  0.00000000000E+00  0.00000000000E+00  0.34629895805E+03  0.34629895805E+03  0.00000000000E+00 0. -1.
         -2   -1    0    0    0  501 -0.00000000000E+00 -0.00000000000E+00 -0.36428796155E+02  0.36428796155E+02  0.00000000000E+00 0.  1.
         23    2    1    2    0    0 -0.14488446856E+02 -0.15392716659E+02  0.17642213864E+03  0.21730009779E+03  0.12509080973E+03 0.  0.
          5    1    3    3  502    0  0.16767997219E+02  0.15218975461E+02  0.17154238494E+03  0.17308103644E+03  0.41800000000E+01 0. -1.
         -5    1    3    3    0  502 -0.31256444075E+02 -0.30611692120E+02  0.48797537064E+01  0.44219061352E+02  0.41800000000E+01 0. -1.
        -11    1    1    2    0    0  0.53465615658E+02 -0.16914592547E+01  0.89386466275E+02  0.10416992582E+03  0.00000000000E+00 0. -1.
         11    1    1    2    0    0 -0.38977168802E+02  0.17084175913E+02  0.44061556974E+02  0.61257730593E+02  0.00000000000E+00 0.  1.
</event>
<event>
 7    1  0.8653652E-006  0.9586690E+02  0.7561462E-02  0.1289235E+00
          1   -1    0    0  501    0  0.00000000000E+00  0.00000000000E+00  0.73954940918E+02  0.73954940918E+02  0.00000000000E+00 0. -1.
         -1   -1    0    0    0  501 -0.00000000000E+00 -0.00000000000E+00 -0.19605503746E+03  0.19605503746E+03  0.00000000000E+00 0.  1.
         23    2    1    2    0    0  0.20418229178E+02 -0.40316843168E+02 -0.95784085370E+02  0.16389977901E+03  0.12508474977E+03 0.  0.
          5    1    3    3  502    0 -0.36484742592E+02 -0.57127220982E+02 -0.74291655640E+02  0.10065474811E+03  0.41800000000E+01 0.  1.
         -5    1    3    3    0  502  0.56902971770E+02  0.16810377814E+02 -0.21492429730E+02  0.63245030905E+02  0.41800000000E+01 0.  1.
        -11    1    1    2    0    0 -0.30881730902E+02  0.10303889677E+02 -0.54596232775E+02  0.63565714652E+02  0.00000000000E+00 0.  1.
         11    1    1    2    0    0  0.10463501724E+02  0.30012953491E+02  0.28280221602E+02  0.42544484712E+02  0.00000000000E+00 0. -1.
</event>
<event>
 7    1  0.8653652E-006  0.1051166E+03  0.7561462E-02  0.1269890E+00
         -2   -1    0    0    0  501 -0.00000000000E+00  0.00000000000E+00  0.45301430802E+03  0.45301430802E+03  0.00000000000E+00 0.  1.
          2   -1    0    0  501    0  0.00000000000E+00 -0.00000000000E+00 -0.34971775342E+02  0.34971775342E+02  0.00000000000E+00 0. -1.
         23    2    1    2    0    0  0.29296286028E+02  0.50949015003E+02  0.23811180522E+03  0.27531833755E+03  0.12509548634E+03 0.  0.
          5    1    3    3  502    0 -0.90549265500E+01  0.80393836610E+02  0.98627617619E+02  0.12763244108E+03  0.41800000000E+01 0.  1.
         -5    1    3    3    0  502  0.38351212578E+02 -0.29444821608E+02  0.13948418760E+03  0.14768589647E+03  0.41800000000E+01 0.  1.
        -11    1    1    2    0    0  0.86919395532E+01 -0.40317746811E+02  0.16566149995E+03  0.17071849076E+03  0.00000000000E+00 0.  1.
         11    1    1    2    0    0 -0.37988225581E+02 -0.10631268192E+02  0.14269227519E+02  0.41949255060E+02  0.00000000000E+00 0. -1.
</event>
<event>
 7    1  0.8653652E-006  0.1088355E+03  0.7561462E-02  0.1262742E+00
         -1   -1    0    0    0  501 -0.00000000000E+00  0.00000000000E+00  0.46371799415E+02  0.46371799415E+02  0.00000000000E+00 0.  1.
          1   -1    0    0  501    0  0.00000000000E+00 -0.00000000000E+00 -0.50753750226E+03  0.50753750226E+03  0.00000000000E+00 0. -1.
         23    2    1    2    0    0  0.85506370485E+02  0.45143798765E+02 -0.13229009509E+03  0.19912949075E+03  0.11314849919E+03 0.  0.
          5    1    3    3  502    0  0.40420757813E+02  0.38421632862E+02 -0.14175346949E+03  0.15238627906E+03  0.41800000000E+01 0. -1.
         -5    1    3    3    0  502  0.45085612672E+02  0.67221659031E+01  0.94633743969E+01  0.46743211693E+02  0.41800000000E+01 0.  1.
        -11    1    1    2    0    0 -0.65515932789E+02  0.11711799219E+01 -0.94234287470E+02  0.11477721920E+03  0.00000000000E+00 0.  1.
         11    1    1    2    0    0 -0.19990437696E+02 -0.46314978687E+02 -0.23464132028E+03  0.24000259172E+03  0.00000000000E+00 0. -1.
</event>
<event>
 7    1  0.8653652E-006  0.1320406E+03  0.7561462E-02  0.1224459E+00
          1   -1    0    0  501    0  0.00000000000E+00  0.00000000000E+00  0.96185477945E+02  0.96185477945E+02  0.00000000000E+00 0. -1.
         -1   -1    0    0    0  501 -0.00000000000E+00 -0.00000000000E+00 -0.28675343087E+03  0.28675343087E+03  0.00000000000E+00 0.  1.
         23    2    1    2    0    0  0.16749680476E+02  0.78140496922E+02 -0.21441393495E+03  0.26078272388E+03  0.12509118481E+03 0.  0.
          5    1    3    3  502    0  0.48847107888E+02  0.95766455981E+02 -0.13048973177E+03  0.16912213497E+03  0.41800000000E+01 0.  1.
         -5    1    3    3    0  502 -0.32097427412E+02 -0.17625959059E+02 -0.83924203180E+02  0.91660588906E+02  0.41800000000E+01 0.  1.
        -11    1    1    2    0    0 -0.31429503634E+02 -0.93351046118E+02  0.17148175306E+02  0.99981455412E+02  0.00000000000E+00 0.  1.
         11    1    1    2    0    0  0.14679823158E+02  0.15210549196E+02  0.66978067165E+01  0.22174729527E+02  0.00000000000E+00 0. -1.
</event>
<event>
 7    1  0.8653652E-006  0.1070241E+03  0.7561462E-02  0.1266182E+00
          1   -1    0    0  501    0  0.00000000000E+00  0.00000000000E+00  0.51556501023E+03  0.51556501023E+03  0.00000000000E+00 0. -1.
         -1   -1    0    0    0  501 -0.00000000000E+00 -0.00000000000E+00 -0.28474389867E+02  0.28474389867E+02  0.00000000000E+00 0.  1.
         23    2    1    2    0    0 -0.14209215033E+01  0.39997314813E+02  0.18637944974E+03  0.22800559457E+03  0.12508975842E+03 0.  0.
          5    1    3    3  502    0  0.20138660829E+02 -0.34347987221E+02  0.20662013037E+02  0.45052647745E+02  0.41800000000E+01 0. -1.
         -5    1    3    3    0  502 -0.21559582333E+02  0.74345302034E+02  0.16571743670E+03  0.18295294683E+03  0.41800000000E+01 0. -1.
        -11    1    1    2    0    0 -0.34005860836E+02  0.97897517579E+01  0.12938592312E+03  0.13413782059E+03  0.00000000000E+00 0. -1.
         11    1    1    2    0    0  0.35426782339E+02 -0.49787066571E+02  0.17132524750E+03  0.18189598494E+03  0.00000000000E+00 0.  1.
</event>
<event>
 7    1  0.8653652E-006  0.8129164E+02  0.7561462E-02  0.1325425E+00
         -1   -1    0    0    0  501 -0.00000000000E+00  0.00000000000E+00  0.12789802819E+03  0.12789802819E+03  0.00000000000E+00 0.  1.
          1   -1    0    0  501    0  0.00000000000E+00 -0.00000000000E+00 -0.12603220180E+03  0.12603220180E+03  0.00000000000E+00 0. -1.
         23    2    1    2    0    0  0.60615167767E+02 -0.22643597001E+02  0.16261043436E+02  0.14174888435E+03  0.12506555734E+03 0.  0.
          5    1    3    3  502    0  0.11376001913E+02  0.61246896464E+01 -0.51399254769E+02  0.53162778648E+02  0.41800000000E+01 0.  1.
         -5    1    3    3    0  502  0.49239165854E+02 -0.28768286647E+02  0.67660298205E+02  0.88586105704E+02  0.41800000000E+01 0.  1.
        -11    1    1    2    0    0 -0.34848467595E+02 -0.21329243794E+02  0.24880924471E+02  0.47837357129E+02  0.00000000000E+00 0.  1.
         11    1    1    2    0    0 -0.25766700172E+02  0.43972840795E+02 -0.39276141510E+02  0.64343988509E+02  0.00000000000E+00 0. -1.
</event>
<event>
 7    1  0.8653652E-006  0.1639607E+03  0.7561462E-02  0.1184296E+00
         -2   -1    0    0    0  501 -0.00000000000E+00  0.00000000000E+00  0.40171670085E+03  0.40171670085E+03  0.00000000000E+00 0. -1.
          2   -1    0    0  501    0  0.00000000000E+00 -0.00000000000E+00 -0.78483949481E+02  0.78483949481E+02  0.00000000000E+00 0.  1.
         23    2    1    2    0    0 -0.11612915555E+03 -0.68221578635E+02  0.22523021476E+03  0.29071870235E+03  0.12509416331E+03 0.  0.
          5    1    3    3  502    0  0.20042004364E+01 -0.63367328236E+02  0.59142481563E+02  0.86802883780E+02  0.41800000000E+01 0.  1.
         -5    1    3    3    0  502 -0.11813335599E+03 -0.48542503992E+01  0.16608773319E+03  0.20391581857E+03  0.41800000000E+01 0.  1.
        -11    1    1    2    0    0  0.94967472763E+02  0.25388908450E+02  0.10185086145E+03  0.14155216541E+03  0.00000000000E+00 0. -1.
         11    1    1    2    0    0  0.21161682790E+02  0.42832670185E+02 -0.38483248325E+01  0.47929782575E+02  0.00000000000E+00 0.  1.
</event>
<event>
 7    1  0.8653652E-006  0.1122473E+03  0.7561462E-02  0.1256464E+00
          1   -1    0    0  501    0  0.00000000000E+00  0.00000000000E+00  0.84355677172E+02  0.84355677172E+02  0.00000000000E+00 0. -1.
         -1   -1    0    0    0  501 -0.00000000000E+00 -0.00000000000E+00 -0.19374827932E+03  0.19374827932E+03  0.00000000000E+00 0.  1.
         23    2    1    2    0    0 -0.13966755274E+02 -0.63557038348E+02 -0.74522870261E+02  0.15948474312E+03  0.12508859948E+03 0.  0.
          5    1    3    3  502    0  0.48968537103E+02 -0.87834043999E+01 -0.38686441408E+01  0.50074990028E+02  0.41800000000E+01 0.  1.
         -5    1    3    3    0  502 -0.62935292377E+02 -0.54773633948E+02 -0.70654226120E+02  0.10940975309E+03  0.41800000000E+01 0.  1.
        -11    1    1    2    0    0  0.39567675138E+02  0.39012371510E+02  0.14878272411E+02  0.57523291253E+02  0.00000000000E+00 0. -1.
         11    1    1    2    0    0 -0.25600919864E+02  0.24544666837E+02 -0.49748004295E+02  0.61095922117E+02  0.00000000000E+00 0.  1.
</event>
<event>
 7    1  0.8653652E-006  0.1358879E+03  0.7561462E-02  0.1218972E+00
         -1   -1    0    0    0  501 -0.00000000000E+00  0.00000000000E+00  0.35287571922E+03  0.35287571922E+03  0.00000000000E+00 0.  1.
          1   -1    0    0  501    0  0.00000000000E+00 -0.00000000000E+00 -0.64359315706E+02  0.64359315706E+02  0.00000000000E+00 0. -1.
         23    2    1    2    0    0 -0.82666410303E+02 -0.68977421793E+02  0.16674025429E+03  0.23460931932E+03  0.12509036814E+03 0.  0.
          5    1    3    3  502    0 -0.85677063566E+02  0.83267176521E+01  0.72585530786E+02  0.11267663967E+03  0.41800000000E+01 0.  1.
         -5    1    3    3    0  502  0.30106532638E+01 -0.77304139445E+02  0.94154723500E+02  0.12193267965E+03  0.41800000000E+01 0.  1.
        -11    1    1    2    0    0  0.69098052493E+02  0.52542251511E+02  0.13278240590E+03  0.15863920187E+03  0.00000000000E+00 0.  1.
         11    1    1    2    0    0  0.13568357810E+02  0.16435170282E+02 -0.11006256667E+02  0.23986513745E+02  0.00000000000E+00 0. -1.
</event>
<event>
 7    1  0.8653652E-006  0.1053628E+03  0.7561462E-02  0.1269407E+00
         -1   -1    0    0    0  501 -0.00000000000E+00  0.00000000000E+00  0.78591055944E+03  0.78591055944E+03  0.00000000000E+00 0.  1.
          1   -1    0    0  501    0  0.00000000000E+00 -0.00000000000E+00 -0.28134385532E+02  0.28134385532E+02  0.00000000000E+00 0. -1.
         23    2    1    2    0    0  0.85825705815E+02  0.48099878327E+02  0.34253412146E+03  0.37769934666E+03  0.12509005567E+03 0.  0.
          5    1    3    3  502    0  0.74863490460E+01  0.12376507848E+02 -0.77713619932E+01  0.16943725558E+02  0.41800000000E+01 0. -1.
         -5    1    3    3    0  502  0.78339356769E+02  0.35723370479E+02  0.35030548346E+03  0.36075562110E+03  0.41800000000E+01 0. -1.
        -11    1    1    2    0    0 -0.66090967707E+02 -0.10385444493E+02  0.36224492504E+03  0.36837108897E+03  0.00000000000E+00 0.  1.
         11    1    1    2    0    0 -0.19734738107E+02 -0.37714433834E+02  0.52997127409E+02  0.67974509348E+02  0.00000000000E+00 0. -1.
</event>
<event>
 7    1  0.8653652E-006  0.1364007E+03  0.7561462E-02  0.1218256E+00
          2   -1    0    0  501    0  0.00000000000E+00  0.00000000000E+00  0.40789238143E+03  0.40789238143E+03  0.00000000000E+00 0. -1.
         -2   -1    0    0    0  501 -0.00000000000E+00 -0.00000000000E+00 -0.47631005576E+02  0.47631005576E+02  0.00000000000E+00 0.  1.
         23    2    1    2    0    0  0.52732848730E+02  0.65388925792E+02  0.21115007060E+03  0.25939703607E+03  0.12508399200E+03 0.  0.
          5    1    3    3  502    0 -0.36010219102E+02  0.11227580806E+01  0.84014127328E+02  0.91508701533E+02  0.41800000000E+01 0.  1.
         -5    1    3    3    0  502  0.88743067832E+02  0.64266167711E+02  0.12713594328E+03  0.16788833454E+03  0.41800000000E+01 0.  1.
        -11    1    1    2    0    0  0.20659463480E+02 -0.46823582183E+02  0.51579922858E+02  0.72661886307E+02  0.00000000000E+00 0.  1.
         11    1    1    2    0    0 -0.73392312210E+02 -0.18565343609E+02  0.97531382390E+02  0.12346446463E+03  0.00000000000E+00 0. -1.
</event>
<event>
 7    1  0.8653652E-006  0.1385697E+03  0.7561462E-02  0.1215267E+00
         -2   -1    0    0    0  501 -0.00000000000E+00  0.00000000000E+00  0.36055382649E+02  0.36055382649E+02  0.00000000000E+00 0.  1.
          2   -1    0    0  501    0  0.00000000000E+00 -0.00000000000E+00 -0.73897053998E+03  0.73897053998E+03  0.00000000000E+00 0. -1.
         23    2    1    2    0    0 -0.35705711867E+02 -0.11554181220E+03 -0.34848526671E+03  0.38959070675E+03  0.12535601081E+03 0.  0.
          5    1    3    3  502    0  0.16527544902E+02  0.10018884518E+02 -0.13497017858E+03  0.13641099403E+03  0.41800000000E+01 0.  1.
         -5    1    3    3    0  502 -0.52233256770E+02 -0.12556069671E+03 -0.21351508813E+03  0.25317971272E+03  0.41800000000E+01 0.  1.
        -11    1    1    2    0    0  0.97269497467E+01  0.47299743816E+02 -0.40198927233E+02  0.62831783893E+02  0.00000000000E+00 0.  1.
         11    1    1    2    0    0  0.25978762121E+02  0.68242068380E+02 -0.31423096339E+03  0.32260343199E+03  0.00000000000E+00 0. -1.
</event>
<event>
 7    1  0.9413875E-006  0.9176693E+02  0.7561462E-02  0.1298628E+00
          2   -1    0    0  501    0  0.00000000000E+00  0.00000000000E+00  0.17562558992E+02  0.17562558992E+02  0.00000000000E+00 0.  1.
         -2   -1    0    0    0  501 -0.00000000000E+00 -0.00000000000E+00 -0.92781844397E+03  0.92781844397E+03  0.00000000000E+00 0. -1.
         23    2    1    2    0    0  0.43662819986E+02 -0.43660121263E+02 -0.60627958515E+03  0.62212174425E+03  0.12509149156E+03 0.  0.
          5    1    3    3  502    0  0.64330204260E+02 -0.57377230582E+02 -0.57743789496E+03  0.58385145089E+03  0.41800000000E+01 0. -1.
         -5    1    3    3    0  502 -0.20667384275E+02  0.13717109319E+02 -0.28841690190E+02  0.38270293360E+02  0.41800000000E+01 0. -1.
        -11    1    1    2    0    0  0.52671272647E+01  0.13762502989E+02 -0.85361228491E+00  0.14760683320E+02  0.00000000000E+00 0.  1.
         11    1    1    2    0    0 -0.48929947250E+02  0.29897618273E+02 -0.30312268754E+03  0.30849857539E+03  0.00000000000E+00 0. -1.
</event>
<event>
 7    1  0.8653652E-006  0.3753592E+03  0.7561462E-02  0.1052662E+00
          2   -1    0    0  501    0  0.00000000000E+00  0.00000000000E+00  0.51069660221E+03  0.51069660221E+03  0.00000000000E+00 0.  1.
         -2   -1    0    0    0  501 -0.00000000000E+00 -0.00000000000E+00 -0.28317486574E+03  0.28317486574E+03  0.00000000000E+00 0. -1.
         23    2    1    2    0    0 -0.27008746340E+03 -0.24403887450E+03  0.13200609645E+03  0.40691110198E+03  0.12509526473E+03 0.  0.
          5    1    3    3  502    0 -0.18861623075E+03 -0.94227551803E+02  0.45875106828E+02  0.21581684793E+03  0.41800000000E+01 0. -1.
         -5    1    3    3    0  502 -0.81471232644E+02 -0.14981132270E+03  0.86130989619E+02  0.19109425405E+03  0.41800000000E+01 0. -1.
        -11    1    1    2    0    0  0.11084320124E+03  0.14192003530E+03  0.12915390966E+02  0.18053896811E+03  0.00000000000E+00 0.  1.
         11    1    1    2    0    0  0.15924426216E+03  0.10211883920E+03  0.82600249060E+02  0.20642139786E+03  0.00000000000E+00 0. -1.
</event>
<event>
 7    1  0.8653652E-006  0.7496724E+02  0.7561462E-02  0.1343973E+00
          4   -1    0    0  501    0  0.00000000000E+00  0.00000000000E+00  0.13295866488E+02  0.13295866488E+02  0.00000000000E+00 0. -1.
         -4   -1    0    0    0  501 -0.00000000000E+00 -0.00000000000E+00 -0.47876643055E+03  0.47876643055E+03  0.00000000000E+00 0.  1.
         23    2    1    2    0    0 -0.33471713588E+02  0.39023651009E+01 -0.36591443370E+03  0.38567901039E+03  0.11712959576E+03 0.  0.
          5    1    3    3  502    0 -0.71639225157E+02  0.19125715904E+02 -0.17090839232E+03  0.18634678037E+03  0.41800000000E+01 0. -1.
         -5    1    3    3    0  502  0.38167511569E+02 -0.15223350803E+02 -0.19500604138E+03  0.19933223002E+03  0.41800000000E+01 0.  1.
        -11    1    1    2    0    0  0.17209943673E+02 -0.53925163323E+01 -0.30594339269E+02  0.35514433529E+02  0.00000000000E+00 0.  1.
         11    1    1    2    0    0  0.16261769915E+02  0.14901512314E+01 -0.68961791094E+02  0.70868853119E+02  0.00000000000E+00 0. -1.
</event>
<event>
 7    1  0.8653652E-006  0.1347282E+03  0.7561462E-02  0.1220604E+00
         -1   -1    0    0    0  501 -0.00000000000E+00  0.00000000000E+00  0.79922022129E+02  0.79922022129E+02  0.00000000000E+00 0.  1.
          1   -1    0    0  501    0  0.00000000000E+00 -0.00000000000E+00 -0.35965680351E+03  0.35965680351E+03  0.00000000000E+00 0. -1.
         23    2    1    2    0    0 -0.57166337522E+02 -0.69886508123E+02 -0.27707122287E+02  0.15673974891E+03  0.12509016787E+03 0.  0.
          5    1    3    3  502    0  0.97591261145E+01  0.24210132878E+02  0.18533805132E+02  0.32285374539E+02  0.41800000000E+01 0.  1.
         -5    1    3    3    0  502 -0.66925463637E+02 -0.94096641001E+02 -0.46240927419E+02  0.12445437437E+03  0.41800000000E+01 0.  1.
        -11    1    1    2    0    0 -0.10102325166E+02  0.58358493618E+02 -0.10055562992E+03  0.11670135158E+03  0.00000000000E+00 0.  1.
         11    1    1    2    0    0  0.67268662688E+02  0.11528014506E+02 -0.15147202918E+03  0.16613772516E+03  0.00000000000E+00 0. -1.
</event>
<event>
 6    1  0.8653652E-006  0.1404357E+03  0.7561462E-02  0.1212744E+00
          1   -1    0    0  501    0  0.00000000000E+00  0.00000000000E+00  0.22971618416E+03  0.22971618416E+03  0.00000000000E+00 0. -1.
         -1   -1    0    0    0  501 -0.00000000000E+00 -0.00000000000E+00 -0.93064763509E+02  0.93064763509E+02  0.00000000000E+00 0.  1.
          5    1    1    2  502    0 -0.21181796307E+02 -0.11261665222E+03  0.46288418997E+02  0.12365787069E+03  0.41800000000E+01 0. -1.
         -5    1    1    2    0  502  0.35683593008E+02  0.60884910732E+02  0.32181936450E+02  0.77675225127E+02  0.41800000000E+01 0.  1.
        -11    1    1    2    0    0 -0.39143181723E+02  0.10531690550E+01  0.51508338733E+02  0.64702448172E+02  0.00000000000E+00 0. -1.
         11    1    1    2    0    0  0.24641385023E+02  0.50678572430E+02  0.66727264684E+01  0.56745403672E+02  0.00000000000E+00 0.  1.
</event>
<event>
 7    1  0.8653652E-006  0.9935057E+02  0.7561462E-02  0.1281668E+00
          1   -1    0    0  501    0  0.00000000000E+00  0.00000000000E+00  0.27046882845E+03  0.27046882845E+03  0.00000000000E+00 0. -1.
         -1   -1    0    0    0  501 -0.00000000000E+00 -0.00000000000E+00 -0.52206183654E+02  0.52206183654E+02  0.00000000000E+00 0.  1.
         23    2    1    2    0    0 -0.75495988927E+01  0.41999677962E+02  0.91230496572E+02  0.16059682878E+03  0.12508944207E+03 0.  0.
          5    1    3    3  502    0  0.32560781873E+02 -0.12082507348E+02  0.86105495724E+02  0.92939874617E+02  0.41800000000E+01 0. -1.
         -5    1    3    3    0  502 -0.40110380766E+02  0.54082185310E+02  0.51250008484E+01  0.67656954165E+02  0.41800000000E+01 0. -1.
        -11    1    1    2    0    0  0.44617078798E+02 -0.38666698957E+02  0.53547838037E+02  0.79706764375E+02  0.00000000000E+00 0.  1.
         11    1    1    2    0    0 -0.37067479906E+02 -0.33329790046E+01  0.73484310187E+02  0.82371418946E+02  0.00000000000E+00 0. -1.
</event>
<event>
 7    1  0.8653652E-006  0.6224832E+02  0.7561462E-02  0.1388632E+00
          2   -1    0    0  501    0  0.00000000000E+00  0.00000000000E+00  0.36844457835E+03  0.36844457835E+03  0.00000000000E+00 0. -1.
         -2   -1    0    0    0  501 -0.00000000000E+00 -0.00000000000E+00 -0.39003448702E+02  0.39003448702E+02  0.00000000000E+00 0.  1.
         23    2    1    2    0    0 -0.28498185633E+02  0.26486118676E+02  0.12511571121E+03  0.18114620642E+03  0.12508535423E+03 0.  0.
          5    1    3    3  502    0  0.67483284179E+01  0.35249351600E+02  0.13779280542E+03  0.14245134731E+03  0.41800000000E+01 0.  1.
         -5    1    3    3    0  502 -0.35246514051E+02 -0.87632329242E+01 -0.12677094209E+02  0.38694859111E+02  0.41800000000E+01 0.  1.
        -11    1    1    2    0    0  0.16488787073E+02  0.57042541814E+01 -0.16084176138E+01  0.17521575903E+02  0.00000000000E+00 0.  1.
         11    1    1    2    0    0  0.12009398561E+02 -0.32190372858E+02  0.20593383605E+03  0.20878024473E+03  0.00000000000E+00 0. -1.
</event>
<event>
 7    1  0.8653652E-006  0.3084885E+03  0.7561462E-02  0.1081073E+00
         -1   -1    0    0    0  501 -0.00000000000E+00  0.00000000000E+00  0.20585773934E+03  0.20585773934E+03  0.00000000000E+00 0.  1.
          1   -1    0    0  501    0  0.00000000000E+00 -0.00000000000E+00 -0.10137593841E+04  0.10137593841E+04  0.00000000000E+00 0. -1.
         23    2    1    2    0    0  0.29119333987E+03 -0.46853188094E+02  0.34723882697E+02  0.32224536439E+03  0.12509014517E+03 0.  0.
          5    1    3    3  502    0  0.17280900272E+03 -0.77419893708E+02  0.57212424495E+02  0.19785733567E+03  0.41800000000E+01 0.  1.
         -5    1    3    3    0  502  0.11838433715E+03  0.30566705614E+02 -0.22488541799E+02  0.12438802871E+03  0.41800000000E+01 0.  1.
        -11    1    1    2    0    0 -0.14764411665E+03  0.63504357668E+02 -0.37681822487E+03  0.40966274327E+03  0.00000000000E+00 0. -1.
         11    1    1    2    0    0 -0.14354922322E+03 -0.16651169574E+02 -0.46580730258E+03  0.48770901577E+03  0.00000000000E+00 0.  1.
</event>
<event>
 7    1  0.8653652E-006  0.1422593E+03  0.7561462E-02  0.1210321E+00
          1   -1    0    0  501    0  0.00000000000E+00  0.00000000000E+00  0.42862652746E+02  0.42862652746E+02  0.00000000000E+00 0. -1.
         -1   -1    0    0    0  501 -0.00000000000E+00 -0.00000000000E+00 -0.56480252587E+03  0.56480252587E+03  0.00000000000E+00 0.  1.
         23    2    1    2    0    0 -0.10376230629E+03 -0.40354977374E+02 -0.31059089077E+03  0.35302398661E+03  0.12555514042E+03 0.  0.
          5    1    3    3  502    0 -0.97598368893E+02  0.37979496699E+01 -0.10856220008E+03  0.14609274355E+03  0.41800000000E+01 0.  1.
         -5    1    3    3    0  502 -0.61639373957E+01 -0.44152927044E+02 -0.20202869069E+03  0.20693124306E+03  0.41800000000E+01 0.  1.
        -11    1    1    2    0    0  0.82921510909E+02 -0.13701114728E+02 -0.12164162877E+03  0.14785257308E+03  0.00000000000E+00 0.  1.
         11    1    1    2    0    0  0.20840795380E+02  0.54056092102E+02 -0.89707353578E+02  0.10678861892E+03  0.00000000000E+00 0. -1.
</event>
<event>
 7    1  0.8653652E-006  0.9809151E+02  0.7561462E-02  0.1284361E+00
         -1   -1    0    0    0  501 -0.00000000000E+00  0.00000000000E+00  0.31224572577E+02  0.31224572577E+02  0.00000000000E+00 0.  1.
          1   -1    0    0  501    0  0.00000000000E+00 -0.00000000000E+00 -0.43110706739E+03  0.43110706739E+03  0.00000000000E+00 0. -1.
         23    2    1    2    0    0 -0.99022526762E+01  0.20321117158E+01 -0.14087376841E+03  0.18874498118E+03  0.12520808763E+03 0.  0.
          5    1    3    3  502    0 -0.62043033650E+02 -0.13049564074E+02 -0.10755058602E+03  0.12491689277E+03  0.41800000000E+01 0. -1.
         -5    1    3    3    0  502  0.52140780974E+02  0.15081675790E+02 -0.33323182393E+02  0.63828088409E+02  0.41800000000E+01 0.  1.
        -11    1    1    2    0    0 -0.33284193844E+02 -0.89558615451E+01 -0.18008442750E+03  0.18335333661E+03  0.00000000000E+00 0. -1.
         11    1    1    2    0    0  0.43186446520E+02  0.69237498293E+01 -0.78924298899E+02  0.90233322179E+02  0.00000000000E+00 0.  1.
</event>
<event>
 7    1  0.8653652E-006  0.1517306E+03  0.7561462E-02  0.1198362E+00
         -2   -1    0    0    0  501 -0.00000000000E+00  0.00000000000E+00  0.72738521533E+02  0.72738521533E+02  0.00000000000E+00 0.  1.
          2   -1    0    0  501    0  0.00000000000E+00 -0.00000000000E+00 -0.40585973579E+03  0.40585973579E+03  0.00000000000E+00 0. -1.
         23    2    1    2    0    0 -0.81446028312E+02 -0.93611250168E+02 -0.15115282491E+03  0.23214754423E+03  0.12509510035E+03 0.  0.
          5    1    3    3  502    0 -0.14765030909E+02 -0.78754250156E+02 -0.17696504010E+02  0.82163718937E+02  0.41800000000E+01 0.  1.
         -5    1    3    3    0  502 -0.66680997403E+02 -0.14857000012E+02 -0.13345632090E+03  0.14998382530E+03  0.41800000000E+01 0.  1.
        -11    1    1    2    0    0  0.13413759818E+01  0.71730010244E+02 -0.13002295666E+03  0.14850240037E+03  0.00000000000E+00 0. -1.
         11    1    1    2    0    0  0.80104652330E+02  0.21881239924E+02 -0.51945432693E+02  0.97948312713E+02  0.00000000000E+00 0.  1.
</event>
<event>
 7    1  0.8653652E-006  0.1634660E+03  0.7561462E-02  0.1184838E+00
         -1   -1    0    0    0  501 -0.00000000000E+00  0.00000000000E+00  0.14941234632E+03  0.14941234632E+03  0.00000000000E+00 0.  1.
          1   -1    0    0  501    0  0.00000000000E+00 -0.00000000000E+00 -0.20855687327E+03  0.20855687327E+03  0.00000000000E+00 0. -1.
         23    2    1    2    0    0 -0.33623050759E+02  0.13135720197E+03 -0.62430693390E+02  0.19475472048E+03  0.12508631269E+03 0.  0.
          5    1    3    3  502    0  0.32984738580E+02  0.50658533937E+02  0.17436560608E+02  0.63053834821E+02  0.41800000000E+01 0. -1.
         -5    1    3    3    0  502 -0.66607789339E+02  0.80698668036E+02 -0.79867253997E+02  0.13170088566E+03  0.41800000000E+01 0. -1.
        -11    1    1    2    0    0  0.46862092692E+02 -0.22547161122E+02 -0.94798560649E+01  0.52861118765E+02  0.00000000000E+00 0.  1.
         11    1    1    2    0    0 -0.13239041933E+02 -0.10881004085E+03  0.12766022500E+02  0.11035338034E+03  0.00000000000E+00 0. -1.
</event>
<event>
 7    1  0.8653652E-006  0.1835764E+03  0.7561462E-02  0.1164386E+00
          1   -1    0    0  501    0  0.00000000000E+00  0.00000000000E+00  0.55902665365E+03  0.55902665365E+03  0.00000000000E+00 0. -1.
         -1   -1    0    0    0  501 -0.00000000000E+00 -0.00000000000E+00 -0.10325347024E+03  0.10325347024E+03  0.00000000000E+00 0.  1.
         23    2    1    2    0    0 -0.11490052742E+03 -0.10059440819E+03  0.28083744162E+02  0.19934118180E+03  0.12500737545E+03 0.  0.
          5    1    3    3  502    0 -0.28357731804E+02 -0.10593043789E+03  0.67342370428E+01  0.10994653689E+03  0.41800000000E+01 0.  1.
         -5    1    3    3    0  502 -0.86542795616E+02  0.53360297039E+01  0.21349507119E+02  0.89394644919E+02  0.41800000000E+01 0.  1.
        -11    1    1    2    0    0  0.24021764361E+02  0.71117823486E+02  0.25212365158E+03  0.26306106832E+03  0.00000000000E+00 0. -1.
         11    1    1    2    0    0  0.90878763059E+02  0.29476584700E+02  0.17556578767E+03  0.19987787376E+03  0.00000000000E+00 0.  1.
</event>
<event>
 7    1  0.8653652E-006  0.1156442E+03  0.7561462E-02  0.1250461E+00
         -1   -1    0    0    0  501 -0.00000000000E+00  0.00000000000E+00  0.24491793127E+02  0.24491793127E+02  0.00000000000E+00 0.  1.
          1   -1    0    0  501    0  0.00000000000E+00 -0.00000000000E+00 -0.77991868310E+03  0.77991868310E+03  0.00000000000E+00 0. -1.
         23    2    1    2    0    0  0.84049278738E+02  0.16558089638E+02 -0.41212337484E+03  0.43912743474E+03  0.12509506890E+03 0.  0.
          5    1    3    3  502    0 -0.13346515617E+02 -0.12377914476E+02 -0.22821129544E+03  0.22897425622E+03  0.41800000000E+01 0.  1.
         -5    1    3    3    0  502  0.97395794355E+02  0.28936004114E+02 -0.18391207940E+03  0.21015317852E+03  0.41800000000E+01 0.  1.
        -11    1    1    2    0    0 -0.22833074225E+02 -0.39437495557E+02 -0.23010668089E+03  0.23457568059E+03  0.00000000000E+00 0. -1.
         11    1    1    2    0    0 -0.61216204513E+02  0.22879405919E+02 -0.11319683425E+03  0.13070736090E+03  0.00000000000E+00 0.  1.
</event>
<event>
 7    1  0.8653652E-006  0.1107833E+03  0.7561462E-02  0.1259126E+00
         -1   -1    0    0    0  501 -0.00000000000E+00  0.00000000000E+00  0.44061373872E+03  0.44061373872E+03  0.00000000000E+00 0.  1.
          1   -1    0    0  501    0  0.00000000000E+00 -0.00000000000E+00 -0.50816579141E+02  0.50816579141E+02  0.00000000000E+00 0. -1.
         23    2    1    2    0    0  0.32248237032E+02 -0.50455759881E+02  0.34028877191E+03  0.36745248084E+03  0.12505656677E+03 0.  0.
          5    1    3    3  502    0 -0.42290085388E+02 -0.47068681986E+02  0.17195473604E+03  0.18327524599E+03  0.41800000000E+01 0.  1.
         -5    1    3    3    0  502  0.74538322420E+02 -0.33870778948E+01  0.16833403587E+03  0.18417723485E+03  0.41800000000E+01 0.  1.
        -11    1    1    2    0    0 -0.40018663358E+02  0.87078626147E+01  0.66614281234E+02  0.78197076369E+02  0.00000000000E+00 0.  1.
         11    1    1    2    0    0  0.77704263257E+01  0.41747897266E+02 -0.17105893561E+02  0.45780760653E+02  0.00000000000E+00 0. -1.
</event>
<event>
 7    1  0.8653652E-006  0.4953887E+03  0.7561462E-02  0.1014990E+00
          1   -1    0    0  501    0  0.00000000000E+00  0.00000000000E+00  0.55095530149E+03  0.55095530149E+03  0.00000000000E+00 0. -1.
         -1   -1    0    0    0  501 -0.00000000000E+00 -0.00000000000E+00 -0.56179674157E+03  0.56179674157E+03  0.00000000000E+00 0.  1.
         23    2    1    2    0    0  0.38842380293E+02 -0.49267822672E+03 -0.23636098651E+03  0.56192246819E+03  0.12509907565E+03 0.  0.
          5    1    3    3  502    0  0.14628169173E+02 -0.31914820244E+03 -0.85697907509E+02  0.33080381226E+03  0.41800000000E+01 0.  1.
         -5    1    3    3    0  502  0.24214211120E+02 -0.17353002428E+03 -0.15066307901E+03  0.23111865594E+03  0.41800000000E+01 0.  1.
        -11    1    1    2    0    0 -0.47934223760E+02  0.43175110976E+03  0.22502265769E+03  0.48922582420E+03  0.00000000000E+00 0.  1.
         11    1    1    2    0    0  0.90918434668E+01  0.60927116954E+02  0.49688874043E+00  0.61603750668E+02  0.00000000000E+00 0. -1.
</event>
<event>
 6    1  0.8653652E-006  0.1344818E+03  0.7561462E-02  0.1220953E+00
         -2   -1    0    0    0  501 -0.00000000000E+00  0.00000000000E+00  0.13260929555E+03  0.13260929555E+03  0.00000000000E+00 0.  1.
          2   -1    0    0  501    0  0.00000000000E+00 -0.00000000000E+00 -0.23727481392E+03  0.23727481392E+03  0.00000000000E+00 0. -1.
          5    1    1    2  502    0  0.50922060799E+02  0.10263370096E+02 -0.65113691653E+02  0.83400589221E+02  0.41800000000E+01 0. -1.
         -5    1    1    2    0  502 -0.74835803111E+02  0.81171466465E+02  0.55253994910E+02  0.12353008034E+03  0.41800000000E+01 0.  1.
        -11    1    1    2    0    0  0.30235672411E+02 -0.23913871504E+02  0.84061308038E+01  0.39455445398E+02  0.00000000000E+00 0. -1.
         11    1    1    2    0    0 -0.63219300996E+01 -0.67520965058E+02 -0.10321195243E+03  0.12349799451E+03  0.00000000000E+00 0.  1.
</event>
<event>
 7    1  0.8653652E-006  0.2212422E+03  0.7561462E-02  0.1132960E+00
          1   -1    0    0  501    0  0.00000000000E+00  0.00000000000E+00  0.67700516838E+03  0.67700516838E+03  0.00000000000E+00 0. -1.
         -1   -1    0    0    0  501 -0.00000000000E+00 -0.00000000000E+00 -0.12560515672E+03  0.12560515672E+03  0.00000000000E+00 0.  1.
         23    2    1    2    0    0  0.20312190099E+03 -0.49503917165E+02  0.44834450413E+02  0.24772596418E+03  0.12509548718E+03 0.  0.
          5    1    3    3  502    0  0.18426318589E+03 -0.65370946267E+02  0.74198111164E+02  0.20916288961E+03  0.41800000000E+01 0. -1.
         -5    1    3    3    0  502  0.18858715094E+02  0.15867029103E+02 -0.29363660751E+02  0.38563074569E+02  0.41800000000E+01 0. -1.
        -11    1    1    2    0    0 -0.26141698041E+02 -0.18824539477E+02  0.12039666498E+03  0.12463189239E+03  0.00000000000E+00 0. -1.
         11    1    1    2    0    0 -0.17698020295E+03  0.68328456641E+02  0.38616889628E+03  0.43025246853E+03  0.00000000000E+00 0.  1.
</event>
<event>
 7    1  0.8653652E-006  0.1472153E+03  0.7561462E-02  0.1203937E+00
          1   -1    0    0  501    0  0.00000000000E+00  0.00000000000E+00  0.10526212753E+03  0.10526212753E+03  0.00000000000E+00 0. -1.
         -1   -1    0    0    0  501 -0.00000000000E+00 -0.00000000000E+00 -0.27899217461E+03  0.27899217461E+03  0.00000000000E+00 0.  1.
         23    2    1    2    0    0  0.11608318780E+03 -0.34114318139E+02 -0.15140038907E+03  0.23067041297E+03  0.12509064081E+03 0.  0.
          5    1    3    3  502    0 -0.11688351279E+01 -0.53253736232E+02 -0.62515814011E+02  0.82237619127E+02  0.41800000000E+01 0. -1.
         -5    1    3    3    0  502  0.11725202293E+03  0.19139418093E+02 -0.88884575060E+02  0.14843279385E+03  0.41800000000E+01 0. -1.
        -11    1    1    2    0    0 -0.17743228831E+02  0.11722331953E+02  0.32459881454E+02  0.38805658605E+02  0.00000000000E+00 0. -1.
         11    1    1    2    0    0 -0.98339958969E+02  0.22391986186E+02 -0.54789539462E+02  0.11477823056E+03  0.00000000000E+00 0.  1.
</event>
<event>
 7    1  0.8653652E-006  0.8410938E+02  0.7561462E-02  0.1317778E+00
         -2   -1    0    0    0  501 -0.00000000000E+00  0.00000000000E+00  0.27801537319E+03  0.27801537319E+03  0.00000000000E+00 0.  1.
          2   -1    0    0  501    0  0.00000000000E+00 -0.00000000000E+00 -0.49863570400E+02  0.49863570400E+02  0.00000000000E+00 0. -1.
         23    2    1    2    0    0  0.39802075129E+01 -0.58364975729E+02  0.16035196989E+03  0.20453344351E+03  0.11268923118E+03 0.  0.
          5    1    3    3  502    0  0.37366895928E+02 -0.41919932079E+02  0.20779196485E+02  0.60023437283E+02  0.41800000000E+01 0. -1.
         -5    1    3    3    0  502 -0.33386688415E+02 -0.16445043650E+02  0.13957277341E+03  0.14451000623E+03  0.41800000000E+01 0.  1.
        -11    1    1    2    0    0  0.99957635565E+01 -0.38340425148E+01  0.57839812289E+02  0.58822266675E+02  0.00000000000E+00 0. -1.
         11    1    1    2    0    0 -0.13975971069E+02  0.62199018244E+02  0.99600206058E+01  0.64523233399E+02  0.00000000000E+00 0.  1.
</event>
<event>
 7    1  0.8653652E-006  0.1798701E+03  0.7561462E-02  0.1167929E+00
          1   -1    0    0  501    0  0.00000000000E+00  0.00000000000E+00  0.36619982326E+03  0.36619982326E+03  0.00000000000E+00 0. -1.
         -1   -1    0    0    0  501 -0.00000000000E+00 -0.00000000000E+00 -0.11188887234E+03  0.11188887234E+03  0.00000000000E+00 0.  1.
         23    2    1    2    0    0 -0.16183683478E+03 -0.51652933304E+02  0.14842331857E+03  0.25794414659E+03  0.12508602901E+03 0.  0.
          5    1    3    3  502    0 -0.33659191415E+02 -0.30902328461E+02  0.11497647033E+03  0.12379400713E+03  0.41800000000E+01 0.  1.
         -5    1    3    3    0  502 -0.12817764336E+03 -0.20750604843E+02  0.33446848235E+02  0.13415013946E+03  0.41800000000E+01 0.  1.
        -11    1    1    2    0    0  0.14754501741E+03  0.67801310825E+02  0.66958404960E+02  0.17564161781E+03  0.00000000000E+00 0.  1.
         11    1    1    2    0    0  0.14291817373E+02 -0.16148377522E+02  0.38929227395E+02  0.44502931207E+02  0.00000000000E+00 0. -1.
</event>
<event>
 7    1  0.8653652E-006  0.7756439E+02  0.7561462E-02  0.1336109E+00
          1   -1    0    0  501    0  0.00000000000E+00  0.00000000000E+00  0.25848743425E+03  0.25848743425E+03  0.00000000000E+00 0. -1.
         -1   -1    0    0    0  501 -0.00000000000E+00 -0.00000000000E+00 -0.12344062453E+03  0.12344062453E+03  0.00000000000E+00 0.  1.
         23    2    1    2    0    0 -0.37357515900E+01  0.43937040433E+01 -0.85096666870E+02  0.14171691655E+03  0.11317676992E+03 0.  0.
          5    1    3    3  502    0 -0.28947455528E+01 -0.38600651594E+02 -0.90168318907E+02  0.98215008985E+02  0.41800000000E+01 0. -1.
         -5    1    3    3    0  502 -0.84100603724E+00  0.42994355637E+02  0.50716520378E+01  0.43501907569E+02  0.41800000000E+01 0.  1.
        -11    1    1    2    0    0 -0.30013715696E+02 -0.19730992291E+02  0.30930198486E+02  0.47400552371E+02  0.00000000000E+00 0.  1.
         11    1    1    2    0    0  0.33749467286E+02  0.15337288248E+02  0.18921327810E+03  0.19281058986E+03  0.00000000000E+00 0. -1.
</event>
<event>
 7    1  0.8653652E-006  0.1066166E+03  0.7561462E-02  0.1266967E+00
          1   -1    0    0  501    0  0.00000000000E+00  0.00000000000E+00  0.69268613409E+03  0.69268613409E+03  0.00000000000E+00 0. -1.
         -1   -1    0    0    0  501 -0.00000000000E+00 -0.00000000000E+00 -0.19486142519E+02  0.19486142519E+02  0.00000000000E+00 0.  1.
         23    2    1    2    0    0  0.11040904354E+02 -0.47736611226E+02  0.34908111669E+03  0.37404012942E+03  0.12509079409E+03 0.  0.
          5    1    3    3  502    0 -0.11767049835E+02 -0.77956831255E+02  0.13332688552E+03  0.15494922331E+03  0.41800000000E+01 0. -1.
         -5    1    3    3    0  502  0.22807954189E+02  0.30220220029E+02  0.21575423117E+03  0.21909090611E+03  0.41800000000E+01 0. -1.
        -11    1    1    2    0    0  0.95917930775E+01 -0.21715400852E+02  0.88175659901E+02  0.91315432034E+02  0.00000000000E+00 0. -1.
         11    1    1    2    0    0 -0.20632697431E+02  0.69452012078E+02  0.23594321498E+03  0.24681671515E+03  0.00000000000E+00 0.  1.
</event>
<event>
 7    1  0.8653652E-006  0.1415310E+03  0.7561462E-02  0.1211284E+00
          2   -1    0    0  501    0  0.00000000000E+00  0.00000000000E+00  0.61110696611E+02  0.61110696611E+02  0.00000000000E+00 0. -1.
         -2   -1    0    0    0  501 -0.00000000000E+00 -0.00000000000E+00 -0.45110374166E+03  0.45110374166E+03  0.00000000000E+00 0.  1.
         23    2    1    2    0    0 -0.69453805031E+02  0.69580641333E+02 -0.32489727677E+03  0.36176098463E+03  0.12508985917E+03 0.  0.
          5    1    3    3  502    0 -0.99390373814E+02  0.59555088861E+02 -0.18535042068E+03  0.21862640706E+03  0.41800000000E+01 0. -1.
         -5    1    3    3    0  502  0.29936568783E+02  0.10025552472E+02 -0.13954685609E+03  0.14313457758E+03  0.41800000000E+01 0. -1.
        -11    1    1    2    0    0  0.84744074662E+02 -0.25320209756E+02 -0.37228708599E+02  0.95961700466E+02  0.00000000000E+00 0.  1.
         11    1    1    2    0    0 -0.15290269631E+02 -0.44260431578E+02 -0.27867059682E+02  0.54491753175E+02  0.00000000000E+00 0. -1.
</event>
<event>
 7    1  0.8653652E-006  0.1172975E+03  0.7561462E-02  0.1247623E+00
         -2   -1    0    0    0  501 -0.00000000000E+00  0.00000000000E+00  0.18792922107E+02  0.18792922107E+02  0.00000000000E+00 0. -1.
          2   -1    0    0  501    0  0.00000000000E+00 -0.00000000000E+00 -0.10555369875E+04  0.10555369875E+04  0.00000000000E+00 0.  1.
         23    2    1    2    0    0  0.53562325208E+02 -0.69970121087E+02 -0.57935520213E+03  0.59921885425E+03  0.12508414981E+03 0.  0.
          5    1    3    3  502    0  0.34456530431E+02 -0.77745940421E+02 -0.17802770707E+03  0.19733986071E+03  0.41800000000E+01 0.  1.
         -5    1    3    3    0  502  0.19105794777E+02  0.77758193333E+01 -0.40132749505E+03  0.40187899354E+03  0.41800000000E+01 0.  1.
        -11    1    1    2    0    0  0.20449563566E+02  0.46441491173E+02 -0.16975671511E+03  0.17717883360E+03  0.00000000000E+00 0.  1.
         11    1    1    2    0    0 -0.74011888774E+02  0.23528629915E+02 -0.28763214820E+03  0.29793222179E+03  0.00000000000E+00 0. -1.
</event>
<event>
 7    1  0.8653652E-006  0.1977776E+03  0.7561462E-02  0.1151628E+00
         -2   -1    0    0    0  501 -0.00000000000E+00  0.00000000000E+00  0.16729312544E+02  0.16729312544E+02  0.00000000000E+00 0.  1.
          2   -1    0    0  501    0  0.00000000000E+00 -0.00000000000E+00 -0.24205438626E+04  0.24205438626E+04  0.00000000000E+00 0. -1.
         23    2    1    2    0    0  0.14030603736E+03  0.91021131860E+02 -0.14251232540E+04  0.14403445952E+04  0.12508250621E+03 0.  0.
          5    1    3    3  502    0  0.25664545057E+02 -0.29586694206E+02 -0.18868565660E+03  0.19275318610E+03  0.41800000000E+01 0. -1.
         -5    1    3    3    0  502  0.11464149231E+03  0.12060782607E+03 -0.12364375974E+04  0.12475914091E+04  0.41800000000E+01 0. -1.
        -11    1    1    2    0    0 -0.11305479751E+03 -0.21552309400E+02 -0.60958425419E+03  0.62035381214E+03  0.00000000000E+00 0.  1.
         11    1    1    2    0    0 -0.27251239850E+02 -0.69468822460E+02 -0.36910704191E+03  0.37657476782E+03  0.00000000000E+00 0. -1.
</event>
<event>
 7    1  0.8653652E-006  0.1017846E+03  0.7561462E-02  0.1276587E+00
          3   -1    0    0  501    0  0.00000000000E+00  0.00000000000E+00  0.92564868320E+02  0.92564868320E+02  0.00000000000E+00 0. -1.
         -3   -1    0    0    0  501 -0.00000000000E+00 -0.00000000000E+00 -0.19947231379E+03  0.19947231379E+03  0.00000000000E+00 0.  1.
         23    2    1    2    0    0  0.16834136844E+02 -0.76733487570E+02 -0.82309356053E+02  0.16909520961E+03  0.12508774337E+03 0.  0.
          5    1    3    3  502    0  0.27001549732E+02  0.15976160775E+02 -0.67522030033E+02  0.74572235724E+02  0.41800000000E+01 0. -1.
         -5    1    3    3    0  502 -0.10167412887E+02 -0.92709648345E+02 -0.14787326020E+02  0.94522973884E+02  0.41800000000E+01 0. -1.
        -11    1    1    2    0    0 -0.12375978926E+02  0.57050624279E+02 -0.59036690979E+02  0.83025715696E+02  0.00000000000E+00 0.  1.
         11    1    1    2    0    0 -0.44581579180E+01  0.19682863291E+02  0.34438601565E+02  0.39916256802E+02  0.00000000000E+00 0. -1.
</event>
<event>
 6    1  0.8653652E-006  0.1642262E+03  0.7561462E-02  0.1184006E+00
          4   -1    0    0  501    0  0.00000000000E+00  0.00000000000E+00  0.24438190029E+03  0.24438190029E+03  0.00000000000E+00 0. -1.
         -4   -1    0    0    0  501 -0.00000000000E+00 -0.00000000000E+00 -0.13408290955E+03  0.13408290955E+03  0.00000000000E+00 0.  1.
          5    1    1    2  502    0 -0.81419519449E+02  0.55222741294E+02  0.62977305612E+02  0.11688585340E+03  0.41800000000E+01 0. -1.
         -5    1    1    2    0  502  0.99154669729E+02 -0.94577569336E+02 -0.23200069120E+02  0.13904057234E+03  0.41800000000E+01 0.  1.
        -11    1    1    2    0    0  0.31413146394E+02  0.26003754965E+01  0.47467004698E+02  0.56979507317E+02  0.00000000000E+00 0.  1.
         11    1    1    2    0    0 -0.49148296674E+02  0.36754452545E+02  0.23054749545E+02  0.65558876778E+02  0.00000000000E+00 0. -1.
</event>
<event>
 7    1  0.8653652E-006  0.1355597E+03  0.7561462E-02  0.1219432E+00
         -1   -1    0    0    0  501 -0.00000000000E+00  0.00000000000E+00  0.97136189614E+02  0.97136189614E+02  0.00000000000E+00 0.  1.
          1   -1    0    0  501    0  0.00000000000E+00 -0.00000000000E+00 -0.36860091764E+03  0.36860091764E+03  0.00000000000E+00 0. -1.
         23    2    1    2    0    0  0.91768359145E+02  0.66495181525E+02 -0.13666271330E+02  0.16934419994E+03  0.12509056789E+03 0.  0.
          5    1    3    3  502    0  0.79537537781E+02  0.76973347345E+02 -0.55813683284E+02  0.12403126928E+03  0.41800000000E+01 0. -1.
         -5    1    3    3    0  502  0.12230821364E+02 -0.10478165820E+02  0.42147411955E+02  0.45312930657E+02  0.41800000000E+01 0. -1.
        -11    1    1    2    0    0 -0.24178742784E+01 -0.53349600146E+02 -0.12350161267E+03  0.13455361118E+03  0.00000000000E+00 0. -1.
         11    1    1    2    0    0 -0.89350484867E+02 -0.13145581379E+02 -0.13429684403E+03  0.16183929613E+03  0.00000000000E+00 0.  1.
</event>
<event>
 7    1  0.8653652E-006  0.1407270E+03  0.7561462E-02  0.1212354E+00
          1   -1    0    0  501    0  0.00000000000E+00  0.00000000000E+00  0.34641090192E+02  0.34641090192E+02  0.00000000000E+00 0. -1.
         -1   -1    0    0    0  501 -0.00000000000E+00 -0.00000000000E+00 -0.93244024617E+03  0.93244024617E+03  0.00000000000E+00 0.  1.
         23    2    1    2    0    0 -0.96203498266E+02 -0.92969028933E+02 -0.59447898113E+03  0.62205430862E+03  0.12509176813E+03 0.  0.
          5    1    3    3  502    0 -0.51712353856E+02 -0.11754059690E+02 -0.62562531859E+02  0.82121058524E+02  0.41800000000E+01 0. -1.
         -5    1    3    3    0  502 -0.44491144410E+02 -0.81214969243E+02 -0.53191644927E+03  0.53993325010E+03  0.41800000000E+01 0. -1.
        -11    1    1    2    0    0  0.51380309009E+02  0.34503753397E+02 -0.45305436278E+02  0.76700897704E+02  0.00000000000E+00 0. -1.
         11    1    1    2    0    0  0.44823189257E+02  0.58465275536E+02 -0.25801473857E+03  0.26832613003E+03  0.00000000000E+00 0.  1.
</event>
<event>
 7    1  0.8653652E-006  0.1458042E+03  0.7561462E-02  0.1205726E+00
         -2   -1    0    0    0  501 -0.00000000000E+00  0.00000000000E+00  0.39025155207E+03  0.39025155207E+03  0.00000000000E+00 0.  1.
          2   -1    0    0  501    0  0.00000000000E+00 -0.00000000000E+00 -0.62408724144E+02  0.62408724144E+02  0.00000000000E+00 0. -1.
         23    2    1    2    0    0 -0.35349209791E+02  0.12078826721E+03  0.15543791654E+03  0.23590042445E+03  0.12509473302E+03 0.  0.
          5    1    3    3  502    0  0.24788919698E+02 -0.51713238985E+00 -0.52996598942E+01  0.25696629365E+02  0.41800000000E+01 0. -1.
         -5    1    3    3    0  502 -0.60138129489E+02  0.12130539960E+03  0.16073757643E+03  0.21020379508E+03  0.41800000000E+01 0. -1.
        -11    1    1    2    0    0  0.32580306585E+02 -0.47128248447E+02  0.67320649386E+02  0.88400328125E+02  0.00000000000E+00 0. -1.
         11    1    1    2    0    0  0.27689032060E+01 -0.73660018761E+02  0.10508426200E+03  0.12835952364E+03  0.00000000000E+00 0.  1.
</event>
<event>
 7    1  0.8653652E-006  0.1030136E+03  0.7561462E-02  0.1274083E+00
          1   -1    0    0  501    0  0.00000000000E+00  0.00000000000E+00  0.28663162706E+03  0.28663162706E+03  0.00000000000E+00 0. -1.
         -1   -1    0    0    0  501 -0.00000000000E+00 -0.00000000000E+00 -0.46490416717E+02  0.46490416717E+02  0.00000000000E+00 0.  1.
         23    2    1    2    0    0 -0.23115474162E+02 -0.62613767032E+01  0.89079151867E+02  0.15542352340E+03  0.12509135200E+03 0.  0.
          5    1    3    3  502    0 -0.21327244257E+02  0.57930250722E+02  0.33316984687E+02  0.70272748381E+02  0.41800000000E+01 0. -1.
         -5    1    3    3    0  502 -0.17882299052E+01 -0.64191627425E+02  0.55762167180E+02  0.85150775019E+02  0.41800000000E+01 0. -1.
        -11    1    1    2    0    0 -0.25427235368E+02  0.16339000328E+02  0.16809441098E+02  0.34584166033E+02  0.00000000000E+00 0.  1.
         11    1    1    2    0    0  0.48542709530E+02 -0.10077623625E+02  0.13425261738E+03  0.14311435435E+03  0.00000000000E+00 0. -1.
</event>
<event>
 7    1  0.8653652E-006  0.9657614E+02  0.7561462E-02  0.1287665E+00
          4   -1    0    0  501    0  0.00000000000E+00  0.00000000000E+00  0.97722900097E+02  0.97722900097E+02  0.00000000000E+00 0. -1.
         -4   -1    0    0    0  501 -0.00000000000E+00 -0.00000000000E+00 -0.19392882708E+03  0.19392882708E+03  0.00000000000E+00 0.  1.
         23    2    1    2    0    0 -0.31868744325E+02  0.19782038805E+01 -0.13293718674E+03  0.18516894559E+03  0.12488279560E+03 0.  0.
          5    1    3    3  502    0 -0.33205258053E+02  0.49467505456E+02 -0.12259405321E+03  0.13636860907E+03  0.41800000000E+01 0. -1.
         -5    1    3    3    0  502  0.13365137278E+01 -0.47489301576E+02 -0.10343133536E+02  0.48800336520E+02  0.41800000000E+01 0. -1.
        -11    1    1    2    0    0 -0.24849868338E+02  0.11585069008E+02  0.39518711430E+02  0.48098423399E+02  0.00000000000E+00 0. -1.
         11    1    1    2    0    0  0.56718612663E+02 -0.13563272889E+02 -0.27874516679E+01  0.58384358185E+02  0.00000000000E+00 0.  1.
</event>
<event>
 7    1  0.8653652E-006  0.9974518E+02  0.7561462E-02  0.1280833E+00
         -1   -1    0    0    0  501 -0.00000000000E+00  0.00000000000E+00  0.35305367506E+02  0.35305367506E+02  0.00000000000E+00 0.  1.
          1   -1    0    0  501    0  0.00000000000E+00 -0.00000000000E+00 -0.42730423844E+03  0.42730423844E+03  0.00000000000E+00 0. -1.
         23    2    1    2    0    0 -0.42141357858E+02 -0.12568460858E+02 -0.15186856586E+03  0.20160278148E+03  0.12508301225E+03 0.  0.
          5    1    3    3  502    0 -0.64715402418E+02 -0.51116903486E+02 -0.12335598310E+03  0.14844255488E+03  0.41800000000E+01 0.  1.
         -5    1    3    3    0  502  0.22574044560E+02  0.38548442628E+02 -0.28512582757E+02  0.53160226601E+02  0.41800000000E+01 0.  1.
        -11    1    1    2    0    0  0.23301741057E+02  0.35442072554E+02 -0.22253954471E+03  0.22654571416E+03  0.00000000000E+00 0. -1.
         11    1    1    2    0    0  0.18839616801E+02 -0.22873611696E+02 -0.17590760363E+02  0.34461110304E+02  0.00000000000E+00 0.  1.
</event>
<event>
 7    1  0.8653652E-006  0.6189762E+02  0.7561462E-02  0.1390037E+00
         -1   -1    0    0    0  501 -0.00000000000E+00  0.00000000000E+00  0.76594846485E+02  0.76594846485E+02  0.00000000000E+00 0.  1.
          1   -1    0    0  501    0  0.00000000000E+00 -0.00000000000E+00 -0.19246298059E+03  0.19246298059E+03  0.00000000000E+00 0. -1.
         23    2    1    2    0    0 -0.10921516326E+01 -0.24898669820E+01 -0.98970097986E+00  0.12512147732E+03  0.12508801840E+03 0.  0.
          5    1    3    3  502    0 -0.92976620556E+01 -0.33551465542E+02  0.52174590542E+02  0.62863404759E+02  0.41800000000E+01 0. -1.
         -5    1    3    3    0  502  0.82055104230E+01  0.31061598560E+02 -0.53164291522E+02  0.62258072564E+02  0.41800000000E+01 0. -1.
        -11    1    1    2    0    0 -0.14189888259E+02  0.25222184521E+02 -0.11281433707E+03  0.11646710337E+03  0.00000000000E+00 0. -1.
         11    1    1    2    0    0  0.15282039892E+02 -0.22732317539E+02 -0.20640960593E+01  0.27469246377E+02  0.00000000000E+00 0.  1.
</event>
<event>
 7    1  0.8653652E-006  0.1011882E+03  0.7561462E-02  0.1277817E+00
          1   -1    0    0  501    0  0.00000000000E+00  0.00000000000E+00  0.47481090458E+03  0.47481090458E+03  0.00000000000E+00 0. -1.
         -1   -1    0    0    0  501 -0.00000000000E+00 -0.00000000000E+00 -0.28152115163E+02  0.28152115163E+02  0.00000000000E+00 0.  1.
         23    2    1    2    0    0 -0.22822716839E+02  0.82866229675E+01  0.17225986881E+03  0.21427179069E+03  0.12509753537E+03 0.  0.
          5    1    3    3  502    0  0.16497305030E+02  0.57147283627E+02  0.11358833398E+03  0.12828778241E+03  0.41800000000E+01 0.  1.
         -5    1    3    3    0  502 -0.39320021869E+02 -0.48860660659E+02  0.58671534834E+02  0.85984008278E+02  0.41800000000E+01 0.  1.
        -11    1    1    2    0    0  0.31516430080E+02  0.28257046990E+02  0.78126650138E+02  0.88856735993E+02  0.00000000000E+00 0. -1.
         11    1    1    2    0    0 -0.86937132413E+01 -0.36543669958E+02  0.19627227047E+03  0.19983449306E+03  0.00000000000E+00 0.  1.
</event>
<event>
 7    1  0.8653652E-006  0.2277002E+03  0.7561462E-02  0.1128269E+00
         -2   -1    0    0    0  501 -0.00000000000E+00  0.00000000000E+00  0.16184620123E+04  0.16184620123E+04  0.00000000000E+00 0.  1.
          2   -1    0    0  501    0  0.00000000000E+00 -0.00000000000E+00 -0.35497834486E+02  0.35497834486E+02  0.00000000000E+00 0. -1.
         23    2    1    2    0    0  0.17462058220E+03  0.11950619458E+03  0.70572888174E+03  0.74731155647E+03  0.12508888697E+03 0.  0.
          5    1    3    3  502    0  0.90792602686E+02  0.11092710436E+03  0.56775655478E+03  0.58558782184E+03  0.41800000000E+01 0.  1.
         -5    1    3    3    0  502  0.83827979513E+02  0.85790902111E+01  0.13797232696E+03  0.16172373463E+03  0.41800000000E+01 0.  1.
        -11    1    1    2    0    0 -0.99435213387E+02 -0.17595417516E+02  0.33938518471E+03  0.35408934463E+03  0.00000000000E+00 0.  1.
         11    1    1    2    0    0 -0.75185368812E+02 -0.10191077706E+03  0.53785011137E+03  0.55255894570E+03  0.00000000000E+00 0. -1.
</event>
<event>
 7    1  0.8653652E-006  0.9939912E+02  0.7561462E-02  0.1281565E+00
          2   -1    0    0  501    0  0.00000000000E+00  0.00000000000E+00  0.62160091348E+02  0.62160091348E+02  0.00000000000E+00 0. -1.
         -2   -1    0    0    0  501 -0.00000000000E+00 -0.00000000000E+00 -0.32483444560E+03  0.32483444560E+03  0.00000000000E+00 0.  1.
         23    2    1    2    0    0 -0.11349675252E+01  0.84014226405E+02 -0.19073560529E+03  0.24307553212E+03  0.12508383108E+03 0.  0.
          5    1    3    3  502    0  0.35325726162E+02  0.29918014375E+02 -0.16729134712E+03  0.17362851648E+03  0.41800000000E+01 0.  1.
         -5    1    3    3    0  502 -0.36460693687E+02  0.54096212030E+02 -0.23444258173E+02  0.69447015641E+02  0.41800000000E+01 0.  1.
        -11    1    1    2    0    0  0.11315103316E+02 -0.56220256965E+02 -0.91823462414E+02  0.10826032101E+03  0.00000000000E+00 0.  1.
         11    1    1    2    0    0 -0.10180135791E+02 -0.27793969440E+02  0.19884713458E+02  0.35658683813E+02  0.00000000000E+00 0. -1.
</event>
<event>
 7    1  0.8653652E-006  0.5696567E+02  0.7561462E-02  0.1411025E+00
          1   -1    0    0  501    0  0.00000000000E+00  0.00000000000E+00  0.37042198428E+02  0.37042198428E+02  0.00000000000E+00 0. -1.
         -1   -1    0    0    0  501 -0.00000000000E+00 -0.00000000000E+00 -0.44705700640E+03  0.44705700640E+03  0.00000000000E+00 0.  1.
         23    2    1    2    0    0 -0.24058231335E+02  0.32154278655E+02 -0.34186016076E+03  0.36623503319E+03  0.12508810451E+03 0.  0.
          5    1    3    3  502    0  0.11062958832E+02  0.14870902173E+02 -0.32122885626E+03  0.32179027842E+03  0.41800000000E+01 0.  1.
         -5    1    3    3    0  502 -0.35121190168E+02  0.17283376482E+02 -0.20631304498E+02  0.44444754771E+02  0.41800000000E+01 0.  1.
        -11    1    1    2    0    0 -0.82886861758E+01 -0.18844776856E+02 -0.78686386753E+02  0.81334958004E+02  0.00000000000E+00 0.  1.
         11    1    1    2    0    0  0.32346917511E+02 -0.13309501798E+02  0.10531739544E+02  0.36529213630E+02  0.00000000000E+00 0. -1.
</event>
<event>
 7    1  0.8653652E-006  0.2680270E+03  0.7561462E-02  0.1102414E+00
          1   -1    0    0  501    0  0.00000000000E+00  0.00000000000E+00  0.17539933494E+04  0.17539933494E+04  0.00000000000E+00 0. -1.
         -1   -1    0    0    0  501 -0.00000000000E+00 -0.00000000000E+00 -0.55801007180E+02  0.55801007180E+02  0.00000000000E+00 0.  1.
         23    2    1    2    0    0  0.12095086937E+03  0.22542881506E+03  0.45131074880E+03  0.53364877550E+03  0.12510939275E+03 0.  0.
          5    1    3    3  502    0  0.64250139484E+02  0.48712522434E+02  0.23564048581E+03  0.24908813946E+03  0.41800000000E+01 0. -1.
         -5    1    3    3    0  502  0.56700729890E+02  0.17671629263E+03  0.21567026299E+03  0.28456063605E+03  0.41800000000E+01 0. -1.
        -11    1    1    2    0    0 -0.72170346929E+01 -0.10040600096E+03  0.54339846173E+03  0.55264395304E+03  0.00000000000E+00 0. -1.
         11    1    1    2    0    0 -0.11373383468E+03 -0.12502281410E+03  0.70348313169E+03  0.72350162804E+03  0.00000000000E+00 0.  1.
</event>
<event>
 7    1  0.8653652E-006  0.7645953E+02  0.7561462E-02  0.1339410E+00
         -2   -1    0    0    0  501 -0.00000000000E+00  0.00000000000E+00  0.20154086439E+03  0.20154086439E+03  0.00000000000E+00 0.  1.
          2   -1    0    0  501    0  0.00000000000E+00 -0.00000000000E+00 -0.88035125268E+02  0.88035125268E+02  0.00000000000E+00 0. -1.
         23    2    1    2    0    0  0.29658884313E+02 -0.21332183278E+02  0.13647571637E+03  0.18870234352E+03  0.12509293277E+03 0.  0.
          5    1    3    3  502    0  0.11242312362E+02  0.14291549633E+02  0.14606992809E+03  0.14725669516E+03  0.41800000000E+01 0. -1.
         -5    1    3    3    0  502  0.18416571951E+02 -0.35623732911E+02 -0.95942117244E+01  0.41445648355E+02  0.41800000000E+01 0. -1.
        -11    1    1    2    0    0 -0.34954148151E+02 -0.27715507918E+02 -0.25669517486E+02  0.51467134951E+02  0.00000000000E+00 0. -1.
         11    1    1    2    0    0  0.52952638388E+01  0.49047691196E+02  0.26995402468E+01  0.49406511193E+02  0.00000000000E+00 0.  1.
</event>
<event>
 7    1  0.8653652E-006  0.8979463E+02  0.7561462E-02  0.1303350E+00
          2   -1    0    0  501    0  0.00000000000E+00  0.00000000000E+00  0.12625797728E+03  0.12625797728E+03  0.00000000000E+00 0. -1.
         -2   -1    0    0    0  501 -0.00000000000E+00 -0.00000000000E+00 -0.10498708014E+03  0.10498708014E+03  0.00000000000E+00 0.  1.
         23    2    1    2    0    0  0.26222326896E+02  0.26631487831E+02  0.36195973470E+01  0.13060391045E+03  0.12508970129E+03 0.  0.
          5    1    3    3  502    0  0.32265328326E+01 -0.24712559912E+02  0.51010162649E+02  0.56926533576E+02  0.41800000000E+01 0. -1.
         -5    1    3    3    0  502  0.22995794063E+02  0.51344047743E+02 -0.47390565302E+02  0.73677376873E+02  0.41800000000E+01 0. -1.
        -11    1    1    2    0    0  0.28047536307E+02  0.12792575553E+02  0.12828439582E+02  0.33389865892E+02  0.00000000000E+00 0.  1.
         11    1    1    2    0    0 -0.54269863203E+02 -0.39424063384E+02  0.48228602117E+01  0.67251281076E+02  0.00000000000E+00 0. -1.
</event>
<event>
 7    1  0.8653652E-006  0.1235602E+03  0.7561462E-02  0.1237337E+00
         -1   -1    0    0    0  501 -0.00000000000E+00  0.00000000000E+00  0.52881917543E+02  0.52881917543E+02  0.00000000000E+00 0.  1.
          1   -1    0    0  501    0  0.00000000000E+00 -0.00000000000E+00 -0.32107774774E+03  0.32107774774E+03  0.00000000000E+00 0. -1.
         23    2    1    2    0    0  0.48341445982E+01 -0.70408148692E+02 -0.13965697536E+03  0.20032931868E+03  0.12508832399E+03 0.  0.
          5    1    3    3  502    0  0.32471719567E+02  0.26898956625E+02 -0.40192150783E+02  0.58402464192E+02  0.41800000000E+01 0. -1.
         -5    1    3    3    0  502 -0.27637574969E+02 -0.97307105317E+02 -0.99464824578E+02  0.14192685448E+03  0.41800000000E+01 0. -1.
        -11    1    1    2    0    0  0.34001256207E+02  0.18594786307E+02 -0.90701717046E+02  0.98633934204E+02  0.00000000000E+00 0.  1.
         11    1    1    2    0    0 -0.38835400805E+02  0.51813362385E+02 -0.37837137790E+02  0.74996412404E+02  0.00000000000E+00 0. -1.
</event>
<event>
 7    1  0.8653652E-006  0.3067994E+03  0.7561462E-02  0.1081890E+00
         -1   -1    0    0    0  501 -0.00000000000E+00  0.00000000000E+00  0.28136895051E+03  0.28136895051E+03  0.00000000000E+00 0.  1.
          1   -1    0    0  501    0  0.00000000000E+00 -0.00000000000E+00 -0.49000434185E+03  0.49000434185E+03  0.00000000000E+00 0. -1.
         23    2    1    2    0    0  0.21157158843E+03 -0.19865410154E+03  0.10604317320E+03  0.33334375852E+03  0.12508763997E+03 0.  0.
          5    1    3    3  502    0  0.87056647839E+02 -0.16176086312E+03  0.42004144415E+02  0.18848675635E+03  0.41800000000E+01 0. -1.
         -5    1    3    3    0  502  0.12451494059E+03 -0.36893238422E+02  0.64039028789E+02  0.14485700217E+03  0.41800000000E+01 0. -1.
        -11    1    1    2    0    0 -0.83632274959E+02  0.31377255097E+02 -0.13118848404E+03  0.15871139813E+03  0.00000000000E+00 0.  1.
         11    1    1    2    0    0 -0.12793931347E+03  0.16727684645E+03 -0.18349008050E+03  0.27931813570E+03  0.00000000000E+00 0. -1.
</event>
<event>
 7    1  0.8653652E-006  0.1091226E+03  0.7561462E-02  0.1262203E+00
         -1   -1    0    0    0  501 -0.00000000000E+00  0.00000000000E+00  0.21698126159E+03  0.21698126159E+03  0.00000000000E+00 0.  1.
          1   -1    0    0  501    0  0.00000000000E+00 -0.00000000000E+00 -0.10102192071E+03  0.10102192071E+03  0.00000000000E+00 0. -1.
         23    2    1    2    0    0  0.73959118506E+02 -0.14796274303E+02  0.13569749645E+03  0.19937674078E+03  0.12509353812E+03 0.  0.
          5    1    3    3  502    0  0.22654737612E+02 -0.56048364295E+02  0.11542849762E+03  0.13036819681E+03  0.41800000000E+01 0. -1.
         -5    1    3    3    0  502  0.51304380894E+02  0.41252089992E+02  0.20268998830E+02  0.69008543972E+02  0.41800000000E+01 0. -1.
        -11    1    1    2    0    0 -0.74046383012E+02  0.27492850686E+02  0.16096360520E+02  0.80609034841E+02  0.00000000000E+00 0.  1.
         11    1    1    2    0    0  0.87264506274E-01 -0.12696576383E+02 -0.35834516093E+02  0.38017406679E+02  0.00000000000E+00 0. -1.
</event>
<event>
 7    1  0.8653652E-006  0.1129440E+03  0.7561462E-02  0.1255213E+00
          1   -1    0    0  501    0  0.00000000000E+00  0.00000000000E+00  0.45741362335E+02  0.45741362335E+02  0.00000000000E+00 0. -1.
         -1   -1    0    0    0  501 -0.00000000000E+00 -0.00000000000E+00 -0.41748493472E+03  0.41748493472E+03  0.00000000000E+00 0.  1.
         23    2    1    2    0    0  0.66829474159E+02 -0.41176203039E+01 -0.29351780851E+03  0.32601100115E+03  0.12508931026E+03 0.  0.
          5    1    3    3  502    0 -0.24196046134E+02 -0.12317588814E+02 -0.11959363253E+02  0.29961148378E+02  0.41800000000E+01 0. -1.
         -5    1    3    3    0  502  0.91025520293E+02  0.81999685099E+01 -0.28155844526E+03  0.29604985277E+03  0.41800000000E+01 0. -1.
        -11    1    1    2    0    0 -0.78159504376E+02 -0.19655066833E+02 -0.76018660874E+02  0.11078838647E+03  0.00000000000E+00 0. -1.
         11    1    1    2    0    0  0.11330030217E+02  0.23772687137E+02 -0.22071029988E+01  0.26426909431E+02  0.00000000000E+00 0.  1.
</event>
<event>
 7    1  0.8653652E-006  0.1123315E+03  0.7561462E-02  0.1256312E+00
          1   -1    0    0  501    0  0.00000000000E+00  0.00000000000E+00  0.94203678250E+03  0.94203678250E+03  0.00000000000E+00 0. -1.
         -1   -1    0    0    0  501 -0.00000000000E+00 -0.00000000000E+00 -0.13461868157E+02  0.13461868157E+02  0.00000000000E+00 0.  1.
         23    2    1    2    0    0  0.25136254844E+02 -0.19941306462E+02  0.50285342236E+03  0.51917159199E+03  0.12509232806E+03 0.  0.
          5    1    3    3  502    0  0.63152796976E+02 -0.49840848383E+02  0.31967909993E+03  0.32967345247E+03  0.41800000000E+01 0.  1.
         -5    1    3    3    0  502 -0.38016542132E+02  0.29899541920E+02  0.18317432243E+03  0.18949813952E+03  0.41800000000E+01 0.  1.
        -11    1    1    2    0    0 -0.59199216591E+02  0.15590499866E+02  0.26530194054E+03  0.27227326454E+03  0.00000000000E+00 0.  1.
         11    1    1    2    0    0  0.34062961747E+02  0.43508065967E+01  0.16041955145E+03  0.16405379413E+03  0.00000000000E+00 0. -1.
</event>
<event>
 7    1  0.8653652E-006  0.2464088E+03  0.7561462E-02  0.1115596E+00
         -1   -1    0    0    0  501 -0.00000000000E+00  0.00000000000E+00  0.10275860611E+04  0.10275860611E+04  0.00000000000E+00 0.  1.
          1   -1    0    0  501    0  0.00000000000E+00 -0.00000000000E+00 -0.68990089073E+02  0.68990089073E+02  0.00000000000E+00 0. -1.
         23    2    1    2    0    0  0.18922702686E+03  0.11439483633E+03  0.69411778178E+03  0.73914857688E+03  0.12509227574E+03 0.  0.
          5    1    3    3  502    0  0.87515687579E+01 -0.23700855836E+02  0.94194977084E+02  0.97613967397E+02  0.41800000000E+01 0. -1.
         -5    1    3    3    0  502  0.18047545810E+03  0.13809569217E+03  0.59992280470E+03  0.64153460949E+03  0.41800000000E+01 0. -1.
        -11    1    1    2    0    0 -0.43082067209E+02 -0.78325528970E+02  0.87476141360E+02  0.12507209245E+03  0.00000000000E+00 0. -1.
         11    1    1    2    0    0 -0.14614495965E+03 -0.36069307362E+02  0.17700204888E+03  0.23235548083E+03  0.00000000000E+00 0.  1.
</event>
<event>
 7    1  0.8653652E-006  0.1033858E+03  0.7561462E-02  0.1273333E+00
          4   -1    0    0  501    0  0.00000000000E+00  0.00000000000E+00  0.71772079647E+02  0.71772079647E+02  0.00000000000E+00 0. -1.
         -4   -1    0    0    0  501 -0.00000000000E+00 -0.00000000000E+00 -0.28550387894E+03  0.28550387894E+03  0.00000000000E+00 0.  1.
         23    2    1    2    0    0 -0.30564798636E+02  0.56917660201E+02 -0.20701823064E+03  0.25035401342E+03  0.12508699876E+03 0.  0.
          5    1    3    3  502    0  0.25127346850E+02  0.77042845810E+02 -0.11174113768E+03  0.13809611834E+03  0.41800000000E+01 0. -1.
         -5    1    3    3    0  502 -0.55692145486E+02 -0.20125185609E+02 -0.95277092960E+02  0.11225789508E+03  0.41800000000E+01 0. -1.
        -11    1    1    2    0    0  0.25196148117E+02 -0.31770208379E+02 -0.45144814210E+02  0.60681515064E+02  0.00000000000E+00 0.  1.
         11    1    1    2    0    0  0.53686505186E+01 -0.25147451822E+02  0.38431245556E+02  0.46240430107E+02  0.00000000000E+00 0. -1.
</event>
<event>
 7    1  0.8653652E-006  0.1439701E+03  0.7561462E-02  0.1208085E+00
          2   -1    0    0  501    0  0.00000000000E+00  0.00000000000E+00  0.11354971234E+03  0.11354971234E+03  0.00000000000E+00 0. -1.
         -2   -1    0    0    0  501 -0.00000000000E+00 -0.00000000000E+00 -0.29946307002E+03  0.29946307002E+03  0.00000000000E+00 0.  1.
         23    2    1    2    0    0  0.30263146967E+01  0.10897292383E+03 -0.21203594962E+03  0.26923990823E+03  0.12508648026E+03 0.  0.
          5    1    3    3  502    0 -0.17718178154E+02  0.12106006793E+03 -0.11081625308E+03  0.16512779364E+03  0.41800000000E+01 0. -1.
         -5    1    3    3    0  502  0.20744492850E+02 -0.12087144108E+02 -0.10121969655E+03  0.10411211459E+03  0.41800000000E+01 0. -1.
        -11    1    1    2    0    0  0.34325822462E+02 -0.10603153605E+02  0.30889988881E+01  0.36058714178E+02  0.00000000000E+00 0.  1.
         11    1    1    2    0    0 -0.37352137159E+02 -0.98369770222E+02  0.23033593061E+02  0.10771415995E+03  0.00000000000E+00 0. -1.
</event>
<event>
 7    1  0.8653652E-006  0.1397881E+03  0.7561462E-02  0.1213614E+00
          2   -1    0    0  501    0  0.00000000000E+00  0.00000000000E+00  0.75202620067E+03  0.75202620067E+03  0.00000000000E+00 0. -1.
         -2   -1    0    0    0  501 -0.00000000000E+00 -0.00000000000E+00 -0.31313219509E+02  0.31313219509E+02  0.00000000000E+00 0.  1.
         23    2    1    2    0    0 -0.81095642918E+02 -0.70879835211E+02  0.34514281628E+03  0.38258629979E+03  0.12509300068E+03 0.  0.
          5    1    3    3  502    0 -0.67656610517E+02 -0.97479983053E+02  0.18630374967E+03  0.22092153264E+03  0.41800000000E+01 0.  1.
         -5    1    3    3    0  502 -0.13439032401E+02  0.26600147842E+02  0.15883906661E+03  0.16166476715E+03  0.41800000000E+01 0.  1.
        -11    1    1    2    0    0 -0.63824920424E+01  0.36021931787E+02  0.18016269748E+03  0.18383936830E+03  0.00000000000E+00 0.  1.
         11    1    1    2    0    0  0.87478134960E+02  0.34857903424E+02  0.19540746740E+03  0.21691375209E+03  0.00000000000E+00 0. -1.
</event>
<event>
 7    1  0.8653652E-006  0.1839394E+03  0.7561462E-02  0.1164044E+00
          2   -1    0    0  501    0  0.00000000000E+00  0.00000000000E+00  0.34433294170E+02  0.34433294170E+02  0.00000000000E+00 0. -1.
         -2   -1    0    0    0  501 -0.00000000000E+00 -0.00000000000E+00 -0.13573407092E+04  0.13573407092E+04  0.00000000000E+00 0.  1.
         23    2    1    2    0    0  0.16176650290E+03  0.77951966730E+02 -0.85087341707E+03  0.87876892633E+03  0.12650827415E+03 0.  0.
          5    1    3    3  502    0  0.16124939285E+02  0.11830612615E+02 -0.98889312279E+01  0.22698907961E+02  0.41800000000E+01 0. -1.
         -5    1    3    3    0  502  0.14564156362E+03  0.66121354115E+02 -0.84098448584E+03  0.85607001837E+03  0.41800000000E+01 0.  1.
        -11    1    1    2    0    0 -0.16353006514E+02  0.83372575362E+01 -0.97851881637E+01  0.20800975763E+02  0.00000000000E+00 0.  1.
         11    1    1    2    0    0 -0.14541349639E+03 -0.86289224266E+02 -0.46224880978E+03  0.49220410126E+03  0.00000000000E+00 0. -1.
</event>
<event>
 6    1  0.8653652E-006  0.1341127E+03  0.7561462E-02  0.1221478E+00
         -1   -1    0    0    0  501 -0.00000000000E+00  0.00000000000E+00  0.48511796852E+03  0.48511796852E+03  0.00000000000E+00 0.  1.
          1   -1    0    0  501    0  0.00000000000E+00 -0.00000000000E+00 -0.57666210304E+02  0.57666210304E+02  0.00000000000E+00 0. -1.
          5    1    1    2  502    0 -0.87531966900E+02  0.67876063357E+02  0.53048568957E+02  0.12288461366E+03  0.41800000000E+01 0. -1.
         -5    1    1    2    0  502  0.21774461685E+02 -0.33419579276E+02  0.23190352828E+03  0.23534594598E+03  0.41800000000E+01 0.  1.
        -11    1    1    2    0    0 -0.46614858608E+01  0.24804657595E+02  0.30273496727E+02  0.39414275243E+02  0.00000000000E+00 0. -1.
         11    1    1    2    0    0  0.70418991076E+02 -0.59261141676E+02  0.11222616426E+03  0.14513934394E+03  0.00000000000E+00 0.  1.
</event>
<event>
 7    1  0.8653652E-006  0.1296562E+03  0.7561462E-02  0.1227967E+00
          2   -1    0    0  501    0  0.00000000000E+00  0.00000000000E+00  0.28774043373E+03  0.28774043373E+03  0.00000000000E+00 0. -1.
         -2   -1    0    0    0  501 -0.00000000000E+00 -0.00000000000E+00 -0.63977402387E+02  0.63977402387E+02  0.00000000000E+00 0.  1.
         23    2    1    2    0    0 -0.13464358971E+02  0.75838874337E+02  0.97374164655E+02  0.17624432133E+03  0.12509000373E+03 0.  0.
          5    1    3    3  502    0 -0.57859510137E+02  0.73748490797E+02  0.36326482302E+02  0.10061634323E+03  0.41800000000E+01 0. -1.
         -5    1    3    3    0  502  0.44395151167E+02  0.20903835407E+01  0.61047682353E+02  0.75627978098E+02  0.41800000000E+01 0. -1.
        -11    1    1    2    0    0 -0.40244258377E+02 -0.29377501193E+02  0.62656259580E+02  0.80052762434E+02  0.00000000000E+00 0.  1.
         11    1    1    2    0    0  0.53708617348E+02 -0.46461373144E+02  0.63732607108E+02  0.95420752358E+02  0.00000000000E+00 0. -1.
</event>
<event>
 7    1  0.8653652E-006  0.2475440E+03  0.7561462E-02  0.1114867E+00
         -2   -1    0    0    0  501 -0.00000000000E+00  0.00000000000E+00  0.22850624543E+03  0.22850624543E+03  0.00000000000E+00 0.  1.
          2   -1    0    0  501    0  0.00000000000E+00 -0.00000000000E+00 -0.29566086299E+03  0.29566086299E+03  0.00000000000E+00 0. -1.
         23    2    1    2    0    0 -0.22771115282E+03 -0.58568575752E+01  0.26876036757E+02  0.26125853073E+03  0.12508807548E+03 0.  0.
          5    1    3    3  502    0 -0.19549849530E+03 -0.46510194067E+02 -0.34537220996E+01  0.20102800902E+03  0.41800000000E+01 0. -1.
         -5    1    3    3    0  502 -0.32212657526E+02  0.40653336491E+02  0.30329758857E+02  0.60230521707E+02  0.41800000000E+01 0. -1.
        -11    1    1    2    0    0  0.44414249879E+02 -0.32185133905E+02 -0.34917832064E+01  0.54960904166E+02  0.00000000000E+00 0.  1.
         11    1    1    2    0    0  0.18329690294E+03  0.38041991480E+02 -0.90538871110E+02  0.20794767353E+03  0.00000000000E+00 0. -1.
</event>
<event>
 7    1  0.8653652E-006  0.1583588E+03  0.7561462E-02  0.1190562E+00
          1   -1    0    0  501    0  0.00000000000E+00  0.00000000000E+00  0.34938562867E+02  0.34938562867E+02  0.00000000000E+00 0. -1.
         -1   -1    0    0    0  501 -0.00000000000E+00 -0.00000000000E+00 -0.81635058703E+03  0.81635058703E+03  0.00000000000E+00 0.  1.
         23    2    1    2    0    0  0.97945571847E+01  0.12584834986E+03 -0.47751882208E+03  0.50951389132E+03  0.12508572857E+03 0.  0.
          5    1    3    3  502    0 -0.44561057213E+02  0.61478352451E+02 -0.11913070968E+03  0.14133249460E+03  0.41800000000E+01 0. -1.
         -5    1    3    3    0  502  0.54355614398E+02  0.64369997408E+02 -0.35838811240E+03  0.36818139672E+03  0.41800000000E+01 0. -1.
        -11    1    1    2    0    0 -0.48623098579E+02 -0.43354122970E+02 -0.12145749951E+03  0.13782492475E+03  0.00000000000E+00 0.  1.
         11    1    1    2    0    0  0.38828541394E+02 -0.82494226890E+02 -0.18243570257E+03  0.20395033383E+03  0.00000000000E+00 0. -1.
</event>
<event>
 7    1  0.8653652E-006  0.1540169E+03  0.7561462E-02  0.1195622E+00
          3   -1    0    0  501    0  0.00000000000E+00  0.00000000000E+00  0.59638761122E+03  0.59638761122E+03  0.00000000000E+00 0. -1.
         -3   -1    0    0    0  501 -0.00000000000E+00 -0.00000000000E+00 -0.40397891215E+02  0.40397891215E+02  0.00000000000E+00 0.  1.
         23    2    1    2    0    0  0.10977328675E+03  0.27722782257E+00  0.26392285038E+03  0.31201635753E+03  0.12509470442E+03 0.  0.
          5    1    3    3  502    0 -0.25823791703E+02  0.14498716714E+02  0.52055909616E+02  0.60036415035E+02  0.41800000000E+01 0.  1.
         -5    1    3    3    0  502  0.13559707845E+03 -0.14221488892E+02  0.21186694076E+03  0.25197994249E+03  0.41800000000E+01 0.  1.
        -11    1    1    2    0    0 -0.35527449177E+02 -0.43221325212E+02  0.10498393309E+03  0.11896179557E+03  0.00000000000E+00 0. -1.
         11    1    1    2    0    0 -0.74245837573E+02  0.42944097390E+02  0.18708293653E+03  0.20580734933E+03  0.00000000000E+00 0.  1.
</event>
<event>
 7    1  0.8653652E-006  0.6765661E+02  0.7561462E-02  0.1368248E+00
         -1   -1    0    0    0  501 -0.00000000000E+00  0.00000000000E+00  0.43173313392E+03  0.43173313392E+03  0.00000000000E+00 0.  1.
          1   -1    0    0  501    0  0.00000000000E+00 -0.00000000000E+00 -0.32907282903E+02  0.32907282903E+02  0.00000000000E+00 0. -1.
         23    2    1    2    0    0  0.17400752350E+02 -0.30244379670E+02  0.28865591327E+03  0.31652548407E+03  0.12509451275E+03 0.  0.
          5    1    3    3  502    0  0.39968180376E+02 -0.21859300104E+02  0.28848522902E+03  0.29208985639E+03  0.41800000000E+01 0. -1.
         -5    1    3    3    0  502 -0.22567428025E+02 -0.83850795658E+01  0.17068424443E+00  0.24435627680E+02  0.41800000000E+01 0. -1.
        -11    1    1    2    0    0 -0.15865627759E+02 -0.13819838223E+02 -0.75929629683E+01  0.22368709380E+02  0.00000000000E+00 0. -1.
         11    1    1    2    0    0 -0.15351245916E+01  0.44064217892E+02  0.11776290071E+03  0.12574622337E+03  0.00000000000E+00 0.  1.
</event>
<event>
 7    1  0.8653652E-006  0.9836584E+02  0.7561462E-02  0.1283770E+00
         -2   -1    0    0    0  501 -0.00000000000E+00  0.00000000000E+00  0.19282054405E+02  0.19282054405E+02  0.00000000000E+00 0.  1.
          2   -1    0    0  501    0  0.00000000000E+00 -0.00000000000E+00 -0.68319581462E+03  0.68319581462E+03  0.00000000000E+00 0. -1.
         23    2    1    2    0    0 -0.44805406000E+01  0.24880865135E+02 -0.45619403526E+03  0.47370993113E+03  0.12509583665E+03 0.  0.
          5    1    3    3  502    0  0.27157663159E+02  0.67953459524E+02 -0.28790472864E+03  0.29708890337E+03  0.41800000000E+01 0. -1.
         -5    1    3    3    0  502 -0.31638203759E+02 -0.43072594388E+02 -0.16828930662E+03  0.17662102776E+03  0.41800000000E+01 0. -1.
        -11    1    1    2    0    0  0.34633571632E+02 -0.17401238935E+02 -0.18803850495E+03  0.19199157988E+03  0.00000000000E+00 0. -1.
         11    1    1    2    0    0 -0.30153031032E+02 -0.74796262008E+01 -0.19681220008E+02  0.36776358024E+02  0.00000000000E+00 0.  1.
</event>
<event>
 7    1  0.8653652E-006  0.1071893E+03  0.7561462E-02  0.1265865E+00
         -2   -1    0    0    0  501 -0.00000000000E+00  0.00000000000E+00  0.19814143307E+02  0.19814143307E+02  0.00000000000E+00 0.  1.
          2   -1    0    0  501    0  0.00000000000E+00 -0.00000000000E+00 -0.77849834088E+03  0.77849834088E+03  0.00000000000E+00 0. -1.
         23    2    1    2    0    0  0.12715641076E+02 -0.54776955423E+02 -0.45596117912E+03  0.47613845641E+03  0.12508009608E+03 0.  0.
          5    1    3    3  502    0 -0.32038875700E+02  0.12159318319E+02 -0.28539547813E+03  0.28747589450E+03  0.41800000000E+01 0. -1.
         -5    1    3    3    0  502  0.44754516776E+02 -0.66936273743E+02 -0.17056570099E+03  0.18866256192E+03  0.41800000000E+01 0. -1.
        -11    1    1    2    0    0 -0.45572954013E+02  0.15765424930E+02 -0.77740594238E+02  0.91482472383E+02  0.00000000000E+00 0.  1.
         11    1    1    2    0    0  0.32857312937E+02  0.39011530493E+02 -0.22498242421E+03  0.23069155539E+03  0.00000000000E+00 0. -1.
</event>
<event>
 7    1  0.8653652E-006  0.1361218E+03  0.7561462E-02  0.1218645E+00
         -3   -1    0    0    0  501 -0.00000000000E+00  0.00000000000E+00  0.20401537451E+02  0.20401537451E+02  0.00000000000E+00 0.  1.
          3   -1    0    0  501    0  0.00000000000E+00 -0.00000000000E+00 -0.10556615779E+04  0.10556615779E+04  0.00000000000E+00 0. -1.
         23    2    1    2    0    0 -0.26238531509E+02  0.89270854032E+02 -0.44529349743E+03  0.47182297558E+03  0.12519135559E+03 0.  0.
          5    1    3    3  502    0  0.35714125928E+02  0.39638728909E+01 -0.22112027186E+03  0.22405994311E+03  0.41800000000E+01 0.  1.
         -5    1    3    3    0  502 -0.61952657438E+02  0.85306981141E+02 -0.22417322557E+03  0.24776303247E+03  0.41800000000E+01 0.  1.
        -11    1    1    2    0    0  0.92450880020E+00  0.19173420849E+02 -0.88343248557E+02  0.90404669952E+02  0.00000000000E+00 0.  1.
         11    1    1    2    0    0  0.25314022709E+02 -0.10844427488E+03 -0.50162329448E+03  0.51383546984E+03  0.00000000000E+00 0. -1.
</event>
<event>
 7    1  0.8653652E-006  0.1110509E+03  0.7561462E-02  0.1258636E+00
         -2   -1    0    0    0  501 -0.00000000000E+00  0.00000000000E+00  0.64210997942E+02  0.64210997942E+02  0.00000000000E+00 0.  1.
          2   -1    0    0  501    0  0.00000000000E+00 -0.00000000000E+00 -0.23125954770E+03  0.23125954770E+03  0.00000000000E+00 0. -1.
         23    2    1    2    0    0 -0.31325773252E+02 -0.45447658430E+02 -0.46119917547E+02  0.13444287849E+03  0.11358277623E+03 0.  0.
          5    1    3    3  502    0 -0.73179734954E+02 -0.40901939195E+02 -0.32235030387E+02  0.89915581642E+02  0.41800000000E+01 0. -1.
         -5    1    3    3    0  502  0.41853961703E+02 -0.45457192353E+01 -0.13884887160E+02  0.44527296853E+02  0.41800000000E+01 0.  1.
        -11    1    1    2    0    0  0.56995699102E+02  0.39953600649E+02 -0.50869984731E+02  0.86212268660E+02  0.00000000000E+00 0.  1.
         11    1    1    2    0    0 -0.25669925851E+02  0.54940577817E+01 -0.70058647475E+02  0.74815398482E+02  0.00000000000E+00 0. -1.
</event>
<event>
 7    1  0.8653652E-006  0.1101614E+03  0.7561462E-02  0.1260271E+00
          1   -1    0    0  501    0  0.00000000000E+00  0.00000000000E+00  0.40061484401E+03  0.40061484401E+03  0.00000000000E+00 0. -1.
         -1   -1    0    0    0  501 -0.00000000000E+00 -0.00000000000E+00 -0.40635222315E+02  0.40635222315E+02  0.00000000000E+00 0.  1.
         23    2    1    2    0    0 -0.35318755250E+02 -0.56501017958E+02  0.21357403500E+03  0.25631991071E+03  0.12508496591E+03 0.  0.
          5    1    3    3  502    0  0.42697094023E+02 -0.37973116694E+02  0.59627401867E+02  0.82691588949E+02  0.41800000000E+01 0. -1.
         -5    1    3    3    0  502 -0.78015849273E+02 -0.18527901264E+02  0.15394663314E+03  0.17362832176E+03  0.41800000000E+01 0. -1.
        -11    1    1    2    0    0  0.15605595929E+02 -0.63628717867E+01 -0.67895477257E+01  0.18169169491E+02  0.00000000000E+00 0.  1.
         11    1    1    2    0    0  0.19713159321E+02  0.62863889745E+02  0.15319513441E+03  0.16676098612E+03  0.00000000000E+00 0. -1.
</event>
<event>
 7    1  0.8653652E-006  0.1122192E+03  0.7561462E-02  0.1256515E+00
         -2   -1    0    0    0  501 -0.00000000000E+00  0.00000000000E+00  0.33590054365E+02  0.33590054365E+02  0.00000000000E+00 0.  1.
          2   -1    0    0  501    0  0.00000000000E+00 -0.00000000000E+00 -0.50747306499E+03  0.50747306499E+03  0.00000000000E+00 0. -1.
         23    2    1    2    0    0  0.58569737282E+02 -0.71380350346E+00 -0.17544717122E+03  0.22329334980E+03  0.12508911438E+03 0.  0.
          5    1    3    3  502    0 -0.87542290068E+01  0.39186010783E+02 -0.12181055337E+03  0.12832561427E+03  0.41800000000E+01 0.  1.
         -5    1    3    3    0  502  0.67323966289E+02 -0.39899814286E+02 -0.53636617853E+02  0.94967735530E+02  0.41800000000E+01 0.  1.
        -11    1    1    2    0    0 -0.25749441396E+02  0.44238391710E+02 -0.18443471113E+03  0.19140593435E+03  0.00000000000E+00 0. -1.
         11    1    1    2    0    0 -0.32820295886E+02 -0.43524588206E+02 -0.11400112828E+03  0.12636383521E+03  0.00000000000E+00 0.  1.
</event>
<event>
 7    1  0.8653652E-006  0.1827818E+03  0.7561462E-02  0.1165138E+00
         -1   -1    0    0    0  501 -0.00000000000E+00  0.00000000000E+00  0.89281059401E+02  0.89281059401E+02  0.00000000000E+00 0.  1.
          1   -1    0    0  501    0  0.00000000000E+00 -0.00000000000E+00 -0.53223451214E+03  0.53223451214E+03  0.00000000000E+00 0. -1.
         23    2    1    2    0    0 -0.93552810105E+02 -0.11352803314E+03 -0.61788930562E+02  0.20275565831E+03  0.12510492576E+03 0.  0.
          5    1    3    3  502    0 -0.39188899134E+02 -0.12952439552E+03 -0.34468182768E+02  0.13970635946E+03  0.41800000000E+01 0.  1.
         -5    1    3    3    0  502 -0.54363910971E+02  0.15996362376E+02 -0.27320747794E+02  0.63049298849E+02  0.41800000000E+01 0.  1.
        -11    1    1    2    0    0 -0.18723207412E+02  0.16885836530E+02 -0.59536526386E+02  0.64655146317E+02  0.00000000000E+00 0.  1.
         11    1    1    2    0    0  0.11227601752E+03  0.96642196614E+02 -0.32162799579E+03  0.35410476692E+03  0.00000000000E+00 0. -1.
</event>
<event>
 7    1  0.8653652E-006  0.1434699E+03  0.7561462E-02  0.1208735E+00
         -2   -1    0    0    0  501 -0.00000000000E+00  0.00000000000E+00  0.72170280256E+02  0.72170280256E+02  0.00000000000E+00 0.  1.
          2   -1    0    0  501    0  0.00000000000E+00 -0.00000000000E+00 -0.36558555957E+03  0.36558555957E+03  0.00000000000E+00 0. -1.
         23    2    1    2    0    0 -0.10824260411E+03  0.42775425119E+02 -0.12231954450E+03  0.21013359687E+03  0.12509140349E+03 0.  0.
          5    1    3    3  502    0 -0.10651269462E+03  0.31049759885E+01 -0.13135867344E+03  0.16919565148E+03  0.41800000000E+01 0.  1.
         -5    1    3    3    0  502 -0.17299094866E+01  0.39670449131E+02  0.90391289353E+01  0.40937945393E+02  0.41800000000E+01 0.  1.
        -11    1    1    2    0    0  0.16667891679E+02 -0.45809257583E+02 -0.24027407270E+02  0.54347244580E+02  0.00000000000E+00 0.  1.
         11    1    1    2    0    0  0.91574712431E+02  0.30338324636E+01 -0.14706832754E+03  0.17327499838E+03  0.00000000000E+00 0. -1.
</event>
<event>
 7    1  0.8653652E-006  0.9577256E+02  0.7561462E-02  0.1289446E+00
         -1   -1    0    0    0  501 -0.00000000000E+00  0.00000000000E+00  0.33115841560E+03  0.33115841560E+03  0.00000000000E+00 0.  1.
          1   -1    0    0  501    0  0.00000000000E+00 -0.00000000000E+00 -0.35843211537E+02  0.35843211537E+02  0.00000000000E+00 0. -1.
         23    2    1    2    0    0 -0.13008784362E+02  0.26676882943E+01  0.17412251823E+03  0.21481118970E+03  0.12509536696E+03 0.  0.
          5    1    3    3  502    0 -0.20293463139E+02  0.54274883827E+02  0.14205333873E+03  0.15347381244E+03  0.41800000000E+01 0. -1.
         -5    1    3    3    0  502  0.72846787773E+01 -0.51607195532E+02  0.32069179504E+02  0.61337377265E+02  0.41800000000E+01 0. -1.
        -11    1    1    2    0    0  0.43890535827E+02 -0.17064276121E+02  0.10369641287E+03  0.11388816750E+03  0.00000000000E+00 0.  1.
         11    1    1    2    0    0 -0.30881751465E+02  0.14396587827E+02  0.17496272962E+02  0.38302269935E+02  0.00000000000E+00 0. -1.
</event>
<event>
 7    1  0.8653652E-006  0.1004867E+03  0.7561462E-02  0.1279276E+00
          1   -1    0    0  501    0  0.00000000000E+00  0.00000000000E+00  0.97428814180E+02  0.97428814180E+02  0.00000000000E+00 0.  1.
         -1   -1    0    0    0  501 -0.00000000000E+00 -0.00000000000E+00 -0.45597204380E+03  0.45597204380E+03  0.00000000000E+00 0. -1.
         23    2    1    2    0    0 -0.64340334793E+02 -0.70062907917E+02 -0.38795314744E+03  0.41857357043E+03  0.12509076507E+03 0.  0.
          5    1    3    3  502    0 -0.16140897410E+01 -0.26389264520E+02 -0.30316227054E+03  0.30434163903E+03  0.41800000000E+01 0.  1.
         -5    1    3    3    0  502 -0.62726245052E+02 -0.43673643398E+02 -0.84790876896E+02  0.11423193140E+03  0.41800000000E+01 0.  1.
        -11    1    1    2    0    0  0.59374809720E+01  0.19585696020E+02 -0.30765018878E+02  0.36950501423E+02  0.00000000000E+00 0.  1.
         11    1    1    2    0    0  0.58402853821E+02  0.50477211897E+02  0.60174936700E+02  0.97876786126E+02  0.00000000000E+00 0. -1.
</event>
<event>
 7    1  0.8653652E-006  0.8421392E+02  0.7561462E-02  0.1317501E+00
          1   -1    0    0  501    0  0.00000000000E+00  0.00000000000E+00  0.12338635207E+03  0.12338635207E+03  0.00000000000E+00 0. -1.
         -1   -1    0    0    0  501 -0.00000000000E+00 -0.00000000000E+00 -0.13214081303E+03  0.13214081303E+03  0.00000000000E+00 0.  1.
         23    2    1    2    0    0  0.36183155325E+02  0.57311462738E+02 -0.15816069095E+02  0.14314953911E+03  0.12509123877E+03 0.  0.
          5    1    3    3  502    0  0.24101443099E+02  0.55852488253E+02  0.48280348892E+02  0.77774317693E+02  0.41800000000E+01 0.  1.
         -5    1    3    3    0  502  0.12081712225E+02  0.14589744850E+01 -0.64096417987E+02  0.65375221420E+02  0.41800000000E+01 0.  1.
        -11    1    1    2    0    0  0.18263965192E+02 -0.26012857719E+02 -0.26308988595E+02  0.41260199613E+02  0.00000000000E+00 0.  1.
         11    1    1    2    0    0 -0.54447120516E+02 -0.31298605019E+02  0.33370596731E+02  0.71117426379E+02  0.00000000000E+00 0. -1.
</event>
<event>
 6    1  0.8653652E-006  0.2924779E+03  0.7561462E-02  0.1089062E+00
          1   -1    0    0  501    0  0.00000000000E+00  0.00000000000E+00  0.11794680819E+04  0.11794680819E+04  0.00000000000E+00 0. -1.
         -1   -1    0    0    0  501 -0.00000000000E+00 -0.00000000000E+00 -0.82141385872E+02  0.82141385872E+02  0.00000000000E+00 0.  1.
          5    1    1    2  502    0 -0.25567764773E+03 -0.10774323806E+02  0.35707639129E+03  0.43932694798E+03  0.41800000000E+01 0. -1.
         -5    1    1    2    0  502  0.23890361779E+03 -0.64204268949E+00  0.37173761152E+03  0.44190686239E+03  0.41800000000E+01 0.  1.
        -11    1    1    2    0    0  0.52336696024E+02 -0.11756475294E+01  0.15625044672E+03  0.16478687447E+03  0.00000000000E+00 0. -1.
         11    1    1    2    0    0 -0.35562666086E+02  0.12592014025E+02  0.21226224653E+03  0.21558878296E+03  0.00000000000E+00 0.  1.
</event>
<event>
 6    1  0.8653652E-006  0.1199325E+03  0.7561462E-02  0.1243208E+00
         -1   -1    0    0    0  501 -0.00000000000E+00  0.00000000000E+00  0.41848168776E+02  0.41848168776E+02  0.00000000000E+00 0.  1.
          1   -1    0    0  501    0  0.00000000000E+00 -0.00000000000E+00 -0.45332068082E+03  0.45332068082E+03  0.00000000000E+00 0. -1.
          5    1    1    2  502    0  0.29637344032E+02  0.75848025365E+02 -0.26715398750E+03  0.27932064111E+03  0.41800000000E+01 0. -1.
         -5    1    1    2    0  502 -0.42874382932E+02 -0.12956382859E+02 -0.26078324392E+02  0.51996461146E+02  0.41800000000E+01 0.  1.
        -11    1    1    2    0    0  0.50468455317E+02 -0.56161803171E+02 -0.81818597707E+02  0.11133506208E+03  0.00000000000E+00 0.  1.
         11    1    1    2    0    0 -0.37231416418E+02 -0.67298393350E+01 -0.36421602443E+02  0.52516685258E+02  0.00000000000E+00 0. -1.
</event>
<event>
 7    1  0.8653652E-006  0.1669292E+03  0.7561462E-02  0.1181089E+00
          2   -1    0    0  501    0  0.00000000000E+00  0.00000000000E+00  0.35152171502E+03  0.35152171502E+03  0.00000000000E+00 0. -1.
         -2   -1    0    0    0  501 -0.00000000000E+00 -0.00000000000E+00 -0.12214618132E+03  0.12214618132E+03  0.00000000000E+00 0.  1.
         23    2    1    2    0    0  0.14963751125E+03  0.62894864297E+02  0.41672328381E+02  0.20912084746E+03  0.12509115541E+03 0.  0.
          5    1    3    3  502    0  0.86546439837E+02  0.25876978295E+02 -0.40451026970E+02  0.99063930051E+02  0.41800000000E+01 0.  1.
         -5    1    3    3    0  502  0.63091071410E+02  0.37017886002E+02  0.82123355351E+02  0.11005691741E+03  0.41800000000E+01 0.  1.
        -11    1    1    2    0    0 -0.51183992120E+02 -0.48771283285E+02  0.27254324353E+02  0.75770953001E+02  0.00000000000E+00 0.  1.
         11    1    1    2    0    0 -0.98453519128E+02 -0.14123581011E+02  0.16044888097E+03  0.18877609587E+03  0.00000000000E+00 0. -1.
</event>
<event>
 7    1  0.8653652E-006  0.1070351E+03  0.7561462E-02  0.1266161E+00
         -2   -1    0    0    0  501 -0.00000000000E+00  0.00000000000E+00  0.90343742975E+02  0.90343742975E+02  0.00000000000E+00 0.  1.
          2   -1    0    0  501    0  0.00000000000E+00 -0.00000000000E+00 -0.22862155037E+03  0.22862155037E+03  0.00000000000E+00 0. -1.
         23    2    1    2    0    0  0.81459219800E+02  0.29264480161E+02 -0.63261973056E+02  0.16474970516E+03  0.12509346036E+03 0.  0.
          5    1    3    3  502    0  0.60855811335E+02  0.42206689919E+02  0.20880446174E+02  0.77060365167E+02  0.41800000000E+01 0.  1.
         -5    1    3    3    0  502  0.20603408466E+02 -0.12942209758E+02 -0.84142419230E+02  0.87689339989E+02  0.41800000000E+01 0.  1.
        -11    1    1    2    0    0 -0.96085897819E+02 -0.20819669786E+02 -0.88748907728E+02  0.13244745008E+03  0.00000000000E+00 0.  1.
         11    1    1    2    0    0  0.14626678018E+02 -0.84448103751E+01  0.13733073388E+02  0.21768138111E+02  0.00000000000E+00 0. -1.
</event>
<event>
 7    1  0.8653652E-006  0.1270113E+03  0.7561462E-02  0.1231959E+00
         -1   -1    0    0    0  501 -0.00000000000E+00  0.00000000000E+00  0.16993134771E+03  0.16993134771E+03  0.00000000000E+00 0.  1.
          1   -1    0    0  501    0  0.00000000000E+00 -0.00000000000E+00 -0.16888281357E+03  0.16888281357E+03  0.00000000000E+00 0. -1.
         23    2    1    2    0    0  0.93266089725E+02 -0.95901503323E+01  0.90180730202E+02  0.18047283480E+03  0.12508935016E+03 0.  0.
          5    1    3    3  502    0  0.12174234834E+03 -0.23809847839E+02  0.74280483111E+02  0.14464843865E+03  0.41800000000E+01 0.  1.
         -5    1    3    3    0  502 -0.28476258612E+02  0.14219697507E+02  0.15900247092E+02  0.35824396147E+02  0.41800000000E+01 0.  1.
        -11    1    1    2    0    0 -0.38274594233E+02  0.17780335000E+02  0.11173973415E+02  0.43657102037E+02  0.00000000000E+00 0.  1.
         11    1    1    2    0    0 -0.54991495492E+02 -0.81901846674E+01 -0.10030616947E+03  0.11468422444E+03  0.00000000000E+00 0. -1.
</event>
<event>
 7    1  0.8653652E-006  0.9614722E+02  0.7561462E-02  0.1288613E+00
         -1   -1    0    0    0  501 -0.00000000000E+00  0.00000000000E+00  0.29144140616E+02  0.29144140616E+02  0.00000000000E+00 0.  1.
          1   -1    0    0  501    0  0.00000000000E+00 -0.00000000000E+00 -0.49326275988E+03  0.49326275988E+03  0.00000000000E+00 0. -1.
         23    2    1    2    0    0  0.77400573109E+01 -0.47753986292E+02 -0.22748747648E+03  0.26407371398E+03  0.12507606793E+03 0.  0.
          5    1    3    3  502    0  0.39957687869E+02 -0.47697494238E+02 -0.22266098375E+03  0.23122943987E+03  0.41800000000E+01 0. -1.
         -5    1    3    3    0  502 -0.32217630559E+02 -0.56492053559E-01 -0.48264927266E+01  0.32844274116E+02  0.41800000000E+01 0. -1.
        -11    1    1    2    0    0  0.17784808959E+02  0.64505895147E+02 -0.11616419903E+03  0.13405756627E+03  0.00000000000E+00 0.  1.
         11    1    1    2    0    0 -0.25524866269E+02 -0.16751908856E+02 -0.12046694376E+03  0.12427562025E+03  0.00000000000E+00 0. -1.
</event>
<event>
 7    1  0.8653652E-006  0.1253698E+03  0.7561462E-02  0.1234493E+00
          2   -1    0    0  501    0  0.00000000000E+00  0.00000000000E+00  0.12542587462E+03  0.12542587462E+03  0.00000000000E+00 0. -1.
         -2   -1    0    0    0  501 -0.00000000000E+00 -0.00000000000E+00 -0.19871456461E+03  0.19871456461E+03  0.00000000000E+00 0.  1.
         23    2    1    2    0    0  0.32758491530E+02 -0.62376270129E+02 -0.13276770674E+03  0.19554771831E+03  0.12509088032E+03 0.  0.
          5    1    3    3  502    0 -0.50483457381E+01  0.36482031193E+02 -0.42363546142E+02  0.56290024306E+02  0.41800000000E+01 0. -1.
         -5    1    3    3    0  502  0.37806837269E+02 -0.98858301322E+02 -0.90404160603E+02  0.13925769400E+03  0.41800000000E+01 0. -1.
        -11    1    1    2    0    0 -0.57913534793E+02  0.25901029279E+02  0.13741586675E+02  0.64912803316E+02  0.00000000000E+00 0.  1.
         11    1    1    2    0    0  0.25155043263E+02  0.36475240850E+02  0.45737430079E+02  0.63679917610E+02  0.00000000000E+00 0. -1.
</event>
<event>
 7    1  0.8653652E-006  0.1080607E+03  0.7561462E-02  0.1264204E+00
         -2   -1    0    0    0  501 -0.00000000000E+00  0.00000000000E+00  0.16052089994E+03  0.16052089994E+03  0.00000000000E+00 0.  1.
          2   -1    0    0  501    0  0.00000000000E+00 -0.00000000000E+00 -0.18869016007E+03  0.18869016007E+03  0.00000000000E+00 0. -1.
         23    2    1    2    0    0  0.45063505250E+02  0.89612039319E+02  0.76747850205E+02  0.17776221342E+03  0.12509250542E+03 0.  0.
          5    1    3    3  502    0  0.45910009404E+02  0.79175263013E+02 -0.82785004571E+01  0.91991614871E+02  0.41800000000E+01 0. -1.
         -5    1    3    3    0  502 -0.84650415452E+00  0.10436776306E+02  0.85026350662E+02  0.85770598551E+02  0.41800000000E+01 0. -1.
        -11    1    1    2    0    0 -0.40357381607E+02 -0.23001700157E+02  0.74095898301E+00  0.46457996949E+02  0.00000000000E+00 0.  1.
         11    1    1    2    0    0 -0.47061236428E+01 -0.66610339163E+02 -0.10565806931E+03  0.12499084964E+03  0.00000000000E+00 0. -1.
</event>
<event>
 6    1  0.8653652E-006  0.1748801E+03  0.7561462E-02  0.1172852E+00
          3   -1    0    0  501    0  0.00000000000E+00  0.00000000000E+00  0.34810866869E+03  0.34810866869E+03  0.00000000000E+00 0. -1.
         -3   -1    0    0    0  501 -0.00000000000E+00 -0.00000000000E+00 -0.20254211394E+03  0.20254211394E+03  0.00000000000E+00 0.  1.
          5    1    1    2  502    0  0.15697204970E+02 -0.43885242985E+02 -0.35200697827E+02  0.58556624931E+02  0.41800000000E+01 0. -1.
         -5    1    1    2    0  502  0.12229792035E+03  0.92062627103E+02 -0.87954527581E+02  0.17659496016E+03  0.41800000000E+01 0.  1.
        -11    1    1    2    0    0 -0.76783267356E+02 -0.43955515604E+02  0.22008656071E+03  0.23720424048E+03  0.00000000000E+00 0.  1.
         11    1    1    2    0    0 -0.61211857970E+02 -0.42218685137E+01  0.48635219445E+02  0.78294957056E+02  0.00000000000E+00 0. -1.
</event>
<event>
 7    1  0.8653652E-006  0.8818759E+02  0.7561462E-02  0.1307301E+00
         -2   -1    0    0    0  501 -0.00000000000E+00  0.00000000000E+00  0.18028534927E+03  0.18028534927E+03  0.00000000000E+00 0.  1.
          2   -1    0    0  501    0  0.00000000000E+00 -0.00000000000E+00 -0.10210981997E+03  0.10210981997E+03  0.00000000000E+00 0. -1.
         23    2    1    2    0    0  0.35420334585E+02 -0.42009216499E+02  0.10427103739E+03  0.17186617558E+03  0.12508460615E+03 0.  0.
          5    1    3    3  502    0 -0.21848741904E+02 -0.30438314424E+02  0.10677677618E+03  0.11323696764E+03  0.41800000000E+01 0. -1.
         -5    1    3    3    0  502  0.57269076490E+02 -0.11570902076E+02 -0.25057387939E+01  0.58629207940E+02  0.41800000000E+01 0. -1.
        -11    1    1    2    0    0  0.15246931081E+02  0.16767841828E+01 -0.41258367572E+02  0.44017421633E+02  0.00000000000E+00 0. -1.
         11    1    1    2    0    0 -0.50667265666E+02  0.40332432316E+02  0.15162859479E+02  0.66511572032E+02  0.00000000000E+00 0.  1.
</event>
<event>
 6    1  0.8653652E-006  0.1211133E+03  0.7561462E-02  0.1241272E+00
         -1   -1    0    0    0  501 -0.00000000000E+00  0.00000000000E+00  0.15741015295E+03  0.15741015295E+03  0.00000000000E+00 0.  1.
          1   -1    0    0  501    0  0.00000000000E+00 -0.00000000000E+00 -0.17641675405E+03  0.17641675405E+03  0.00000000000E+00 0. -1.
          5    1    1    2  502    0  0.73437307936E+02  0.22938011098E+01 -0.11988311821E+02  0.74561999308E+02  0.41800000000E+01 0. -1.
         -5    1    1    2    0  502 -0.80138679913E+02  0.33240294287E+01  0.92680350271E+02  0.12263921443E+03  0.41800000000E+01 0.  1.
        -11    1    1    2    0    0  0.50005844184E-01 -0.46700501160E+02 -0.74641265105E+02  0.88046906622E+02  0.00000000000E+00 0.  1.
         11    1    1    2    0    0  0.66513661320E+01  0.41082670622E+02 -0.25057374442E+02  0.48578786633E+02  0.00000000000E+00 0. -1.
</event>
<event>
 7    1  0.8653652E-006  0.1111944E+03  0.7561462E-02  0.1258374E+00
         -2   -1    0    0    0  501 -0.00000000000E+00  0.00000000000E+00  0.15146130363E+03  0.15146130363E+03  0.00000000000E+00 0.  1.
          2   -1    0    0  501    0  0.00000000000E+00 -0.00000000000E+00 -0.12557078984E+03  0.12557078984E+03  0.00000000000E+00 0. -1.
         23    2    1    2    0    0 -0.67207653145E+02  0.27985383816E+02  0.61200228563E+02  0.15714103201E+03  0.12509110927E+03 0.  0.
          5    1    3    3  502    0 -0.80329677521E+01 -0.27394738870E+02 -0.25412918715E+02  0.38448525672E+02  0.41800000000E+01 0.  1.
         -5    1    3    3    0  502 -0.59174685393E+02  0.55380122687E+02  0.86613147278E+02  0.11869250634E+03  0.41800000000E+01 0.  1.
        -11    1    1    2    0    0 -0.13072038139E+02 -0.29307796319E+02  0.21722865834E+00  0.32091623432E+02  0.00000000000E+00 0.  1.
         11    1    1    2    0    0  0.80279691285E+02  0.13224125030E+01 -0.35526943437E+02  0.87799438026E+02  0.00000000000E+00 0. -1.
</event>
<event>
 7    1  0.8653652E-006  0.9030105E+02  0.7561462E-02  0.1302124E+00
          2   -1    0    0  501    0  0.00000000000E+00  0.00000000000E+00  0.35648260009E+03  0.35648260009E+03  0.00000000000E+00 0. -1.
         -2   -1    0    0    0  501 -0.00000000000E+00 -0.00000000000E+00 -0.47984792428E+02  0.47984792428E+02  0.00000000000E+00 0.  1.
         23    2    1    2    0    0 -0.37051588244E+02 -0.61551348345E+02  0.15447412463E+03  0.21136111317E+03  0.12509946565E+03 0.  0.
          5    1    3    3  502    0  0.25597248489E+02 -0.13871065844E+02  0.12300489257E+03  0.12647253296E+03  0.41800000000E+01 0.  1.
         -5    1    3    3    0  502 -0.62648836733E+02 -0.47680282501E+02  0.31469232061E+02  0.84888580209E+02  0.41800000000E+01 0.  1.
        -11    1    1    2    0    0  0.17345697865E+02  0.37030215926E+02  0.54668849285E+01  0.41255265807E+02  0.00000000000E+00 0.  1.
         11    1    1    2    0    0  0.19705890379E+02  0.24521132419E+02  0.14855679810E+03  0.15185101354E+03  0.00000000000E+00 0. -1.
</event>
<event>
 7    1  0.8653652E-006  0.8594286E+02  0.7561462E-02  0.1312985E+00
         -3   -1    0    0    0  501 -0.00000000000E+00  0.00000000000E+00  0.66115348175E+02  0.66115348175E+02  0.00000000000E+00 0.  1.
          3   -1    0    0  501    0  0.00000000000E+00 -0.00000000000E+00 -0.24682108884E+03  0.24682108884E+03  0.00000000000E+00 0. -1.
         23    2    1    2    0    0 -0.54207116344E+01 -0.24205680720E+02 -0.25209388142E+02  0.12997619102E+03  0.12507197083E+03 0.  0.
          5    1    3    3  502    0 -0.25107038274E+01  0.42093403717E+02 -0.43788542374E+02  0.60934941646E+02  0.41800000000E+01 0. -1.
         -5    1    3    3    0  502 -0.29100078069E+01 -0.66299084437E+02  0.18579154232E+02  0.69041249370E+02  0.41800000000E+01 0. -1.
        -11    1    1    2    0    0  0.30809535711E+02  0.21313846302E+02 -0.15321532548E+02  0.40475386280E+02  0.00000000000E+00 0.  1.
         11    1    1    2    0    0 -0.25388824077E+02  0.28918344185E+01 -0.14017481997E+03  0.14248485972E+03  0.00000000000E+00 0. -1.
</event>
<event>
 7    1  0.8653652E-006  0.1727758E+03  0.7561462E-02  0.1174984E+00
          2   -1    0    0  501    0  0.00000000000E+00  0.00000000000E+00  0.61077603008E+03  0.61077603008E+03  0.00000000000E+00 0. -1.
         -2   -1    0    0    0  501 -0.00000000000E+00 -0.00000000000E+00 -0.90711564791E+02  0.90711564791E+02  0.00000000000E+00 0.  1.
         23    2    1    2    0    0  0.14228032604E+03 -0.13673993390E+02  0.42765526938E+02  0.19469829009E+03  0.12509142495E+03 0.  0.
          5    1    3    3  502    0 -0.16897555259E+02  0.13824970143E+02 -0.10461632659E+02  0.24567770168E+02  0.41800000000E+01 0. -1.
         -5    1    3    3    0  502  0.15917788130E+03 -0.27498963532E+02  0.53227159596E+02  0.17013051992E+03  0.41800000000E+01 0. -1.
        -11    1    1    2    0    0 -0.64165937727E+02  0.44145944413E+02  0.31026837290E+03  0.31989466266E+03  0.00000000000E+00 0. -1.
         11    1    1    2    0    0 -0.78114388314E+02 -0.30471951024E+02  0.16703056545E+03  0.18689464213E+03  0.00000000000E+00 0.  1.
</event>
<event>
 7    1  0.9896469E-006  0.1809736E+03  0.7561462E-02  0.1166864E+00
          1   -1    0    0  501    0  0.00000000000E+00  0.00000000000E+00  0.13778319112E+04  0.13778319112E+04  0.00000000000E+00 0. -1.
         -1   -1    0    0    0  501 -0.00000000000E+00 -0.00000000000E+00 -0.28996646378E+02  0.28996646378E+02  0.00000000000E+00 0.  1.
         23    2    1    2    0    0  0.15381530027E+03  0.37706723957E+02  0.51368030909E+03  0.55190270913E+03  0.12509275267E+03 0.  0.
          5    1    3    3  502    0  0.13914690876E+03 -0.33348656526E+01  0.26460947184E+03  0.29901275647E+03  0.41800000000E+01 0.  1.
         -5    1    3    3    0  502  0.14668391510E+02  0.41041589609E+02  0.24907083725E+03  0.25288995266E+03  0.41800000000E+01 0.  1.
        -11    1    1    2    0    0 -0.59738394693E+02 -0.57346143024E+02  0.30044722651E+03  0.31165011125E+03  0.00000000000E+00 0.  1.
         11    1    1    2    0    0 -0.94076905575E+02  0.19639419067E+02  0.53470772919E+03  0.54327573717E+03  0.00000000000E+00 0. -1.
</event>
<event>
 7    1  0.8653652E-006  0.2643182E+03  0.7561462E-02  0.1104576E+00
          1   -1    0    0  501    0  0.00000000000E+00  0.00000000000E+00  0.33172618140E+03  0.33172618140E+03  0.00000000000E+00 0. -1.
         -1   -1    0    0    0  501 -0.00000000000E+00 -0.00000000000E+00 -0.27111354396E+03  0.27111354396E+03  0.00000000000E+00 0.  1.
         23    2    1    2    0    0  0.19119047564E+03 -0.17695051971E+03 -0.70088978987E+02  0.29736502233E+03  0.12509279408E+03 0.  0.
          5    1    3    3  502    0  0.24671396404E+02 -0.55550062542E+02 -0.67913012250E+02  0.91236707974E+02  0.41800000000E+01 0.  1.
         -5    1    3    3    0  502  0.16651907923E+03 -0.12140045716E+03 -0.21759667367E+01  0.20612831436E+03  0.41800000000E+01 0.  1.
        -11    1    1    2    0    0 -0.14037491042E+03  0.14358804037E+03  0.13886010667E+03  0.24414088153E+03  0.00000000000E+00 0. -1.
         11    1    1    2    0    0 -0.50815565220E+02  0.33362479339E+02 -0.81584902419E+01  0.61333821496E+02  0.00000000000E+00 0.  1.
</event>
<event>
 6    1  0.8653652E-006  0.2626708E+03  0.7561462E-02  0.1105549E+00
         -2   -1    0    0    0  501 -0.00000000000E+00  0.00000000000E+00  0.30826440713E+03  0.30826440713E+03  0.00000000000E+00 0.  1.
          2   -1    0    0  501    0  0.00000000000E+00 -0.00000000000E+00 -0.26278474951E+03  0.26278474951E+03  0.00000000000E+00 0. -1.
          5    1    1    2  502    0 -0.47672463721E+02  0.19770229251E+03  0.11446797693E+03  0.23340790562E+03  0.41800000000E+01 0. -1.
         -5    1    1    2    0  502  0.59794148547E+02 -0.22308022905E+03 -0.25310198869E+02  0.23237514359E+03  0.41800000000E+01 0.  1.
        -11    1    1    2    0    0 -0.48049852275E+02  0.20371906481E+01 -0.39469732954E+02  0.62215739720E+02  0.00000000000E+00 0. -1.
         11    1    1    2    0    0  0.35928167448E+02  0.23340745890E+02 -0.42083874819E+01  0.43050367712E+02  0.00000000000E+00 0.  1.
</event>
<event>
 7    1  0.8653652E-006  0.2847583E+03  0.7561462E-02  0.1093118E+00
          1   -1    0    0  501    0  0.00000000000E+00  0.00000000000E+00  0.24973291555E+03  0.24973291555E+03  0.00000000000E+00 0. -1.
         -1   -1    0    0    0  501 -0.00000000000E+00 -0.00000000000E+00 -0.36538321260E+03  0.36538321260E+03  0.00000000000E+00 0.  1.
         23    2    1    2    0    0  0.26487986196E+03 -0.86167843245E+02 -0.92146075174E+02  0.31893696570E+03  0.12507457952E+03 0.  0.
          5    1    3    3  502    0  0.58390124384E+02  0.11478369060E+01 -0.73445136400E+02  0.93927549824E+02  0.41800000000E+01 0. -1.
         -5    1    3    3    0  502  0.20648973757E+03 -0.87315680151E+02 -0.18700938774E+02  0.22500941588E+03  0.41800000000E+01 0. -1.
        -11    1    1    2    0    0 -0.15201436525E+03  0.13751533448E+02  0.22761050488E+02  0.15432283477E+03  0.00000000000E+00 0. -1.
         11    1    1    2    0    0 -0.11286549671E+03  0.72416309797E+02 -0.46265272365E+02  0.14185632767E+03  0.00000000000E+00 0.  1.
</event>
<event>
 7    1  0.8653652E-006  0.2054244E+03  0.7561462E-02  0.1145241E+00
         -1   -1    0    0    0  501 -0.00000000000E+00  0.00000000000E+00  0.46010652481E+03  0.46010652481E+03  0.00000000000E+00 0.  1.
          1   -1    0    0  501    0  0.00000000000E+00 -0.00000000000E+00 -0.10490928590E+03  0.10490928590E+03  0.00000000000E+00 0. -1.
         23    2    1    2    0    0  0.65463191920E+02  0.17968435175E+03  0.18949450958E+03  0.29686260630E+03  0.12508933645E+03 0.  0.
          5    1    3    3  502    0 -0.40085938461E+01 -0.37188051036E+01  0.63166428273E+02  0.63540289555E+02  0.41800000000E+01 0. -1.
         -5    1    3    3    0  502  0.69471785766E+02  0.18340315686E+03  0.12632808131E+03  0.23332231674E+03  0.41800000000E+01 0. -1.
        -11    1    1    2    0    0 -0.92355518315E+01 -0.13673671166E+03  0.13001994885E+03  0.18891111887E+03  0.00000000000E+00 0.  1.
         11    1    1    2    0    0 -0.56227640089E+02 -0.42947640091E+02  0.35682780470E+02  0.79242085544E+02  0.00000000000E+00 0. -1.
</event>
<event>
 7    1  0.8653652E-006  0.1273227E+03  0.7561462E-02  0.1231483E+00
          1   -1    0    0  501    0  0.00000000000E+00  0.00000000000E+00  0.59946532089E+03  0.59946532089E+03  0.00000000000E+00 0. -1.
         -1   -1    0    0    0  501 -0.00000000000E+00 -0.00000000000E+00 -0.36392291344E+02  0.36392291344E+02  0.00000000000E+00 0.  1.
         23    2    1    2    0    0 -0.37109090364E+02  0.78603133562E+02  0.19462090035E+03  0.24714424033E+03  0.12508974170E+03 0.  0.
          5    1    3    3  502    0 -0.70783915739E+02  0.29095634147E+02  0.52590270676E+02  0.92952286812E+02  0.41800000000E+01 0.  1.
         -5    1    3    3    0  502  0.33674825375E+02  0.49507499415E+02  0.14203062968E+03  0.15419195351E+03  0.41800000000E+01 0.  1.
        -11    1    1    2    0    0  0.62348522626E+02 -0.50744664734E+02  0.30038380803E+03  0.31095464524E+03  0.00000000000E+00 0.  1.
         11    1    1    2    0    0 -0.25239432262E+02 -0.27858468828E+02  0.68068321171E+02  0.77758726670E+02  0.00000000000E+00 0. -1.
</event>
<event>
 7    1  0.8653652E-006  0.8973736E+02  0.7561462E-02  0.1303489E+00
         -1   -1    0    0    0  501 -0.00000000000E+00  0.00000000000E+00  0.72576789160E+02  0.72576789160E+02  0.00000000000E+00 0.  1.
          1   -1    0    0  501    0  0.00000000000E+00 -0.00000000000E+00 -0.17974985286E+03  0.17974985286E+03  0.00000000000E+00 0. -1.
         23    2    1    2    0    0  0.22992576102E+02  0.26814631164E+02 -0.75924997392E+02  0.15052703785E+03  0.12508437510E+03 0.  0.
          5    1    3    3  502    0 -0.38964042436E+02 -0.24554666500E+02 -0.44032681309E+02  0.63855130359E+02  0.41800000000E+01 0.  1.
         -5    1    3    3    0  502  0.61956618538E+02  0.51369297663E+02 -0.31892316083E+02  0.86671907492E+02  0.41800000000E+01 0.  1.
        -11    1    1    2    0    0 -0.90662509670E+01  0.98686224799E+01  0.27824194077E+02  0.30883205667E+02  0.00000000000E+00 0.  1.
         11    1    1    2    0    0 -0.13926325135E+02 -0.36683253643E+02 -0.59072260386E+02  0.70916398504E+02  0.00000000000E+00 0. -1.
</event>
<event>
 7    1  0.8653652E-006  0.8489770E+02  0.7561462E-02  0.1315700E+00
         -3   -1    0    0    0  501 -0.00000000000E+00  0.00000000000E+00  0.21555308051E+03  0.21555308051E+03  0.00000000000E+00 0.  1.
          3   -1    0    0  501    0  0.00000000000E+00 -0.00000000000E+00 -0.57305131099E+02  0.57305131099E+02  0.00000000000E+00 0. -1.
         23    2    1    2    0    0 -0.12632446021E+02  0.90349524371E+01  0.69065636908E+02  0.14373025800E+03  0.12508843195E+03 0.  0.
          5    1    3    3  502    0 -0.56224974565E+02  0.33084803848E+02  0.67175183786E+02  0.93732756959E+02  0.41800000000E+01 0.  1.
         -5    1    3    3    0  502  0.43592528544E+02 -0.24049851411E+02  0.18904531219E+01  0.49997501045E+02  0.41800000000E+01 0.  1.
        -11    1    1    2    0    0 -0.74438224089E+01 -0.26701969189E+02  0.97306856137E+02  0.10117820863E+03  0.00000000000E+00 0.  1.
         11    1    1    2    0    0  0.20076268430E+02  0.17667016751E+02 -0.81245436317E+01  0.27949744975E+02  0.00000000000E+00 0. -1.
</event>
<event>
 6    1  0.8653652E-006  0.1252123E+03  0.7561462E-02  0.1234738E+00
         -1   -1    0    0    0  501 -0.00000000000E+00  0.00000000000E+00  0.49859896876E+02  0.49859896876E+02  0.00000000000E+00 0.  1.
          1   -1    0    0  501    0  0.00000000000E+00 -0.00000000000E+00 -0.46784774261E+03  0.46784774261E+03  0.00000000000E+00 0. -1.
          5    1    1    2  502    0 -0.32156636049E+02 -0.27978334469E+02 -0.10134361390E+03  0.11002198380E+03  0.41800000000E+01 0. -1.
         -5    1    1    2    0  502  0.75392040034E+02  0.74506190883E+02 -0.44013958754E+02  0.11484699885E+03  0.41800000000E+01 0.  1.
        -11    1    1    2    0    0  0.19713831153E+02 -0.30907176486E+02 -0.57922319432E+02  0.68548404690E+02  0.00000000000E+00 0.  1.
         11    1    1    2    0    0 -0.62949235138E+02 -0.15620679928E+02 -0.21470795365E+03  0.22429025214E+03  0.00000000000E+00 0. -1.
</event>
<event>
 7    1  0.8653652E-006  0.1102045E+03  0.7561462E-02  0.1260192E+00
          2   -1    0    0  501    0  0.00000000000E+00  0.00000000000E+00  0.36171065602E+03  0.36171065602E+03  0.00000000000E+00 0. -1.
         -2   -1    0    0    0  501 -0.00000000000E+00 -0.00000000000E+00 -0.53306711046E+02  0.53306711046E+02  0.00000000000E+00 0.  1.
         23    2    1    2    0    0 -0.37574002592E+02  0.39053540297E+02  0.66467366021E+02  0.15166102594E+03  0.12508465678E+03 0.  0.
          5    1    3    3  502    0 -0.16086628834E+01 -0.35423896255E+02  0.58408268063E+02  0.68457566421E+02  0.41800000000E+01 0. -1.
         -5    1    3    3    0  502 -0.35965339708E+02  0.74477436551E+02  0.80590979575E+01  0.83203459516E+02  0.41800000000E+01 0. -1.
        -11    1    1    2    0    0  0.63793912207E+02 -0.40612852313E+02  0.20058967639E+03  0.21437183883E+03  0.00000000000E+00 0. -1.
         11    1    1    2    0    0 -0.26219909616E+02  0.15593120166E+01  0.41346902564E+02  0.48984502303E+02  0.00000000000E+00 0.  1.
</event>
<event>
 6    1  0.8653652E-006  0.2068019E+03  0.7561462E-02  0.1144124E+00
          1   -1    0    0  501    0  0.00000000000E+00  0.00000000000E+00  0.28723624609E+03  0.28723624609E+03  0.00000000000E+00 0. -1.
         -1   -1    0    0    0  501 -0.00000000000E+00 -0.00000000000E+00 -0.24802228343E+03  0.24802228343E+03  0.00000000000E+00 0.  1.
          5    1    1    2  502    0 -0.18232778791E+02  0.90239029501E+01  0.91058713088E+01  0.22677176614E+02  0.41800000000E+01 0. -1.
         -5    1    1    2    0  502  0.48073355345E+02 -0.19618655141E+03 -0.13601707748E+03  0.24355354281E+03  0.41800000000E+01 0.  1.
        -11    1    1    2    0    0 -0.61922340467E+00  0.71555752618E+02  0.12285711960E+03  0.14217763891E+03  0.00000000000E+00 0.  1.
         11    1    1    2    0    0 -0.29221353150E+02  0.11560689584E+03  0.43268049230E+02  0.12685017119E+03  0.00000000000E+00 0. -1.
</event>
<event>
 6    1  0.8653652E-006  0.9971539E+02  0.7561462E-02  0.1280896E+00
         -2   -1    0    0    0  501 -0.00000000000E+00  0.00000000000E+00  0.11429685891E+04  0.11429685891E+04  0.00000000000E+00 0.  1.
          2   -1    0    0  501    0  0.00000000000E+00 -0.00000000000E+00 -0.11799197857E+03  0.11799197857E+03  0.00000000000E+00 0. -1.
          5    1    1    2  502    0 -0.47022316862E+01  0.41648912713E+01 -0.19622165652E+01  0.77961526397E+01  0.41800000000E+01 0. -1.
         -5    1    1    2    0  502 -0.79562229476E+02 -0.15603792821E+02  0.11095946086E+04  0.11125606926E+04  0.41800000000E+01 0.  1.
        -11    1    1    2    0    0  0.71135629106E+02 -0.22257428199E+02 -0.70102751130E+02  0.10232334315E+03  0.00000000000E+00 0. -1.
         11    1    1    2    0    0  0.13128832057E+02  0.33696329749E+02 -0.12553030391E+02  0.38280379331E+02  0.00000000000E+00 0.  1.
</event>
<event>
 7    1  0.8653652E-006  0.1418782E+03  0.7561462E-02  0.1210824E+00
          1   -1    0    0  501    0  0.00000000000E+00  0.00000000000E+00  0.20422918226E+03  0.20422918226E+03  0.00000000000E+00 0. -1.
         -1   -1    0    0    0  501 -0.00000000000E+00 -0.00000000000E+00 -0.10119964691E+03  0.10119964691E+03  0.00000000000E+00 0.  1.
         23    2    1    2    0    0  0.26447589012E+02  0.88737037509E+02  0.33599548124E+02  0.15921766363E+03  0.12509035929E+03 0.  0.
          5    1    3    3  502    0 -0.50318414319E+02  0.32377447855E+02  0.18007132396E+02  0.62625643041E+02  0.41800000000E+01 0.  1.
         -5    1    3    3    0  502  0.76766003331E+02  0.56359589654E+02  0.15592415728E+02  0.96592020590E+02  0.41800000000E+01 0.  1.
        -11    1    1    2    0    0  0.23911972141E+02 -0.71226484267E+02  0.44844661699E+02  0.87498789452E+02  0.00000000000E+00 0.  1.
         11    1    1    2    0    0 -0.50359561153E+02 -0.17510553242E+02  0.24585325527E+02  0.58712376086E+02  0.00000000000E+00 0. -1.
</event>
<event>
 7    1  0.8653652E-006  0.1181412E+03  0.7561462E-02  0.1246195E+00
         -3   -1    0    0    0  501 -0.00000000000E+00  0.00000000000E+00  0.14887796969E+03  0.14887796969E+03  0.00000000000E+00 0.  1.
          3   -1    0    0  501    0  0.00000000000E+00 -0.00000000000E+00 -0.11627901372E+03  0.11627901372E+03  0.00000000000E+00 0. -1.
         23    2    1    2    0    0 -0.16026587912E+02 -0.71639207707E+02  0.17569729990E+02  0.14609716278E+03  0.12508660184E+03 0.  0.
          5    1    3    3  502    0  0.29916641187E+02 -0.88161005783E+02 -0.22970141502E+01  0.93220797222E+02  0.41800000000E+01 0.  1.
         -5    1    3    3    0  502 -0.45943229099E+02  0.16521798077E+02  0.19866744141E+02  0.52876365557E+02  0.41800000000E+01 0.  1.
        -11    1    1    2    0    0  0.22269093558E+02  0.80345546317E+02  0.39565878144E+02  0.92286391490E+02  0.00000000000E+00 0.  1.
         11    1    1    2    0    0 -0.62425056458E+01 -0.87063386105E+01 -0.24536652163E+02  0.26773429144E+02  0.00000000000E+00 0. -1.
</event>
<event>
 7    1  0.8653652E-006  0.8962232E+02  0.7561462E-02  0.1303769E+00
         -1   -1    0    0    0  501 -0.00000000000E+00  0.00000000000E+00  0.93244884688E+02  0.93244884688E+02  0.00000000000E+00 0.  1.
          1   -1    0    0  501    0  0.00000000000E+00 -0.00000000000E+00 -0.14910399514E+03  0.14910399514E+03  0.00000000000E+00 0. -1.
         23    2    1    2    0    0  0.19777564273E+02  0.37768347190E+02 -0.48564819846E+02  0.14079697531E+03  0.12509055292E+03 0.  0.
          5    1    3    3  502    0 -0.47921030691E+02 -0.61419774152E+01 -0.32605137228E+02  0.58435575147E+02  0.41800000000E+01 0.  1.
         -5    1    3    3    0  502  0.67698594964E+02  0.43910324605E+02 -0.15959682618E+02  0.82361400160E+02  0.41800000000E+01 0.  1.
        -11    1    1    2    0    0 -0.23800254605E+02 -0.18168403715E+02 -0.47782882392E+02  0.56389244210E+02  0.00000000000E+00 0. -1.
         11    1    1    2    0    0  0.40226903325E+01 -0.19599943475E+02  0.40488591785E+02  0.45162660312E+02  0.00000000000E+00 0.  1.
</event>
<event>
 7    1  0.8653652E-006  0.2603670E+03  0.7561462E-02  0.1106923E+00
         -1   -1    0    0    0  501 -0.00000000000E+00  0.00000000000E+00  0.13324778784E+03  0.13324778784E+03  0.00000000000E+00 0.  1.
          1   -1    0    0  501    0  0.00000000000E+00 -0.00000000000E+00 -0.60129342056E+03  0.60129342056E+03  0.00000000000E+00 0. -1.
         23    2    1    2    0    0  0.11624527051E+03  0.21984172178E+03 -0.11856017482E+03  0.30256695789E+03  0.12508758292E+03 0.  0.
          5    1    3    3  502    0 -0.81926264078E+01  0.91217648451E+02 -0.76956428628E+01  0.92002575156E+02  0.41800000000E+01 0. -1.
         -5    1    3    3    0  502  0.12443789692E+03  0.12862407333E+03 -0.11086453196E+03  0.21056438273E+03  0.41800000000E+01 0. -1.
        -11    1    1    2    0    0 -0.18836451442E+02 -0.59672813480E+02 -0.12273537136E+03  0.13776657052E+03  0.00000000000E+00 0. -1.
         11    1    1    2    0    0 -0.97408819067E+02 -0.16016890830E+03 -0.22675008654E+03  0.29420767999E+03  0.00000000000E+00 0.  1.
</event>
<event>
 7    1  0.8653652E-006  0.1053599E+03  0.7561462E-02  0.1269412E+00
          2   -1    0    0  501    0  0.00000000000E+00  0.00000000000E+00  0.62143515923E+03  0.62143515923E+03  0.00000000000E+00 0. -1.
         -2   -1    0    0    0  501 -0.00000000000E+00 -0.00000000000E+00 -0.22812425614E+02  0.22812425614E+02  0.00000000000E+00 0.  1.
         23    2    1    2    0    0 -0.10296627882E+02 -0.28179461496E+02  0.22750993972E+03  0.26135891517E+03  0.12509039639E+03 0.  0.
          5    1    3    3  502    0 -0.44387413286E+02 -0.63785179230E+02  0.15694431852E+03  0.17517928834E+03  0.41800000000E+01 0. -1.
         -5    1    3    3    0  502  0.34090785404E+02  0.35605717734E+02  0.70565621208E+02  0.86179626835E+02  0.41800000000E+01 0. -1.
        -11    1    1    2    0    0 -0.81941883226E+01 -0.25429960016E+02  0.48892888417E+02  0.55716623430E+02  0.00000000000E+00 0.  1.
         11    1    1    2    0    0  0.18490816204E+02  0.53609421512E+02  0.32221990548E+03  0.32717204625E+03  0.00000000000E+00 0. -1.
</event>
<event>
 7    1  0.8653652E-006  0.1221701E+03  0.7561462E-02  0.1239559E+00
         -1   -1    0    0    0  501 -0.00000000000E+00  0.00000000000E+00  0.27865931985E+03  0.27865931985E+03  0.00000000000E+00 0.  1.
          1   -1    0    0  501    0  0.00000000000E+00 -0.00000000000E+00 -0.85762409772E+02  0.85762409772E+02  0.00000000000E+00 0. -1.
         23    2    1    2    0    0 -0.42053387106E+02  0.53530669893E+02  0.20205281835E+03  0.24719796774E+03  0.12508986316E+03 0.  0.
          5    1    3    3  502    0 -0.79573739366E+02  0.37194924719E+02  0.18044717878E+03  0.20073390135E+03  0.41800000000E+01 0.  1.
         -5    1    3    3    0  502  0.37520352260E+02  0.16335745173E+02  0.21605639570E+02  0.46464066388E+02  0.41800000000E+01 0.  1.
        -11    1    1    2    0    0  0.45794226989E+02  0.13803958007E+02  0.57013563689E+01  0.48168100924E+02  0.00000000000E+00 0. -1.
         11    1    1    2    0    0 -0.37408398827E+01 -0.67334627900E+02 -0.14857264644E+02  0.69055660956E+02  0.00000000000E+00 0.  1.
</event>
<event>
 7    1  0.8653652E-006  0.9617922E+02  0.7561462E-02  0.1288542E+00
         -1   -1    0    0    0  501 -0.00000000000E+00  0.00000000000E+00  0.36796646745E+02  0.36796646745E+02  0.00000000000E+00 0.  1.
          1   -1    0    0  501    0  0.00000000000E+00 -0.00000000000E+00 -0.40700528541E+03  0.40700528541E+03  0.00000000000E+00 0. -1.
         23    2    1    2    0    0 -0.55112910064E+02  0.12126753440E+02 -0.17884855603E+03  0.22542737648E+03  0.12508479153E+03 0.  0.
          5    1    3    3  502    0 -0.78355356191E+02  0.45549070885E+02 -0.15018848201E+03  0.17546604295E+03  0.41800000000E+01 0. -1.
         -5    1    3    3    0  502  0.23242446127E+02 -0.33422317445E+02 -0.28660074020E+02  0.49961333531E+02  0.41800000000E+01 0. -1.
        -11    1    1    2    0    0  0.47212801654E+02 -0.12072256829E+01 -0.19785493788E+03  0.20341357495E+03  0.00000000000E+00 0. -1.
         11    1    1    2    0    0  0.79001084105E+01 -0.10919527757E+02  0.64948552395E+01  0.14960980714E+02  0.00000000000E+00 0.  1.
</event>
<event>
 7    1  0.8653652E-006  0.4562213E+03  0.7561462E-02  0.1025883E+00
         -1   -1    0    0    0  501 -0.00000000000E+00  0.00000000000E+00  0.10144670304E+03  0.10144670304E+03  0.00000000000E+00 0.  1.
          1   -1    0    0  501    0  0.00000000000E+00 -0.00000000000E+00 -0.21323239847E+04  0.21323239847E+04  0.00000000000E+00 0. -1.
         23    2    1    2    0    0 -0.44997876747E+03  0.42173342286E+02 -0.97306283055E+03  0.10801657355E+04  0.12508901646E+03 0.  0.
          5    1    3    3  502    0 -0.37302499140E+03  0.31301256825E+02 -0.89402606457E+03  0.96924067673E+03  0.41800000000E+01 0. -1.
         -5    1    3    3    0  502 -0.76953776075E+02  0.10872085461E+02 -0.79036765978E+02  0.11092505880E+03  0.41800000000E+01 0. -1.
        -11    1    1    2    0    0  0.11969640594E+03 -0.50384685726E+02 -0.29892726251E+03  0.32591924525E+03  0.00000000000E+00 0. -1.
         11    1    1    2    0    0  0.33028236154E+03  0.82113434407E+01 -0.75888718861E+03  0.82768570698E+03  0.00000000000E+00 0.  1.
</event>
<event>
 7    1  0.8653652E-006  0.1156058E+03  0.7561462E-02  0.1250527E+00
          2   -1    0    0  501    0  0.00000000000E+00  0.00000000000E+00  0.63571785687E+02  0.63571785687E+02  0.00000000000E+00 0.  1.
         -2   -1    0    0    0  501 -0.00000000000E+00 -0.00000000000E+00 -0.29320523463E+03  0.29320523463E+03  0.00000000000E+00 0. -1.
         23    2    1    2    0    0  0.10172744665E+02  0.86025878017E+02 -0.12785389650E+03  0.19874672145E+03  0.12509877702E+03 0.  0.
          5    1    3    3  502    0  0.52572070254E+02  0.51277510804E+02 -0.17733225790E+02  0.75664690457E+02  0.41800000000E+01 0. -1.
         -5    1    3    3    0  502 -0.42399325589E+02  0.34748367213E+02 -0.11012067071E+03  0.12308203099E+03  0.41800000000E+01 0. -1.
        -11    1    1    2    0    0 -0.30301949865E+02 -0.72072219555E+02 -0.32715954722E+02  0.84752266581E+02  0.00000000000E+00 0.  1.
         11    1    1    2    0    0  0.20129205200E+02 -0.13953658461E+02 -0.69063597716E+02  0.73278032288E+02  0.00000000000E+00 0. -1.
</event>
<event>
 7    1  0.8653652E-006  0.6856143E+02  0.7561462E-02  0.1365054E+00
         -1   -1    0    0    0  501 -0.00000000000E+00  0.00000000000E+00  0.50481074190E+02  0.50481074190E+02  0.00000000000E+00 0.  1.
          1   -1    0    0  501    0  0.00000000000E+00 -0.00000000000E+00 -0.28201542178E+03  0.28201542178E+03  0.00000000000E+00 0. -1.
         23    2    1    2    0    0 -0.26059348737E+02 -0.43030950648E+02 -0.13836503962E+03  0.19319056701E+03  0.12508780365E+03 0.  0.
          5    1    3    3  502    0  0.48964962483E+01  0.13275241912E+02 -0.12693986114E+03  0.12779439921E+03  0.41800000000E+01 0. -1.
         -5    1    3    3    0  502 -0.30955844986E+02 -0.56306192561E+02 -0.11425178485E+02  0.65396167800E+02  0.41800000000E+01 0. -1.
        -11    1    1    2    0    0  0.25031748618E+02  0.13519894278E+02 -0.10402470981E+03  0.10784487114E+03  0.00000000000E+00 0. -1.
         11    1    1    2    0    0  0.10276001198E+01  0.29511056370E+02  0.10855401843E+02  0.31461057822E+02  0.00000000000E+00 0.  1.
</event>
<event>
 7    1  0.1018581E-005  0.3337726E+03  0.7561462E-02  0.1069480E+00
         -1   -1    0    0    0  501 -0.00000000000E+00  0.00000000000E+00  0.56011427279E+03  0.56011427279E+03  0.00000000000E+00 0.  1.
          1   -1    0    0  501    0  0.00000000000E+00 -0.00000000000E+00 -0.25098066251E+03  0.25098066251E+03  0.00000000000E+00 0. -1.
         23    2    1    2    0    0 -0.10012458734E+03 -0.30629677936E+03  0.32627522914E+03  0.47533713321E+03  0.12508882852E+03 0.  0.
          5    1    3    3  502    0 -0.12097838137E+03 -0.23209732428E+03  0.20913217796E+03  0.33505026034E+03  0.41800000000E+01 0. -1.
         -5    1    3    3    0  502  0.20853794029E+02 -0.74199455085E+02  0.11714305118E+03  0.14028687287E+03  0.41800000000E+01 0. -1.
        -11    1    1    2    0    0  0.88781021602E+02  0.16967976204E+03  0.23088457936E+02  0.19288952364E+03  0.00000000000E+00 0. -1.
         11    1    1    2    0    0  0.11343565738E+02  0.13661701732E+03 -0.40230076791E+02  0.14286827844E+03  0.00000000000E+00 0.  1.
</event>
<event>
 7    1  0.8653652E-006  0.1189135E+03  0.7561462E-02  0.1244900E+00
          1   -1    0    0  501    0  0.00000000000E+00  0.00000000000E+00  0.17471795964E+03  0.17471795964E+03  0.00000000000E+00 0. -1.
         -1   -1    0    0    0  501 -0.00000000000E+00 -0.00000000000E+00 -0.99107001247E+02  0.99107001247E+02  0.00000000000E+00 0.  1.
         23    2    1    2    0    0  0.47341843928E+02  0.54669766665E+02  0.18981817677E+02  0.14573467816E+03  0.12509297918E+03 0.  0.
          5    1    3    3  502    0 -0.12705808152E+02 -0.33723707085E+02  0.13304495940E+02  0.38642049539E+02  0.41800000000E+01 0. -1.
         -5    1    3    3    0  502  0.60047652080E+02  0.88393473750E+02  0.56773217369E+01  0.10709262862E+03  0.41800000000E+01 0. -1.
        -11    1    1    2    0    0 -0.20971485125E+02 -0.63438825417E+02  0.20538578556E+01  0.66846885422E+02  0.00000000000E+00 0.  1.
         11    1    1    2    0    0 -0.26370358803E+02  0.87690587514E+01  0.54575282860E+02  0.61243397309E+02  0.00000000000E+00 0. -1.
</event>
<event>
 7    1  0.8653652E-006  0.1159887E+03  0.7561462E-02  0.1249865E+00
          3   -1    0    0  501    0  0.00000000000E+00  0.00000000000E+00  0.34304267791E+02  0.34304267791E+02  0.00000000000E+00 0. -1.
         -3   -1    0    0    0  501 -0.00000000000E+00 -0.00000000000E+00 -0.48672113383E+03  0.48672113383E+03  0.00000000000E+00 0.  1.
         23    2    1    2    0    0 -0.19853686556E+02  0.41581128237E+02 -0.36270023730E+03  0.38642097427E+03  0.12508616280E+03 0.  0.
          5    1    3    3  502    0 -0.71399764079E+02  0.13494244919E+02 -0.23038002759E+03  0.24160391237E+03  0.41800000000E+01 0. -1.
         -5    1    3    3    0  502  0.51546077524E+02  0.28086883318E+02 -0.13232020970E+03  0.14481706190E+03  0.41800000000E+01 0. -1.
        -11    1    1    2    0    0  0.47680607661E+02 -0.52072435343E+02 -0.63556885838E+02  0.94997139993E+02  0.00000000000E+00 0.  1.
         11    1    1    2    0    0 -0.27826921105E+02  0.10491307106E+02 -0.26159742900E+02  0.39607287354E+02  0.00000000000E+00 0. -1.
</event>
<event>
 7    1  0.8653652E-006  0.1126105E+03  0.7561462E-02  0.1255811E+00
         -4   -1    0    0    0  501 -0.00000000000E+00  0.00000000000E+00  0.12657216926E+03  0.12657216926E+03  0.00000000000E+00 0.  1.
          4   -1    0    0  501    0  0.00000000000E+00 -0.00000000000E+00 -0.15302907427E+03  0.15302907427E+03  0.00000000000E+00 0. -1.
         23    2    1    2    0    0 -0.18364864805E+02  0.52781553728E+02  0.50034949877E+02  0.14585677033E+03  0.12509012979E+03 0.  0.
          5    1    3    3  502    0  0.29813411108E+01 -0.30218685086E+02 -0.18710199956E+02  0.35911019277E+02  0.41800000000E+01 0. -1.
         -5    1    3    3    0  502 -0.21346205916E+02  0.83000238813E+02  0.68745149833E+02  0.10994575106E+03  0.41800000000E+01 0. -1.
        -11    1    1    2    0    0 -0.37401809720E+02 -0.10696016332E+02 -0.35947878774E+02  0.52967444001E+02  0.00000000000E+00 0.  1.
         11    1    1    2    0    0  0.55766674525E+02 -0.42085537396E+02 -0.40543976118E+02  0.80777029191E+02  0.00000000000E+00 0. -1.
</event>
<event>
 7    1  0.8653652E-006  0.9265544E+02  0.7561462E-02  0.1296546E+00
          1   -1    0    0  501    0  0.00000000000E+00  0.00000000000E+00  0.26270452972E+03  0.26270452972E+03  0.00000000000E+00 0. -1.
         -1   -1    0    0    0  501 -0.00000000000E+00 -0.00000000000E+00 -0.51764014114E+02  0.51764014114E+02  0.00000000000E+00 0.  1.
         23    2    1    2    0    0 -0.99346833155E+01 -0.56131674639E+01  0.57806402546E+02  0.13827256415E+03  0.12509003253E+03 0.  0.
          5    1    3    3  502    0  0.46645048080E+02 -0.37118882977E+02  0.36237912638E+02  0.69887271346E+02  0.41800000000E+01 0. -1.
         -5    1    3    3    0  502 -0.56579731396E+02  0.31505715513E+02  0.21568489909E+02  0.68385292803E+02  0.41800000000E+01 0. -1.
        -11    1    1    2    0    0 -0.11084841296E+02 -0.22778242085E+02  0.13329492385E+03  0.13568072355E+03  0.00000000000E+00 0. -1.
         11    1    1    2    0    0  0.21019524612E+02  0.28391409549E+02  0.19839189210E+02  0.40515256134E+02  0.00000000000E+00 0.  1.
</event>
<event>
 7    1  0.8653652E-006  0.1092286E+03  0.7561462E-02  0.1262005E+00
          1   -1    0    0  501    0  0.00000000000E+00  0.00000000000E+00  0.25415300772E+03  0.25415300772E+03  0.00000000000E+00 0. -1.
         -1   -1    0    0    0  501 -0.00000000000E+00 -0.00000000000E+00 -0.98186007159E+02  0.98186007159E+02  0.00000000000E+00 0.  1.
         23    2    1    2    0    0  0.53126891418E+02 -0.50195628776E+02 -0.15037842776E+02  0.14564950765E+03  0.12508227142E+03 0.  0.
          5    1    3    3  502    0  0.91098102479E+02 -0.22696886173E+02  0.58420857275E+01  0.94157396326E+02  0.41800000000E+01 0. -1.
         -5    1    3    3    0  502 -0.37971211061E+02 -0.27498742603E+02 -0.20879928503E+02  0.51492111323E+02  0.41800000000E+01 0. -1.
        -11    1    1    2    0    0 -0.34057415066E+02  0.47053756671E+02  0.17713375284E+03  0.18641440377E+03  0.00000000000E+00 0. -1.
         11    1    1    2    0    0 -0.19069476352E+02  0.31418721048E+01 -0.61289095026E+01  0.20275103461E+02  0.00000000000E+00 0.  1.
</event>
<event>
 7    1  0.8653652E-006  0.1111961E+03  0.7561462E-02  0.1258371E+00
          4   -1    0    0  501    0  0.00000000000E+00  0.00000000000E+00  0.34815774888E+02  0.34815774888E+02  0.00000000000E+00 0. -1.
         -4   -1    0    0    0  501 -0.00000000000E+00 -0.00000000000E+00 -0.45258130555E+03  0.45258130555E+03  0.00000000000E+00 0.  1.
         23    2    1    2    0    0 -0.22043819937E+02  0.53051854864E+02 -0.29415078892E+03  0.32476477541E+03  0.12508814260E+03 0.  0.
          5    1    3    3  502    0 -0.66123813652E+02  0.36784343819E+01 -0.19036667262E+03  0.20160067474E+03  0.41800000000E+01 0.  1.
         -5    1    3    3    0  502  0.44079993716E+02  0.49373420482E+02 -0.10378411631E+03  0.12316410067E+03  0.41800000000E+01 0.  1.
        -11    1    1    2    0    0 -0.16117535705E+02  0.77856068373E+01  0.19250628626E+01  0.18002680301E+02  0.00000000000E+00 0. -1.
         11    1    1    2    0    0  0.38161355641E+02 -0.60837461701E+02 -0.12553980460E+03  0.14462962473E+03  0.00000000000E+00 0.  1.
</event>
<event>
 6    1  0.8653652E-006  0.1203655E+03  0.7561462E-02  0.1242495E+00
         -1   -1    0    0    0  501 -0.00000000000E+00  0.00000000000E+00  0.10126014219E+03  0.10126014219E+03  0.00000000000E+00 0.  1.
          1   -1    0    0  501    0  0.00000000000E+00 -0.00000000000E+00 -0.33782926397E+03  0.33782926397E+03  0.00000000000E+00 0. -1.
          5    1    1    2  502    0 -0.35665288971E+02  0.26437955434E+02  0.15253948047E+02  0.47128904676E+02  0.41800000000E+01 0. -1.
         -5    1    1    2    0  502  0.71608758552E+02 -0.78431891476E+02  0.10860341183E+02  0.10684004545E+03  0.41800000000E+01 0.  1.
        -11    1    1    2    0    0 -0.35047185046E+02 -0.27000658108E+01 -0.30369126398E+02  0.46452980240E+02  0.00000000000E+00 0.  1.
         11    1    1    2    0    0 -0.89628453574E+00  0.54694001853E+02 -0.23231428461E+03  0.23866747579E+03  0.00000000000E+00 0. -1.
</event>
<event>
 7    1  0.8653652E-006  0.1413827E+03  0.7561462E-02  0.1211480E+00
          2   -1    0    0  501    0  0.00000000000E+00  0.00000000000E+00  0.10262125394E+04  0.10262125394E+04  0.00000000000E+00 0.  1.
         -2   -1    0    0    0  501 -0.00000000000E+00 -0.00000000000E+00 -0.24634949173E+02  0.24634949173E+02  0.00000000000E+00 0. -1.
         23    2    1    2    0    0 -0.10389405796E+03  0.39957174035E+02  0.41875545164E+03  0.45099225264E+03  0.12508929861E+03 0.  0.
          5    1    3    3  502    0 -0.43926867335E+02 -0.30068243815E+02  0.58941510781E+02  0.79531396650E+02  0.41800000000E+01 0.  1.
         -5    1    3    3    0  502 -0.59967190627E+02  0.70025417850E+02  0.35981394086E+03  0.37146085599E+03  0.41800000000E+01 0.  1.
        -11    1    1    2    0    0  0.49411932592E+02  0.22420359718E+02  0.15862571025E+03  0.16764941862E+03  0.00000000000E+00 0. -1.
         11    1    1    2    0    0  0.54482125369E+02 -0.62377533754E+02  0.42419642837E+03  0.43220581735E+03  0.00000000000E+00 0.  1.
</event>
<event>
 7    1  0.8653652E-006  0.1493615E+03  0.7561462E-02  0.1201260E+00
         -1   -1    0    0    0  501 -0.00000000000E+00  0.00000000000E+00  0.33760025333E+02  0.33760025333E+02  0.00000000000E+00 0.  1.
          1   -1    0    0  501    0  0.00000000000E+00 -0.00000000000E+00 -0.96217930814E+03  0.96217930814E+03  0.00000000000E+00 0. -1.
         23    2    1    2    0    0  0.12819734910E+03  0.75637311655E+01 -0.31915478225E+03  0.36605856020E+03  0.12508926459E+03 0.  0.
          5    1    3    3  502    0  0.13364917974E+03  0.12293555206E+02 -0.16983261935E+03  0.21650363909E+03  0.41800000000E+01 0.  1.
         -5    1    3    3    0  502 -0.54518306459E+01 -0.47298240408E+01 -0.14932216290E+03  0.14955492111E+03  0.41800000000E+01 0.  1.
        -11    1    1    2    0    0 -0.31783337186E+02 -0.42923873791E+02 -0.27723019150E+03  0.28232821067E+03  0.00000000000E+00 0. -1.
         11    1    1    2    0    0 -0.96414011911E+02  0.35360142625E+02 -0.33203430906E+03  0.34755256261E+03  0.00000000000E+00 0.  1.
</event>
<event>
 7    1  0.8653652E-006  0.1166561E+03  0.7561462E-02  0.1248718E+00
          2   -1    0    0  501    0  0.00000000000E+00  0.00000000000E+00  0.11396011298E+03  0.11396011298E+03  0.00000000000E+00 0. -1.
         -2   -1    0    0    0  501 -0.00000000000E+00 -0.00000000000E+00 -0.16370259936E+03  0.16370259936E+03  0.00000000000E+00 0.  1.
         23    2    1    2    0    0 -0.81493637786E+02  0.42084545185E+01 -0.32797644793E+02  0.15290691710E+03  0.12508363484E+03 0.  0.
          5    1    3    3  502    0 -0.70180204534E+02  0.51154635561E+02 -0.51384651502E+02  0.10099461697E+03  0.41800000000E+01 0.  1.
         -5    1    3    3    0  502 -0.11313433253E+02 -0.46946181043E+02  0.18587006708E+02  0.51912300131E+02  0.41800000000E+01 0.  1.
        -11    1    1    2    0    0  0.34003782809E+02  0.24944160861E+02 -0.45586859822E+02  0.62101772879E+02  0.00000000000E+00 0.  1.
         11    1    1    2    0    0  0.47489854978E+02 -0.29152615379E+02  0.28642018239E+02  0.62654022361E+02  0.00000000000E+00 0. -1.
</event>
<event>
 7    1  0.8653652E-006  0.7394658E+02  0.7561462E-02  0.1347165E+00
          3   -1    0    0  501    0  0.00000000000E+00  0.00000000000E+00  0.71309078332E+03  0.71309078332E+03  0.00000000000E+00 0. -1.
         -3   -1    0    0    0  501 -0.00000000000E+00 -0.00000000000E+00 -0.21440902108E+02  0.21440902108E+02  0.00000000000E+00 0.  1.
         23    2    1    2    0    0  0.23850128995E+02 -0.39355809985E+02  0.27769852041E+03  0.30801788352E+03  0.12506334354E+03 0.  0.
          5    1    3    3  502    0 -0.86384117672E+01 -0.46196899025E+01  0.25487641412E+03  0.25509884862E+03  0.41800000000E+01 0. -1.
         -5    1    3    3    0  502  0.32488540762E+02 -0.34736120082E+02  0.22822106287E+02  0.52919034899E+02  0.41800000000E+01 0. -1.
        -11    1    1    2    0    0  0.21181345929E+02 -0.93598494898E+01  0.36142907581E+02  0.42925120457E+02  0.00000000000E+00 0.  1.
         11    1    1    2    0    0 -0.45031474924E+02  0.48715659474E+02  0.37780845322E+03  0.38358868145E+03  0.00000000000E+00 0. -1.
</event>
<event>
 7    1  0.8653652E-006  0.1133307E+03  0.7561462E-02  0.1254523E+00
          1   -1    0    0  501    0  0.00000000000E+00  0.00000000000E+00  0.89038558339E+02  0.89038558339E+02  0.00000000000E+00 0. -1.
         -1   -1    0    0    0  501 -0.00000000000E+00 -0.00000000000E+00 -0.24051684772E+03  0.24051684772E+03  0.00000000000E+00 0.  1.
         23    2    1    2    0    0 -0.13623863357E+02  0.86603906546E+02 -0.13164226440E+03  0.20165080439E+03  0.12509002699E+03 0.  0.
          5    1    3    3  502    0 -0.28840111967E+02  0.30313567994E+02 -0.13665299052E+03  0.14297614025E+03  0.41800000000E+01 0. -1.
         -5    1    3    3    0  502  0.15216248610E+02  0.56290338552E+02  0.50107261161E+01  0.58674664143E+02  0.41800000000E+01 0. -1.
        -11    1    1    2    0    0  0.50626248361E+02 -0.67885225127E+02 -0.16728348756E+02  0.86320672297E+02  0.00000000000E+00 0. -1.
         11    1    1    2    0    0 -0.37002385004E+02 -0.18718681419E+02 -0.31076762191E+01  0.41583929366E+02  0.00000000000E+00 0.  1.
</event>
<event>
 7    1  0.8653652E-006  0.1101025E+03  0.7561462E-02  0.1260380E+00
          1   -1    0    0  501    0  0.00000000000E+00  0.00000000000E+00  0.64763463294E+02  0.64763463294E+02  0.00000000000E+00 0. -1.
         -1   -1    0    0    0  501 -0.00000000000E+00 -0.00000000000E+00 -0.20956126858E+03  0.20956126858E+03  0.00000000000E+00 0.  1.
         23    2    1    2    0    0 -0.40464004412E+02  0.11630050790E+01 -0.90265309436E+02  0.15947986935E+03  0.12508922578E+03 0.  0.
          5    1    3    3  502    0 -0.82944839629E+02 -0.16961079207E+02 -0.52815564002E+02  0.99872322641E+02  0.41800000000E+01 0.  1.
         -5    1    3    3    0  502  0.42480835216E+02  0.18124084286E+02 -0.37449745434E+02  0.59607546712E+02  0.41800000000E+01 0.  1.
        -11    1    1    2    0    0 -0.64304711244E+01  0.31350441334E+02  0.49878432962E+01  0.32389500019E+02  0.00000000000E+00 0. -1.
         11    1    1    2    0    0  0.46894475537E+02 -0.32513446413E+02 -0.59520339147E+02  0.82455362504E+02  0.00000000000E+00 0.  1.
</event>
<event>
 7    1  0.8765270E-006  0.1216957E+03  0.7561462E-02  0.1240326E+00
          2   -1    0    0  501    0  0.00000000000E+00  0.00000000000E+00  0.11091279817E+04  0.11091279817E+04  0.00000000000E+00 0. -1.
         -2   -1    0    0    0  501 -0.00000000000E+00 -0.00000000000E+00 -0.16450032904E+02  0.16450032904E+02  0.00000000000E+00 0.  1.
         23    2    1    2    0    0 -0.21442616848E+02 -0.78606223408E+02  0.59111904527E+03  0.60967861753E+03  0.12509023470E+03 0.  0.
          5    1    3    3  502    0  0.41250473916E+02 -0.35410935641E+02  0.11241847767E+03  0.12494367724E+03  0.41800000000E+01 0. -1.
         -5    1    3    3    0  502 -0.62693090764E+02 -0.43195287767E+02  0.47870056760E+03  0.48473494028E+03  0.41800000000E+01 0. -1.
        -11    1    1    2    0    0 -0.18736094808E+02  0.68737631574E+02  0.39898217426E+03  0.40529332417E+03  0.00000000000E+00 0. -1.
         11    1    1    2    0    0  0.40178711656E+02  0.98685918337E+01  0.10257672926E+03  0.11060607289E+03  0.00000000000E+00 0.  1.
</event>
<event>
 7    1  0.8653652E-006  0.1065628E+03  0.7561462E-02  0.1267071E+00
         -3   -1    0    0    0  501 -0.00000000000E+00  0.00000000000E+00  0.77821131393E+03  0.77821131393E+03  0.00000000000E+00 0.  1.
          3   -1    0    0  501    0  0.00000000000E+00 -0.00000000000E+00 -0.18256069096E+02  0.18256069096E+02  0.00000000000E+00 0. -1.
         23    2    1    2    0    0 -0.32572078217E+02  0.26486174690E+02  0.52280218468E+03  0.53919572072E+03  0.12508974062E+03 0.  0.
          5    1    3    3  502    0 -0.69464172643E+02  0.32958414231E+02  0.45634688048E+03  0.46279744606E+03  0.41800000000E+01 0. -1.
         -5    1    3    3    0  502  0.36892094426E+02 -0.64722395412E+01  0.66455304201E+02  0.76398274668E+02  0.41800000000E+01 0. -1.
        -11    1    1    2    0    0  0.21847366692E+02 -0.59680518543E+02  0.17202984109E+03  0.18339394197E+03  0.00000000000E+00 0.  1.
         11    1    1    2    0    0  0.10724711525E+02  0.33194343853E+02  0.65123219061E+02  0.73877720335E+02  0.00000000000E+00 0. -1.
</event>
<event>
 7    1  0.8653652E-006  0.1076379E+03  0.7561462E-02  0.1265008E+00
         -2   -1    0    0    0  501 -0.00000000000E+00  0.00000000000E+00  0.11755912673E+03  0.11755912673E+03  0.00000000000E+00 0.  1.
          2   -1    0    0  501    0  0.00000000000E+00 -0.00000000000E+00 -0.12266407848E+03  0.12266407848E+03  0.00000000000E+00 0. -1.
         23    2    1    2    0    0  0.53109208830E+02 -0.65275858318E+01 -0.91143125020E+01  0.13635808041E+03  0.12508900016E+03 0.  0.
          5    1    3    3  502    0 -0.31183239576E+02 -0.31625431383E+02  0.11204160238E+02  0.45995303535E+02  0.41800000000E+01 0.  1.
         -5    1    3    3    0  502  0.84292448406E+02  0.25097845551E+02 -0.20318472740E+02  0.90362776872E+02  0.41800000000E+01 0.  1.
        -11    1    1    2    0    0 -0.31201949508E+01 -0.23895455353E+02 -0.28178729178E+02  0.37077879944E+02  0.00000000000E+00 0. -1.
         11    1    1    2    0    0 -0.49989013879E+02  0.30423041184E+02  0.32188089927E+02  0.66787244865E+02  0.00000000000E+00 0.  1.
</event>
<event>
 7    1  0.8653652E-006  0.1596424E+03  0.7561462E-02  0.1189101E+00
         -1   -1    0    0    0  501 -0.00000000000E+00  0.00000000000E+00  0.71808448340E+03  0.71808448340E+03  0.00000000000E+00 0.  1.
          1   -1    0    0  501    0  0.00000000000E+00 -0.00000000000E+00 -0.40643952326E+02  0.40643952326E+02  0.00000000000E+00 0. -1.
         23    2    1    2    0    0 -0.12728307442E+03 -0.14283939327E+01  0.43699484227E+03  0.47206602442E+03  0.12521508657E+03 0.  0.
          5    1    3    3  502    0 -0.42332275528E+01  0.37782949450E+02  0.43626863343E+02  0.58019368230E+02  0.41800000000E+01 0.  1.
         -5    1    3    3    0  502 -0.12304984686E+03 -0.39211343382E+02  0.39336797892E+03  0.41404665619E+03  0.41800000000E+01 0.  1.
        -11    1    1    2    0    0  0.58976006873E+02 -0.40619503973E+02  0.80576896695E+02  0.10779958150E+03  0.00000000000E+00 0.  1.
         11    1    1    2    0    0  0.68307067545E+02  0.42047897906E+02  0.15986879212E+03  0.17886282981E+03  0.00000000000E+00 0. -1.
</event>
<event>
 7    1  0.8653652E-006  0.1348955E+03  0.7561462E-02  0.1220367E+00
         -2   -1    0    0    0  501 -0.00000000000E+00  0.00000000000E+00  0.32205328299E+03  0.32205328299E+03  0.00000000000E+00 0.  1.
          2   -1    0    0  501    0  0.00000000000E+00 -0.00000000000E+00 -0.85045816501E+02  0.85045816501E+02  0.00000000000E+00 0. -1.
         23    2    1    2    0    0  0.11129130110E+03  0.47101684658E+02  0.16687849484E+03  0.24104344897E+03  0.12509672198E+03 0.  0.
          5    1    3    3  502    0  0.94598664369E+02  0.61002430147E+01  0.17184428663E+03  0.19630092081E+03  0.41800000000E+01 0. -1.
         -5    1    3    3    0  502  0.16692636736E+02  0.41001441643E+02 -0.49657917828E+01  0.44742528158E+02  0.41800000000E+01 0. -1.
        -11    1    1    2    0    0 -0.91736700650E+02 -0.57522642461E+02  0.86432279529E+02  0.13854607748E+03  0.00000000000E+00 0.  1.
         11    1    1    2    0    0 -0.19554600455E+02  0.10420957804E+02 -0.16303307886E+02  0.27509573034E+02  0.00000000000E+00 0. -1.
</event>
<event>
 7    1  0.8653652E-006  0.2018445E+03  0.7561462E-02  0.1148192E+00
          2   -1    0    0  501    0  0.00000000000E+00  0.00000000000E+00  0.26090325771E+03  0.26090325771E+03  0.00000000000E+00 0. -1.
         -2   -1    0    0    0  501 -0.00000000000E+00 -0.00000000000E+00 -0.19729628428E+03  0.19729628428E+03  0.00000000000E+00 0.  1.
         23    2    1    2    0    0  0.15785098840E+03 -0.99492619101E+02  0.19774209188E+02  0.22550973090E+03  0.12509158079E+03 0.  0.
          5    1    3    3  502    0  0.11237227147E+03 -0.90510049726E+02  0.67053009736E+02  0.15916398780E+03  0.41800000000E+01 0. -1.
         -5    1    3    3    0  502  0.45478716926E+02 -0.89825693750E+01 -0.47278800548E+02  0.66345743097E+02  0.41800000000E+01 0. -1.
        -11    1    1    2    0    0 -0.16005358788E+03  0.56483710486E+02 -0.20799762970E+01  0.16974064582E+03  0.00000000000E+00 0.  1.
         11    1    1    2    0    0  0.22025994770E+01  0.43008908615E+02  0.45912740532E+02  0.62949165268E+02  0.00000000000E+00 0. -1.
</event>
<event>
 7    1  0.8653652E-006  0.1151188E+03  0.7561462E-02  0.1251374E+00
         -1   -1    0    0    0  501 -0.00000000000E+00  0.00000000000E+00  0.56775139428E+03  0.56775139428E+03  0.00000000000E+00 0.  1.
          1   -1    0    0  501    0  0.00000000000E+00 -0.00000000000E+00 -0.46240281883E+02  0.46240281883E+02  0.00000000000E+00 0. -1.
         23    2    1    2    0    0  0.47994646877E+02  0.86876551442E+02  0.40194688991E+03  0.43250392625E+03  0.12508925851E+03 0.  0.
          5    1    3    3  502    0  0.33321706738E+02  0.48662034635E+02  0.47953569148E+02  0.76127176152E+02  0.41800000000E+01 0. -1.
         -5    1    3    3    0  502  0.14672940139E+02  0.38214516806E+02  0.35399332076E+03  0.35637675010E+03  0.41800000000E+01 0. -1.
        -11    1    1    2    0    0 -0.44228581090E+02 -0.12404739491E+01  0.15998021249E+02  0.47049366040E+02  0.00000000000E+00 0.  1.
         11    1    1    2    0    0 -0.37660657868E+01 -0.85636077493E+02  0.10356620124E+03  0.13443838388E+03  0.00000000000E+00 0. -1.
</event>
<event>
 6    1  0.8653652E-006  0.1358903E+03  0.7561462E-02  0.1218968E+00
          2   -1    0    0  501    0  0.00000000000E+00  0.00000000000E+00  0.71808444961E+03  0.71808444961E+03  0.00000000000E+00 0. -1.
         -2   -1    0    0    0  501 -0.00000000000E+00 -0.00000000000E+00 -0.32745914132E+02  0.32745914132E+02  0.00000000000E+00 0.  1.
          5    1    1    2  502    0  0.21230343112E+02 -0.11262552027E+03  0.44789201781E+03  0.46234182949E+03  0.41800000000E+01 0. -1.
         -5    1    1    2    0  502  0.15791063232E+02  0.27023394225E+02  0.30184884250E+02  0.43683190710E+02  0.41800000000E+01 0.  1.
        -11    1    1    2    0    0  0.24314128541E+02  0.47363225048E+02  0.56609431898E+02  0.77711515964E+02  0.00000000000E+00 0.  1.
         11    1    1    2    0    0 -0.61335534886E+02  0.38238900995E+02  0.15065220152E+03  0.16709382757E+03  0.00000000000E+00 0. -1.
</event>
<event>
 7    1  0.8653652E-006  0.1378273E+03  0.7561462E-02  0.1216283E+00
         -1   -1    0    0    0  501 -0.00000000000E+00  0.00000000000E+00  0.49598202986E+02  0.49598202986E+02  0.00000000000E+00 0.  1.
          1   -1    0    0  501    0  0.00000000000E+00 -0.00000000000E+00 -0.58488157633E+03  0.58488157633E+03  0.00000000000E+00 0. -1.
         23    2    1    2    0    0 -0.93435374304E+02  0.87865740639E+02 -0.23717040257E+03  0.29723459095E+03  0.12509214463E+03 0.  0.
          5    1    3    3  502    0 -0.75447594364E+02  0.76286057151E+02 -0.68947476016E+02  0.12760536376E+03  0.41800000000E+01 0.  1.
         -5    1    3    3    0  502 -0.17987779940E+02  0.11579683488E+02 -0.16822292656E+03  0.16962922719E+03  0.41800000000E+01 0.  1.
        -11    1    1    2    0    0  0.45316888003E+02 -0.87299294466E+02 -0.13401732970E+03  0.16623908028E+03  0.00000000000E+00 0.  1.
         11    1    1    2    0    0  0.48118486301E+02 -0.56644617337E+00 -0.16409564107E+03  0.17100610809E+03  0.00000000000E+00 0. -1.
</event>
<event>
 7    1  0.8653652E-006  0.1021927E+03  0.7561462E-02  0.1275751E+00
         -1   -1    0    0    0  501 -0.00000000000E+00  0.00000000000E+00  0.39291171403E+02  0.39291171403E+02  0.00000000000E+00 0.  1.
          1   -1    0    0  501    0  0.00000000000E+00 -0.00000000000E+00 -0.31802953448E+03  0.31802953448E+03  0.00000000000E+00 0. -1.
         23    2    1    2    0    0 -0.29287897723E+02 -0.61812120589E+01 -0.13858158132E+03  0.18906816614E+03  0.12508368571E+03 0.  0.
          5    1    3    3  502    0 -0.33176973705E+02 -0.63025631408E+02 -0.72593369392E+02  0.10178512405E+03  0.41800000000E+01 0.  1.
         -5    1    3    3    0  502  0.38890759827E+01  0.56844419349E+02 -0.65988211925E+02  0.87283042088E+02  0.41800000000E+01 0.  1.
        -11    1    1    2    0    0  0.89714574064E+01  0.37510143290E+02 -0.22143300270E+02  0.44472729222E+02  0.00000000000E+00 0.  1.
         11    1    1    2    0    0  0.20316440316E+02 -0.31328931231E+02 -0.11801348149E+03  0.12377981052E+03  0.00000000000E+00 0. -1.
</event>
<event>
 7    1  0.8653652E-006  0.1540625E+03  0.7561462E-02  0.1195568E+00
         -2   -1    0    0    0  501 -0.00000000000E+00  0.00000000000E+00  0.32790763383E+02  0.32790763383E+02  0.00000000000E+00 0.  1.
          2   -1    0    0  501    0  0.00000000000E+00 -0.00000000000E+00 -0.85144276420E+03  0.85144276420E+03  0.00000000000E+00 0. -1.
         23    2    1    2    0    0  0.22133050824E+02 -0.11521361284E+03 -0.30631906268E+03  0.35106110559E+03  0.12509389743E+03 0.  0.
          5    1    3    3  502    0 -0.11135571662E+02 -0.12620580550E+03 -0.18174915852E+03  0.22159001630E+03  0.41800000000E+01 0. -1.
         -5    1    3    3    0  502  0.33268622486E+02  0.10992192658E+02 -0.12456990416E+03  0.12947108930E+03  0.41800000000E+01 0. -1.
        -11    1    1    2    0    0 -0.18489542358E+02  0.12976380719E+03 -0.47919107244E+03  0.49679431633E+03  0.00000000000E+00 0.  1.
         11    1    1    2    0    0 -0.36435084662E+01 -0.14550194350E+02 -0.33141865697E+02  0.36378105660E+02  0.00000000000E+00 0. -1.
</event>
<event>
 7    1  0.8653652E-006  0.8325876E+02  0.7561462E-02  0.1320050E+00
         -1   -1    0    0    0  501 -0.00000000000E+00  0.00000000000E+00  0.36887139771E+03  0.36887139771E+03  0.00000000000E+00 0.  1.
          1   -1    0    0  501    0  0.00000000000E+00 -0.00000000000E+00 -0.54461992470E+02  0.54461992470E+02  0.00000000000E+00 0. -1.
         23    2    1    2    0    0 -0.76531759417E+02  0.18416195655E+02  0.23963937759E+03  0.28153774632E+03  0.12506080461E+03 0.  0.
          5    1    3    3  502    0 -0.45411753765E+02 -0.51050766230E+01  0.79769143275E+01  0.46576740435E+02  0.41800000000E+01 0.  1.
         -5    1    3    3    0  502 -0.31120005652E+02  0.23521272278E+02  0.23166246326E+03  0.23496100589E+03  0.41800000000E+01 0.  1.
        -11    1    1    2    0    0  0.26246674371E+02  0.36197622593E+01  0.82226844909E+02  0.86390072450E+02  0.00000000000E+00 0.  1.
         11    1    1    2    0    0  0.50285085046E+02 -0.22035957915E+02 -0.74568172622E+01  0.55405571408E+02  0.00000000000E+00 0. -1.
</event>
<event>
 7    1  0.8653652E-006  0.3785618E+03  0.7561462E-02  0.1051467E+00
          2   -1    0    0  501    0  0.00000000000E+00  0.00000000000E+00  0.11957889583E+04  0.11957889583E+04  0.00000000000E+00 0. -1.
         -2   -1    0    0    0  501 -0.00000000000E+00 -0.00000000000E+00 -0.12999745481E+03  0.12999745481E+03  0.00000000000E+00 0.  1.
         23    2    1    2    0    0 -0.36197412903E+03  0.76525167405E+02  0.40359113947E+03  0.56161861208E+03  0.12509311028E+03 0.  0.
          5    1    3    3  502    0 -0.22733448773E+03 -0.73356550894E+01  0.19565460972E+03  0.30005496139E+03  0.41800000000E+01 0.  1.
         -5    1    3    3    0  502 -0.13463964130E+03  0.83860822494E+02  0.20793652975E+03  0.26156365069E+03  0.41800000000E+01 0.  1.
        -11    1    1    2    0    0  0.18556682043E+03 -0.25445996429E+02  0.24551031398E+03  0.30880067657E+03  0.00000000000E+00 0.  1.
         11    1    1    2    0    0  0.17640730860E+03 -0.51079170976E+02  0.41669005000E+03  0.45536712442E+03  0.00000000000E+00 0. -1.
</event>
<event>
 7    1  0.8653652E-006  0.1781919E+03  0.7561462E-02  0.1169565E+00
         -2   -1    0    0    0  501 -0.00000000000E+00  0.00000000000E+00  0.18153857525E+03  0.18153857525E+03  0.00000000000E+00 0.  1.
          2   -1    0    0  501    0  0.00000000000E+00 -0.00000000000E+00 -0.18977203130E+03  0.18977203130E+03  0.00000000000E+00 0. -1.
         23    2    1    2    0    0 -0.12969745992E+03 -0.56826446618E+02  0.46152117142E+02  0.19449529414E+03  0.12509086849E+03 0.  0.
          5    1    3    3  502    0 -0.91379679839E+01  0.35361999935E+02  0.13764647709E+02  0.39254444650E+02  0.41800000000E+01 0.  1.
         -5    1    3    3    0  502 -0.12055949193E+03 -0.92188446553E+02  0.32387469433E+02  0.15524084948E+03  0.41800000000E+01 0.  1.
        -11    1    1    2    0    0  0.14201337451E+03  0.61320380974E+02 -0.46537154234E+02  0.16153542765E+03  0.00000000000E+00 0.  1.
         11    1    1    2    0    0 -0.12315914594E+02 -0.44939343557E+01 -0.78484189500E+01  0.15279884761E+02  0.00000000000E+00 0. -1.
</event>
<event>
 7    1  0.8653652E-006  0.1263438E+03  0.7561462E-02  0.1232984E+00
          1   -1    0    0  501    0  0.00000000000E+00  0.00000000000E+00  0.31198682506E+02  0.31198682506E+02  0.00000000000E+00 0. -1.
         -1   -1    0    0    0  501 -0.00000000000E+00 -0.00000000000E+00 -0.75550638604E+03  0.75550638604E+03  0.00000000000E+00 0.  1.
         23    2    1    2    0    0 -0.65877541222E+02  0.44665952135E+02 -0.24743836841E+03  0.28845766446E+03  0.12508868976E+03 0.  0.
          5    1    3    3  502    0 -0.82457866907E+02  0.32592876969E+02 -0.79318881543E+02  0.11904013110E+03  0.41800000000E+01 0. -1.
         -5    1    3    3    0  502  0.16580325685E+02  0.12073075166E+02 -0.16811948687E+03  0.16941753336E+03  0.41800000000E+01 0. -1.
        -11    1    1    2    0    0  0.98854509125E+02 -0.17773585743E+02 -0.30151691809E+03  0.31780586247E+03  0.00000000000E+00 0. -1.
         11    1    1    2    0    0 -0.32976967903E+02 -0.26892366392E+02 -0.17535241703E+03  0.18044154161E+03  0.00000000000E+00 0.  1.
</event>
<event>
 7    1  0.8653652E-006  0.2162675E+03  0.7561462E-02  0.1136697E+00
          2   -1    0    0  501    0  0.00000000000E+00  0.00000000000E+00  0.21636287706E+03  0.21636287706E+03  0.00000000000E+00 0. -1.
         -2   -1    0    0    0  501 -0.00000000000E+00 -0.00000000000E+00 -0.24425617040E+03  0.24425617040E+03  0.00000000000E+00 0.  1.
         23    2    1    2    0    0 -0.85792681260E+02 -0.17413790035E+03 -0.72901376106E+02  0.24217136180E+03  0.12509182764E+03 0.  0.
          5    1    3    3  502    0 -0.11025363790E+03 -0.17081971501E+03 -0.52887200262E+02  0.21011846196E+03  0.41800000000E+01 0. -1.
         -5    1    3    3    0  502  0.24460956636E+02 -0.33181853404E+01 -0.20014175845E+02  0.32052899841E+02  0.41800000000E+01 0. -1.
        -11    1    1    2    0    0  0.22714046381E+02  0.11651669994E+03 -0.61464855120E+01  0.11886903950E+03  0.00000000000E+00 0.  1.
         11    1    1    2    0    0  0.63078634879E+02  0.57621200410E+02  0.51154568278E+02  0.99578646158E+02  0.00000000000E+00 0. -1.
</event>
<event>
 7    1  0.8653652E-006  0.1961687E+03  0.7561462E-02  0.1153012E+00
          2   -1    0    0  501    0  0.00000000000E+00  0.00000000000E+00  0.20297906089E+03  0.20297906089E+03  0.00000000000E+00 0. -1.
         -2   -1    0    0    0  501 -0.00000000000E+00 -0.00000000000E+00 -0.22257063791E+03  0.22257063791E+03  0.00000000000E+00 0.  1.
         23    2    1    2    0    0 -0.11582911462E+03  0.12499654291E+03 -0.77058758732E+02  0.22500254593E+03  0.12509026279E+03 0.  0.
          5    1    3    3  502    0 -0.91198395562E+02  0.96486334046E+01 -0.20203416627E+02  0.93999435760E+02  0.41800000000E+01 0. -1.
         -5    1    3    3    0  502 -0.24630719058E+02  0.11534790951E+03 -0.56855342105E+02  0.13100311017E+03  0.41800000000E+01 0. -1.
        -11    1    1    2    0    0 -0.71191824015E+01 -0.18612225952E+02 -0.12524726417E+02  0.23536492618E+02  0.00000000000E+00 0.  1.
         11    1    1    2    0    0  0.12294829702E+03 -0.10638431696E+03  0.69991908130E+02  0.17701066024E+03  0.00000000000E+00 0. -1.
</event>
<event>
 7    1  0.8653652E-006  0.1090715E+03  0.7561462E-02  0.1262299E+00
         -2   -1    0    0    0  501 -0.00000000000E+00  0.00000000000E+00  0.12448409551E+03  0.12448409551E+03  0.00000000000E+00 0.  1.
          2   -1    0    0  501    0  0.00000000000E+00 -0.00000000000E+00 -0.28315539972E+03  0.28315539972E+03  0.00000000000E+00 0. -1.
         23    2    1    2    0    0  0.38463603762E+02 -0.97919533572E+02  0.36957514126E+02  0.16757489270E+03  0.12509117852E+03 0.  0.
          5    1    3    3  502    0  0.27820538088E+02 -0.68007094220E+02 -0.40325399425E+02  0.83919946631E+02  0.41800000000E+01 0. -1.
         -5    1    3    3    0  502  0.10643065675E+02 -0.29912439352E+02  0.77282913551E+02  0.83654946070E+02  0.41800000000E+01 0. -1.
        -11    1    1    2    0    0 -0.28093310513E+02  0.21429844934E+02 -0.14135535330E+03  0.14570452380E+03  0.00000000000E+00 0. -1.
         11    1    1    2    0    0 -0.10370293249E+02  0.76489688638E+02 -0.54273465039E+02  0.94360078727E+02  0.00000000000E+00 0.  1.
</event>
<event>
 7    1  0.8653652E-006  0.1470688E+03  0.7561462E-02  0.1204122E+00
          1   -1    0    0  501    0  0.00000000000E+00  0.00000000000E+00  0.90323593819E+02  0.90323593819E+02  0.00000000000E+00 0. -1.
         -1   -1    0    0    0  501 -0.00000000000E+00 -0.00000000000E+00 -0.30112873619E+03  0.30112873619E+03  0.00000000000E+00 0.  1.
         23    2    1    2    0    0 -0.75504600057E+02 -0.97423073290E+02 -0.11889689545E+03  0.21208300219E+03  0.12510207125E+03 0.  0.
          5    1    3    3  502    0  0.17208673050E+02  0.92232054452E+01 -0.51957434995E+02  0.55661956470E+02  0.41800000000E+01 0.  1.
         -5    1    3    3    0  502 -0.92713273107E+02 -0.10664627873E+03 -0.66939460454E+02  0.15642104572E+03  0.41800000000E+01 0.  1.
        -11    1    1    2    0    0  0.70518947301E+02  0.53307725032E+02 -0.10082063413E+03  0.13408741829E+03  0.00000000000E+00 0.  1.
         11    1    1    2    0    0  0.49856527558E+01  0.44115348258E+02  0.89123872066E+01  0.45281909534E+02  0.00000000000E+00 0. -1.
</event>
<event>
 7    1  0.8653652E-006  0.7239484E+02  0.7561462E-02  0.1352134E+00
         -1   -1    0    0    0  501 -0.00000000000E+00  0.00000000000E+00  0.12715730433E+03  0.12715730433E+03  0.00000000000E+00 0.  1.
          1   -1    0    0  501    0  0.00000000000E+00 -0.00000000000E+00 -0.10668117404E+03  0.10668117404E+03  0.00000000000E+00 0. -1.
         23    2    1    2    0    0  0.36186864595E+02  0.25978785935E+02  0.28082295467E+01  0.13281031289E+03  0.12508519724E+03 0.  0.
          5    1    3    3  502    0  0.17524428051E+02  0.16915486598E+02 -0.60876394427E+02  0.65701195300E+02  0.41800000000E+01 0. -1.
         -5    1    3    3    0  502  0.18662436545E+02  0.90632993368E+01  0.63684623974E+02  0.67109117587E+02  0.41800000000E+01 0. -1.
        -11    1    1    2    0    0  0.16144840487E+02  0.22422553830E+02  0.97794218155E+01  0.29309791635E+02  0.00000000000E+00 0.  1.
         11    1    1    2    0    0 -0.52331705082E+02 -0.48401339765E+02  0.78884789238E+01  0.71718373849E+02  0.00000000000E+00 0. -1.
</event>
<event>
 7    1  0.8653652E-006  0.1078461E+03  0.7561462E-02  0.1264611E+00
          1   -1    0    0  501    0  0.00000000000E+00  0.00000000000E+00  0.20237832856E+03  0.20237832856E+03  0.00000000000E+00 0. -1.
         -1   -1    0    0    0  501 -0.00000000000E+00 -0.00000000000E+00 -0.11403378065E+03  0.11403378065E+03  0.00000000000E+00 0.  1.
         23    2    1    2    0    0  0.70522296933E+02  0.27477917165E+01 -0.32551474521E+02  0.14726719111E+03  0.12508829826E+03 0.  0.
          5    1    3    3  502    0  0.43934342835E+02  0.56944971024E+02 -0.45735257926E+02  0.85335469899E+02  0.41800000000E+01 0. -1.
         -5    1    3    3    0  502  0.26587954097E+02 -0.54197179307E+02  0.13183783405E+02  0.61931721216E+02  0.41800000000E+01 0. -1.
        -11    1    1    2    0    0 -0.61314134932E+02  0.15016646196E+02  0.13195913474E+03  0.14628101738E+03  0.00000000000E+00 0. -1.
         11    1    1    2    0    0 -0.92081620011E+01 -0.17764437913E+02 -0.11063112311E+02  0.22863900712E+02  0.00000000000E+00 0.  1.
</event>
<event>
 7    1  0.8653652E-006  0.8733738E+02  0.7561462E-02  0.1309431E+00
         -2   -1    0    0    0  501 -0.00000000000E+00  0.00000000000E+00  0.46683262544E+02  0.46683262544E+02  0.00000000000E+00 0.  1.
          2   -1    0    0  501    0  0.00000000000E+00 -0.00000000000E+00 -0.28670582718E+03  0.28670582718E+03  0.00000000000E+00 0. -1.
         23    2    1    2    0    0  0.17530102718E+02 -0.35329459229E+01 -0.83183719426E+02  0.15128359126E+03  0.12508959828E+03 0.  0.
          5    1    3    3  502    0 -0.97219363147E+01  0.34330689199E+02 -0.96184734129E+02  0.10267466945E+03  0.41800000000E+01 0.  1.
         -5    1    3    3    0  502  0.27252039033E+02 -0.37863635122E+02  0.13001014703E+02  0.48608921808E+02  0.41800000000E+01 0.  1.
        -11    1    1    2    0    0 -0.91201554561E+01  0.46878871810E+02 -0.70855519953E+02  0.85447706614E+02  0.00000000000E+00 0.  1.
         11    1    1    2    0    0 -0.84099472618E+01 -0.43345925887E+02 -0.85983325254E+02  0.96657791852E+02  0.00000000000E+00 0. -1.
</event>
<event>
 7    1  0.8653652E-006  0.1138060E+03  0.7561462E-02  0.1253680E+00
         -1   -1    0    0    0  501 -0.00000000000E+00  0.00000000000E+00  0.58460894558E+02  0.58460894558E+02  0.00000000000E+00 0.  1.
          1   -1    0    0  501    0  0.00000000000E+00 -0.00000000000E+00 -0.27339481984E+03  0.27339481984E+03  0.00000000000E+00 0. -1.
         23    2    1    2    0    0  0.65660588177E+01 -0.63545692219E+02 -0.95153838779E+02  0.16965683223E+03  0.12509204435E+03 0.  0.
          5    1    3    3  502    0  0.50922952015E+02 -0.16173765469E+02  0.96937127301E+00  0.53601770605E+02  0.41800000000E+01 0.  1.
         -5    1    3    3    0  502 -0.44356893197E+02 -0.47371926751E+02 -0.96123210052E+02  0.11605506163E+03  0.41800000000E+01 0.  1.
        -11    1    1    2    0    0 -0.46828581756E+02  0.24283207722E+02 -0.64737842369E+02  0.83507954598E+02  0.00000000000E+00 0.  1.
         11    1    1    2    0    0  0.40262522938E+02  0.39262484498E+02 -0.55042244131E+02  0.78690927567E+02  0.00000000000E+00 0. -1.
</event>
<event>
 7    1  0.8653652E-006  0.1057169E+03  0.7561462E-02  0.1268714E+00
         -2   -1    0    0    0  501 -0.00000000000E+00  0.00000000000E+00  0.48998857007E+02  0.48998857007E+02  0.00000000000E+00 0.  1.
          2   -1    0    0  501    0  0.00000000000E+00 -0.00000000000E+00 -0.34281425577E+03  0.34281425577E+03  0.00000000000E+00 0. -1.
         23    2    1    2    0    0 -0.38347056373E+02  0.32977008848E+02 -0.94204053562E+02  0.16456147523E+03  0.12509234819E+03 0.  0.
          5    1    3    3  502    0 -0.61178673768E+02 -0.15575647830E+02 -0.91709148470E+01  0.63929719290E+02  0.41800000000E+01 0.  1.
         -5    1    3    3    0  502  0.22831617395E+02  0.48552656678E+02 -0.85033138715E+02  0.10063175594E+03  0.41800000000E+01 0.  1.
        -11    1    1    2    0    0  0.28242843149E+02  0.23644546925E+02 -0.28027825864E+02  0.46284790278E+02  0.00000000000E+00 0.  1.
         11    1    1    2    0    0  0.10104213225E+02 -0.56621555773E+02 -0.17158351934E+03  0.18096684727E+03  0.00000000000E+00 0. -1.
</event>
<event>
 7    1  0.8653652E-006  0.1019230E+03  0.7561462E-02  0.1276303E+00
          1   -1    0    0  501    0  0.00000000000E+00  0.00000000000E+00  0.25300413181E+02  0.25300413181E+02  0.00000000000E+00 0. -1.
         -1   -1    0    0    0  501 -0.00000000000E+00 -0.00000000000E+00 -0.62922710186E+03  0.62922710186E+03  0.00000000000E+00 0.  1.
         23    2    1    2    0    0  0.45497431463E+02  0.35695015142E+02 -0.35897444897E+03  0.38451975509E+03  0.12509451094E+03 0.  0.
          5    1    3    3  502    0 -0.38744068575E+02  0.28260199718E+02 -0.18313710095E+03  0.18935789363E+03  0.41800000000E+01 0.  1.
         -5    1    3    3    0  502  0.84241500038E+02  0.74348154236E+01 -0.17583734802E+03  0.19516186146E+03  0.41800000000E+01 0.  1.
        -11    1    1    2    0    0 -0.49571357605E+02 -0.17779286897E+02 -0.24602987162E+03  0.25160310067E+03  0.00000000000E+00 0.  1.
         11    1    1    2    0    0  0.40739261423E+01 -0.17915728244E+02  0.10776319065E+01  0.18404659282E+02  0.00000000000E+00 0. -1.
</event>
<event>
 7    1  0.8653652E-006  0.1289757E+03  0.7561462E-02  0.1228984E+00
         -1   -1    0    0    0  501 -0.00000000000E+00  0.00000000000E+00  0.74934828680E+02  0.74934828680E+02  0.00000000000E+00 0.  1.
          1   -1    0    0  501    0  0.00000000000E+00 -0.00000000000E+00 -0.29848354285E+03  0.29848354285E+03  0.00000000000E+00 0. -1.
         23    2    1    2    0    0 -0.82974965794E+02  0.24848410935E+02 -0.53986830716E+02  0.16145329110E+03  0.12510115444E+03 0.  0.
          5    1    3    3  502    0 -0.11013973711E+03  0.37220239249E+02 -0.59727798723E+02  0.13077075453E+03  0.41800000000E+01 0.  1.
         -5    1    3    3    0  502  0.27164771319E+02 -0.12371828314E+02  0.57409680070E+01  0.30682536569E+02  0.41800000000E+01 0.  1.
        -11    1    1    2    0    0  0.30497501773E+02  0.24744629370E+02 -0.11483472144E+03  0.12136477061E+03  0.00000000000E+00 0. -1.
         11    1    1    2    0    0  0.52477464021E+02 -0.49593040305E+02 -0.54727162013E+02  0.90600309816E+02  0.00000000000E+00 0.  1.
</event>
<event>
 7    1  0.8653652E-006  0.1117562E+03  0.7561462E-02  0.1257352E+00
         -2   -1    0    0    0  501 -0.00000000000E+00  0.00000000000E+00  0.87799110603E+02  0.87799110603E+02  0.00000000000E+00 0.  1.
          2   -1    0    0  501    0  0.00000000000E+00 -0.00000000000E+00 -0.28395590693E+03  0.28395590693E+03  0.00000000000E+00 0. -1.
         23    2    1    2    0    0  0.37658917970E+02  0.10210983695E+03 -0.13931100513E+03  0.21656198095E+03  0.12508765942E+03 0.  0.
          5    1    3    3  502    0  0.80141631824E+00  0.38953962606E+02 -0.13784206772E+03  0.14330373863E+03  0.41800000000E+01 0. -1.
         -5    1    3    3    0  502  0.36857501651E+02  0.63155874340E+02 -0.14689374150E+01  0.73258242326E+02  0.41800000000E+01 0. -1.
        -11    1    1    2    0    0 -0.18042619030E+02 -0.77703207864E+02  0.10947023576E+02  0.80518084546E+02  0.00000000000E+00 0.  1.
         11    1    1    2    0    0 -0.19616298939E+02 -0.24406629082E+02 -0.67792814773E+02  0.74674952039E+02  0.00000000000E+00 0. -1.
</event>
<event>
 7    1  0.8653652E-006  0.2420510E+03  0.7561462E-02  0.1118434E+00
          2   -1    0    0  501    0  0.00000000000E+00  0.00000000000E+00  0.85407833443E+03  0.85407833443E+03  0.00000000000E+00 0. -1.
         -2   -1    0    0    0  501 -0.00000000000E+00 -0.00000000000E+00 -0.72768512899E+02  0.72768512899E+02  0.00000000000E+00 0.  1.
         23    2    1    2    0    0 -0.18535254789E+03  0.11861966314E+03  0.32388445202E+03  0.41106563306E+03  0.12509046698E+03 0.  0.
          5    1    3    3  502    0  0.18159724372E+02  0.18159369619E+02  0.37156716973E+02  0.45361132156E+02  0.41800000000E+01 0. -1.
         -5    1    3    3    0  502 -0.20351227227E+03  0.10046029352E+03  0.28672773504E+03  0.36570450090E+03  0.41800000000E+01 0. -1.
        -11    1    1    2    0    0  0.99185619394E+02 -0.21943367441E+02  0.26531371709E+03  0.28409622832E+03  0.00000000000E+00 0.  1.
         11    1    1    2    0    0  0.86166928499E+02 -0.96676295702E+02  0.19211165243E+03  0.23168498596E+03  0.00000000000E+00 0. -1.
</event>
<event>
 7    1  0.8653652E-006  0.1144149E+03  0.7561462E-02  0.1252606E+00
         -1   -1    0    0    0  501 -0.00000000000E+00  0.00000000000E+00  0.27368525422E+03  0.27368525422E+03  0.00000000000E+00 0.  1.
          1   -1    0    0  501    0  0.00000000000E+00 -0.00000000000E+00 -0.79181001136E+02  0.79181001136E+02  0.00000000000E+00 0. -1.
         23    2    1    2    0    0  0.39058916781E+01  0.55240331868E+02  0.20305927647E+03  0.24033074646E+03  0.11601313580E+03 0.  0.
          5    1    3    3  502    0  0.46601169195E+02  0.58201523439E+02  0.17130911354E+03  0.18687795772E+03  0.41800000000E+01 0.  1.
         -5    1    3    3    0  502 -0.42695277517E+02 -0.29611915713E+01  0.31750162932E+02  0.53452788740E+02  0.41800000000E+01 0. -1.
        -11    1    1    2    0    0 -0.42201738252E+02 -0.59144954126E+02  0.17749902031E+01  0.72679177900E+02  0.00000000000E+00 0. -1.
         11    1    1    2    0    0  0.38295846574E+02  0.39046222580E+01 -0.10330013587E+02  0.39856330996E+02  0.00000000000E+00 0.  1.
</event>
<event>
 7    1  0.8653652E-006  0.1068591E+03  0.7561462E-02  0.1266499E+00
          1   -1    0    0  501    0  0.00000000000E+00  0.00000000000E+00  0.35559885656E+02  0.35559885656E+02  0.00000000000E+00 0. -1.
         -1   -1    0    0    0  501 -0.00000000000E+00 -0.00000000000E+00 -0.37445379761E+03  0.37445379761E+03  0.00000000000E+00 0.  1.
         23    2    1    2    0    0  0.16795893032E+02  0.22462623292E+01 -0.24622083635E+03  0.27669341875E+03  0.12508956796E+03 0.  0.
          5    1    3    3  502    0  0.49446518687E+02 -0.44419254740E+02 -0.10472522555E+03  0.12410831426E+03  0.41800000000E+01 0.  1.
         -5    1    3    3    0  502 -0.32650625655E+02  0.46665517069E+02 -0.14149561079E+03  0.15258510449E+03  0.41800000000E+01 0.  1.
        -11    1    1    2    0    0  0.23261417736E+02  0.30440216436E+02 -0.62930246652E+02  0.73674393621E+02  0.00000000000E+00 0.  1.
         11    1    1    2    0    0 -0.40057310768E+02 -0.32686478766E+02 -0.29742828959E+02  0.59645870893E+02  0.00000000000E+00 0. -1.
</event>
<event>
 6    1  0.8653652E-006  0.1408495E+03  0.7561462E-02  0.1212190E+00
          2   -1    0    0  501    0  0.00000000000E+00  0.00000000000E+00  0.10002669222E+04  0.10002669222E+04  0.00000000000E+00 0. -1.
         -2   -1    0    0    0  501 -0.00000000000E+00 -0.00000000000E+00 -0.28530823468E+02  0.28530823468E+02  0.00000000000E+00 0.  1.
          5    1    1    2  502    0 -0.24583677546E+02 -0.10778483169E+03  0.32766132919E+03  0.34583427561E+03  0.41800000000E+01 0. -1.
         -5    1    1    2    0  502 -0.33947046205E+02  0.21005359916E+02  0.20674013851E+02  0.45149909634E+02  0.41800000000E+01 0.  1.
        -11    1    1    2    0    0 -0.15684271288E+02  0.40587872971E+02  0.14117442324E+03  0.14772809339E+03  0.00000000000E+00 0.  1.
         11    1    1    2    0    0  0.74214995039E+02  0.46191598802E+02  0.48222633249E+03  0.49008546707E+03  0.00000000000E+00 0. -1.
</event>
<event>
 7    1  0.8653652E-006  0.9211619E+02  0.7561462E-02  0.1297806E+00
         -1   -1    0    0    0  501 -0.00000000000E+00  0.00000000000E+00  0.50430809109E+03  0.50430809109E+03  0.00000000000E+00 0.  1.
          1   -1    0    0  501    0  0.00000000000E+00 -0.00000000000E+00 -0.23509079712E+02  0.23509079712E+02  0.00000000000E+00 0. -1.
         23    2    1    2    0    0 -0.13224691509E+01  0.12395027064E+02  0.26077945968E+03  0.28949759598E+03  0.12509015096E+03 0.  0.
          5    1    3    3  502    0  0.18822114574E+02 -0.41637486701E+02  0.38732659602E+02  0.60047011713E+02  0.41800000000E+01 0.  1.
         -5    1    3    3    0  502 -0.20144583724E+02  0.54032513765E+02  0.22204680007E+03  0.22945058427E+03  0.41800000000E+01 0.  1.
        -11    1    1    2    0    0 -0.27978215628E+02  0.21822267523E+02  0.15634543759E+03  0.16032120186E+03  0.00000000000E+00 0.  1.
         11    1    1    2    0    0  0.29300684779E+02 -0.34217294587E+02  0.63674114113E+02  0.77998372966E+02  0.00000000000E+00 0. -1.
</event>
<event>
 7    1  0.8653652E-006  0.1163952E+03  0.7561462E-02  0.1249165E+00
          2   -1    0    0  501    0  0.00000000000E+00  0.00000000000E+00  0.11884477010E+03  0.11884477010E+03  0.00000000000E+00 0. -1.
         -2   -1    0    0    0  501 -0.00000000000E+00 -0.00000000000E+00 -0.27575682529E+03  0.27575682529E+03  0.00000000000E+00 0.  1.
         23    2    1    2    0    0 -0.20609270716E+02 -0.95746973423E+02 -0.19839762532E+03  0.25120780894E+03  0.11896016384E+03 0.  0.
          5    1    3    3  502    0  0.18065818067E+02 -0.19518934418E+02  0.77383915136E+01  0.28012812898E+02  0.41800000000E+01 0. -1.
         -5    1    3    3    0  502 -0.38675088783E+02 -0.76228039005E+02 -0.20613601683E+03  0.22319499604E+03  0.41800000000E+01 0.  1.
        -11    1    1    2    0    0  0.16661382541E+02 -0.65586399081E+01 -0.17665305790E+02  0.25153140047E+02  0.00000000000E+00 0.  1.
         11    1    1    2    0    0  0.39478881756E+01  0.10230561333E+03  0.59150875920E+02  0.11824064640E+03  0.00000000000E+00 0. -1.
</event>
<event>
 7    1  0.8653652E-006  0.6748804E+02  0.7561462E-02  0.1368850E+00
         -2   -1    0    0    0  501 -0.00000000000E+00  0.00000000000E+00  0.19759105273E+02  0.19759105273E+02  0.00000000000E+00 0.  1.
          2   -1    0    0  501    0  0.00000000000E+00 -0.00000000000E+00 -0.74504807710E+03  0.74504807710E+03  0.00000000000E+00 0. -1.
         23    2    1    2    0    0  0.11710886247E+02  0.53002561970E+02 -0.41120666011E+03  0.43322401646E+03  0.12508283130E+03 0.  0.
          5    1    3    3  502    0  0.32139909214E+01  0.58953148306E+01  0.80134104956E+01  0.11259290491E+02  0.41800000000E+01 0. -1.
         -5    1    3    3    0  502  0.84968953258E+01  0.47107247140E+02 -0.41922007061E+03  0.42196472597E+03  0.41800000000E+01 0. -1.
        -11    1    1    2    0    0 -0.29833562355E+02 -0.85840890424E+01 -0.28965404514E+02  0.42458481910E+02  0.00000000000E+00 0.  1.
         11    1    1    2    0    0  0.18122676108E+02 -0.44418472928E+02 -0.28511690720E+03  0.28912468400E+03  0.00000000000E+00 0. -1.
</event>
<event>
 7    1  0.8653652E-006  0.1090533E+03  0.7561462E-02  0.1262333E+00
         -2   -1    0    0    0  501 -0.00000000000E+00  0.00000000000E+00  0.99567977255E+02  0.99567977255E+02  0.00000000000E+00 0.  1.
          2   -1    0    0  501    0  0.00000000000E+00 -0.00000000000E+00 -0.17700210258E+03  0.17700210258E+03  0.00000000000E+00 0. -1.
         23    2    1    2    0    0 -0.56287171833E+02 -0.38803979340E+02 -0.11043930287E+02  0.14297663830E+03  0.12508539554E+03 0.  0.
          5    1    3    3  502    0 -0.64438411907E+02 -0.54213100500E+02 -0.51450215085E+02  0.98772294837E+02  0.41800000000E+01 0. -1.
         -5    1    3    3    0  502  0.81512400746E+01  0.15409121160E+02  0.40406284798E+02  0.44204343462E+02  0.41800000000E+01 0. -1.
        -11    1    1    2    0    0  0.76912794060E+02  0.50639042944E+02 -0.54519850081E+02  0.10701544100E+03  0.00000000000E+00 0.  1.
         11    1    1    2    0    0 -0.20625622227E+02 -0.11835063604E+02 -0.11870344954E+02  0.26578000529E+02  0.00000000000E+00 0. -1.
</event>
<event>
 7    1  0.8653652E-006  0.1157238E+03  0.7561462E-02  0.1250323E+00
          3   -1    0    0  501    0  0.00000000000E+00  0.00000000000E+00  0.20176073632E+03  0.20176073632E+03  0.00000000000E+00 0. -1.
         -3   -1    0    0    0  501 -0.00000000000E+00 -0.00000000000E+00 -0.10020017206E+03  0.10020017206E+03  0.00000000000E+00 0.  1.
         23    2    1    2    0    0  0.75675917240E+02  0.26666719463E+02  0.85907254862E+01  0.14885972175E+03  0.12508979901E+03 0.  0.
          5    1    3    3  502    0  0.70705157077E+02 -0.13728313748E+02  0.52209089011E+02  0.89055865674E+02  0.41800000000E+01 0. -1.
         -5    1    3    3    0  502  0.49707601629E+01  0.40395033211E+02 -0.43618363524E+02  0.59803856074E+02  0.41800000000E+01 0. -1.
        -11    1    1    2    0    0  0.15662960557E+02 -0.21898975356E+02  0.75728367089E+01  0.27968577205E+02  0.00000000000E+00 0.  1.
         11    1    1    2    0    0 -0.91338877797E+02 -0.47677441071E+01  0.85397002066E+02  0.12513260943E+03  0.00000000000E+00 0. -1.
</event>
<event>
 6    1  0.8653652E-006  0.1434499E+03  0.7561462E-02  0.1208761E+00
         -2   -1    0    0    0  501 -0.00000000000E+00  0.00000000000E+00  0.23911771477E+03  0.23911771477E+03  0.00000000000E+00 0.  1.
          2   -1    0    0  501    0  0.00000000000E+00 -0.00000000000E+00 -0.43278473046E+03  0.43278473046E+03  0.00000000000E+00 0. -1.
          5    1    1    2  502    0  0.40124315891E+02  0.17201939068E+02  0.44936255480E+01  0.44085513539E+02  0.41800000000E+01 0. -1.
         -5    1    1    2    0  502 -0.88727522849E+02 -0.94651423645E+02  0.18311534169E+03  0.22445526519E+03  0.41800000000E+01 0.  1.
        -11    1    1    2    0    0 -0.15245058788E+02  0.36904505414E+01 -0.81163614321E+01  0.17660876692E+02  0.00000000000E+00 0.  1.
         11    1    1    2    0    0  0.63848265746E+02  0.73759034035E+02 -0.37315962150E+03  0.38570078980E+03  0.00000000000E+00 0. -1.
</event>
<event>
 7    1  0.8653652E-006  0.1874225E+03  0.7561462E-02  0.1160807E+00
         -2   -1    0    0    0  501 -0.00000000000E+00  0.00000000000E+00  0.76719791878E+02  0.76719791878E+02  0.00000000000E+00 0.  1.
          2   -1    0    0  501    0  0.00000000000E+00 -0.00000000000E+00 -0.52307515052E+03  0.52307515052E+03  0.00000000000E+00 0. -1.
         23    2    1    2    0    0 -0.25582493178E+02 -0.16103629355E+03 -0.17373104800E+03  0.26910474828E+03  0.12509091378E+03 0.  0.
          5    1    3    3  502    0 -0.74130550604E+02 -0.11245456881E+03 -0.96969376536E+02  0.16601777304E+03  0.41800000000E+01 0.  1.
         -5    1    3    3    0  502  0.48548057426E+02 -0.48581724739E+02 -0.76761671466E+02  0.10308697524E+03  0.41800000000E+01 0.  1.
        -11    1    1    2    0    0  0.21865358022E+02  0.18343642740E+02 -0.11301749347E+03  0.11656559072E+03  0.00000000000E+00 0. -1.
         11    1    1    2    0    0  0.37171351557E+01  0.14269265081E+03 -0.15960681717E+03  0.21412460339E+03  0.00000000000E+00 0.  1.
</event>
<event>
 7    1  0.8653652E-006  0.2450565E+03  0.7561462E-02  0.1116469E+00
          1   -1    0    0  501    0  0.00000000000E+00  0.00000000000E+00  0.87029768341E+03  0.87029768341E+03  0.00000000000E+00 0. -1.
         -1   -1    0    0    0  501 -0.00000000000E+00 -0.00000000000E+00 -0.96186068712E+02  0.96186068712E+02  0.00000000000E+00 0.  1.
         23    2    1    2    0    0 -0.19368073429E+03  0.10404490653E+03  0.14071671640E+03  0.28945422288E+03  0.12507990829E+03 0.  0.
          5    1    3    3  502    0 -0.87804924444E+02  0.11541478858E+03  0.66516883610E+02  0.15960027063E+03  0.41800000000E+01 0. -1.
         -5    1    3    3    0  502 -0.10587580985E+03 -0.11369882051E+02  0.74199832788E+02  0.12985395225E+03  0.41800000000E+01 0. -1.
        -11    1    1    2    0    0  0.25069020310E-01 -0.31762161236E+02  0.10270586008E+03  0.10750501947E+03  0.00000000000E+00 0.  1.
         11    1    1    2    0    0  0.19365566527E+03 -0.72282745291E+02  0.53068903822E+03  0.56952450978E+03  0.00000000000E+00 0. -1.
</event>
<event>
 7    1  0.8653652E-006  0.1112425E+03  0.7561462E-02  0.1258286E+00
         -1   -1    0    0    0  501 -0.00000000000E+00  0.00000000000E+00  0.37942171321E+02  0.37942171321E+02  0.00000000000E+00 0.  1.
          1   -1    0    0  501    0  0.00000000000E+00 -0.00000000000E+00 -0.45665925520E+03  0.45665925520E+03  0.00000000000E+00 0. -1.
         23    2    1    2    0    0  0.52828063706E+02 -0.11097544183E+02 -0.13493635200E+03  0.19175353760E+03  0.12509052838E+03 0.  0.
          5    1    3    3  502    0  0.23511491549E+02  0.56991165026E+02 -0.56145609323E+02  0.83490029178E+02  0.41800000000E+01 0. -1.
         -5    1    3    3    0  502  0.29316572157E+02 -0.68088709209E+02 -0.78790742678E+02  0.10826350843E+03  0.41800000000E+01 0. -1.
        -11    1    1    2    0    0 -0.14953625183E+02 -0.28166155888E+02 -0.31822161148E+02  0.45051006467E+02  0.00000000000E+00 0.  1.
         11    1    1    2    0    0 -0.37874438523E+02  0.39263700071E+02 -0.25195857073E+03  0.25779688245E+03  0.00000000000E+00 0. -1.
</event>
<event>
 7    1  0.8653652E-006  0.1082607E+03  0.7561462E-02  0.1263825E+00
         -1   -1    0    0    0  501 -0.00000000000E+00  0.00000000000E+00  0.44288806561E+02  0.44288806561E+02  0.00000000000E+00 0.  1.
          1   -1    0    0  501    0  0.00000000000E+00 -0.00000000000E+00 -0.30235684071E+03  0.30235684071E+03  0.00000000000E+00 0. -1.
         23    2    1    2    0    0  0.35734529593E+02 -0.24769083820E+02 -0.15337785254E+03  0.20263870664E+03  0.12508883108E+03 0.  0.
          5    1    3    3  502    0  0.27444705974E+00  0.49536418990E+02 -0.64131265040E+02  0.81143229435E+02  0.41800000000E+01 0.  1.
         -5    1    3    3    0  502  0.35460082533E+02 -0.74305502809E+02 -0.89246587502E+02  0.12149547721E+03  0.41800000000E+01 0.  1.
        -11    1    1    2    0    0 -0.10351506313E+02 -0.25793358250E+02 -0.34171790615E+01  0.28002287862E+02  0.00000000000E+00 0.  1.
         11    1    1    2    0    0 -0.25383023280E+02  0.50562442070E+02 -0.10127300255E+03  0.11600465277E+03  0.00000000000E+00 0. -1.
</event>
<event>
 7    1  0.8653652E-006  0.1170310E+03  0.7561462E-02  0.1248077E+00
         -1   -1    0    0    0  501 -0.00000000000E+00  0.00000000000E+00  0.91794154555E+02  0.91794154555E+02  0.00000000000E+00 0.  1.
          1   -1    0    0  501    0  0.00000000000E+00 -0.00000000000E+00 -0.29226215067E+03  0.29226215067E+03  0.00000000000E+00 0. -1.
         23    2    1    2    0    0 -0.17337439026E+02 -0.10528343721E+03 -0.35937063938E+02  0.16829761801E+03  0.12508967472E+03 0.  0.
          5    1    3    3  502    0 -0.40405883217E+02 -0.49290895325E+02 -0.73138361523E+02  0.97102626570E+02  0.41800000000E+01 0. -1.
         -5    1    3    3    0  502  0.23068444191E+02 -0.55992541886E+02  0.37201297585E+02  0.71194991440E+02  0.41800000000E+01 0. -1.
        -11    1    1    2    0    0 -0.63416529635E+01  0.24143826629E+02  0.57831588959E+01  0.25623931264E+02  0.00000000000E+00 0.  1.
         11    1    1    2    0    0  0.23679091989E+02  0.81139610581E+02 -0.17031409108E+03  0.19013475595E+03  0.00000000000E+00 0. -1.
</event>
<event>
 7    1  0.8653652E-006  0.5347589E+02  0.7561462E-02  0.1427447E+00
         -2   -1    0    0    0  501 -0.00000000000E+00  0.00000000000E+00  0.14468042227E+03  0.14468042227E+03  0.00000000000E+00 0.  1.
          2   -1    0    0  501    0  0.00000000000E+00 -0.00000000000E+00 -0.84189257940E+02  0.84189257940E+02  0.00000000000E+00 0. -1.
         23    2    1    2    0    0 -0.32608181669E+01 -0.26989571582E+01  0.62301514178E+02  0.13981927890E+03  0.12510009903E+03 0.  0.
          5    1    3    3  502    0 -0.20253816684E+02  0.27128250723E+02 -0.27354362912E+02  0.43725194659E+02  0.41800000000E+01 0. -1.
         -5    1    3    3    0  502  0.16992998518E+02 -0.29827207882E+02  0.89655877090E+02  0.96094084237E+02  0.41800000000E+01 0. -1.
        -11    1    1    2    0    0 -0.13614613230E+02  0.12719437863E+02 -0.41103090815E+02  0.45128769842E+02  0.00000000000E+00 0. -1.
         11    1    1    2    0    0  0.16875431397E+02 -0.10020480705E+02  0.39292740966E+02  0.43921631471E+02  0.00000000000E+00 0.  1.
</event>
<event>
 7    1  0.8653652E-006  0.1321274E+03  0.7561462E-02  0.1224333E+00
         -4   -1    0    0    0  501 -0.00000000000E+00  0.00000000000E+00  0.74092600479E+03  0.74092600479E+03  0.00000000000E+00 0.  1.
          4   -1    0    0  501    0  0.00000000000E+00 -0.00000000000E+00 -0.26926493540E+02  0.26926493540E+02  0.00000000000E+00 0. -1.
         23    2    1    2    0    0  0.61432477115E+02 -0.49544501424E+02  0.50939215957E+03  0.53042680447E+03  0.12507444103E+03 0.  0.
          5    1    3    3  502    0  0.18772572207E+02 -0.86078989661E+02  0.25337842557E+03  0.26829107490E+03  0.41800000000E+01 0.  1.
         -5    1    3    3    0  502  0.42659904908E+02  0.36534488237E+02  0.25601373400E+03  0.26213572956E+03  0.41800000000E+01 0.  1.
        -11    1    1    2    0    0 -0.85093856757E+02  0.35386657584E+02  0.14595717031E+03  0.17261713576E+03  0.00000000000E+00 0. -1.
         11    1    1    2    0    0  0.23661379642E+02  0.14157843839E+02  0.58650181375E+02  0.64808558108E+02  0.00000000000E+00 0.  1.
</event>
<event>
 7    1  0.8653652E-006  0.1091390E+03  0.7561462E-02  0.1262173E+00
         -2   -1    0    0    0  501 -0.00000000000E+00  0.00000000000E+00  0.27247367889E+02  0.27247367889E+02  0.00000000000E+00 0.  1.
          2   -1    0    0  501    0  0.00000000000E+00 -0.00000000000E+00 -0.55372637400E+03  0.55372637400E+03  0.00000000000E+00 0. -1.
         23    2    1    2    0    0 -0.31230733030E+01 -0.34989447669E+02 -0.18415380459E+03  0.22537694979E+03  0.12509248865E+03 0.  0.
          5    1    3    3  502    0 -0.59970860281E+02 -0.12174453026E+02 -0.55052164381E+02  0.82419261052E+02  0.41800000000E+01 0. -1.
         -5    1    3    3    0  502  0.56847786978E+02 -0.22814994642E+02 -0.12910164021E+03  0.14295768874E+03  0.41800000000E+01 0. -1.
        -11    1    1    2    0    0  0.39738917897E+02 -0.64346625771E+01 -0.16574244757E+03  0.17056126584E+03  0.00000000000E+00 0.  1.
         11    1    1    2    0    0 -0.36615844593E+02  0.41424110246E+02 -0.17658275395E+03  0.18503552626E+03  0.00000000000E+00 0. -1.
</event>
<event>
 7    1  0.8653652E-006  0.1923471E+03  0.7561462E-02  0.1156361E+00
         -2   -1    0    0    0  501 -0.00000000000E+00  0.00000000000E+00  0.23579021063E+03  0.23579021063E+03  0.00000000000E+00 0.  1.
          2   -1    0    0  501    0  0.00000000000E+00 -0.00000000000E+00 -0.20325405233E+03  0.20325405233E+03  0.00000000000E+00 0. -1.
         23    2    1    2    0    0  0.76696672480E+02 -0.17035546072E+03 -0.53486710195E+01  0.22490127559E+03  0.12509441599E+03 0.  0.
          5    1    3    3  502    0  0.43340651414E+02 -0.11952460535E+03 -0.62162440419E+02  0.14158454982E+03  0.41800000000E+01 0. -1.
         -5    1    3    3    0  502  0.33356021066E+02 -0.50830855371E+02  0.56813769399E+02  0.83316725766E+02  0.41800000000E+01 0. -1.
        -11    1    1    2    0    0 -0.30224405931E+02  0.13448214311E+03 -0.10260977757E+02  0.13821812180E+03  0.00000000000E+00 0.  1.
         11    1    1    2    0    0 -0.46472266549E+02  0.35873317612E+02  0.48145807075E+02  0.75924865582E+02  0.00000000000E+00 0. -1.
</event>
<event>
 7    1  0.8653652E-006  0.5241053E+02  0.7561462E-02  0.1432757E+00
         -1   -1    0    0    0  501 -0.00000000000E+00  0.00000000000E+00  0.31417475950E+03  0.31417475950E+03  0.00000000000E+00 0.  1.
          1   -1    0    0  501    0  0.00000000000E+00 -0.00000000000E+00 -0.46513933049E+02  0.46513933049E+02  0.00000000000E+00 0. -1.
         23    2    1    2    0    0 -0.11726758899E+02  0.32665697393E+01  0.22951142418E+03  0.26168578552E+03  0.12512301612E+03 0.  0.
          5    1    3    3  502    0  0.23069169430E+02 -0.62147159146E+01  0.22358808598E+03  0.22489978627E+03  0.41800000000E+01 0. -1.
         -5    1    3    3    0  502 -0.34795928328E+02  0.94812856539E+01  0.59233382060E+01  0.36785999258E+02  0.41800000000E+01 0. -1.
        -11    1    1    2    0    0  0.24109634587E+02 -0.13994527444E+02 -0.22722741204E+02  0.35964485901E+02  0.00000000000E+00 0. -1.
         11    1    1    2    0    0 -0.12382875688E+02  0.10727957704E+02  0.60872143474E+02  0.63038421125E+02  0.00000000000E+00 0.  1.
</event>
<event>
 7    1  0.8653652E-006  0.1067088E+03  0.7561462E-02  0.1266789E+00
         -1   -1    0    0    0  501 -0.00000000000E+00  0.00000000000E+00  0.27229993330E+02  0.27229993330E+02  0.00000000000E+00 0.  1.
          1   -1    0    0  501    0  0.00000000000E+00 -0.00000000000E+00 -0.47490205316E+03  0.47490205316E+03  0.00000000000E+00 0. -1.
         23    2    1    2    0    0  0.14961548415E+02 -0.23706010165E+02 -0.25822852337E+03  0.28829669980E+03  0.12508874445E+03 0.  0.
          5    1    3    3  502    0  0.68865076699E+02 -0.43354433759E+01 -0.11790791751E+03  0.13667825090E+03  0.41800000000E+01 0.  1.
         -5    1    3    3    0  502 -0.53903528284E+02 -0.19370566790E+02 -0.14032060585E+03  0.15161844890E+03  0.41800000000E+01 0.  1.
        -11    1    1    2    0    0 -0.44711845266E+02  0.33133801537E+02 -0.16518559632E+03  0.17430800080E+03  0.00000000000E+00 0. -1.
         11    1    1    2    0    0  0.29750296850E+02 -0.94277913720E+01 -0.24257940139E+02  0.39527345884E+02  0.00000000000E+00 0.  1.
</event>
<event>
 7    1  0.8653652E-006  0.1797139E+03  0.7561462E-02  0.1168080E+00
         -1   -1    0    0    0  501 -0.00000000000E+00  0.00000000000E+00  0.54523907225E+02  0.54523907225E+02  0.00000000000E+00 0.  1.
          1   -1    0    0  501    0  0.00000000000E+00 -0.00000000000E+00 -0.60188597234E+03  0.60188597234E+03  0.00000000000E+00 0. -1.
         23    2    1    2    0    0 -0.49793964880E+02 -0.13543403208E+03 -0.29460090635E+03  0.35108301131E+03  0.12509105015E+03 0.  0.
          5    1    3    3  502    0 -0.34411917789E+02  0.16270109720E+02 -0.53902847171E+02  0.66120238122E+02  0.41800000000E+01 0. -1.
         -5    1    3    3    0  502 -0.15382047091E+02 -0.15170414180E+03 -0.24069805918E+03  0.28496277319E+03  0.41800000000E+01 0. -1.
        -11    1    1    2    0    0  0.13515205818E+02  0.13139972191E+03 -0.21814277016E+03  0.25501924610E+03  0.00000000000E+00 0.  1.
         11    1    1    2    0    0  0.36278759063E+02  0.40343101706E+01 -0.34618388608E+02  0.50307622161E+02  0.00000000000E+00 0. -1.
</event>
<event>
 7    1  0.8653652E-006  0.8358897E+02  0.7561462E-02  0.1319164E+00
         -2   -1    0    0    0  501 -0.00000000000E+00  0.00000000000E+00  0.61305412487E+02  0.61305412487E+02  0.00000000000E+00 0.  1.
          2   -1    0    0  501    0  0.00000000000E+00 -0.00000000000E+00 -0.25846018622E+03  0.25846018622E+03  0.00000000000E+00 0. -1.
         23    2    1    2    0    0 -0.58956223239E+02 -0.23917023022E+02 -0.74092698822E+02  0.15869757606E+03  0.12508929763E+03 0.  0.
          5    1    3    3  502    0 -0.15009102529E+02 -0.44287638502E+02  0.21357834171E+02  0.51578072505E+02  0.41800000000E+01 0. -1.
         -5    1    3    3    0  502 -0.43947120710E+02  0.20370615480E+02 -0.95450532993E+02  0.10711950356E+03  0.41800000000E+01 0. -1.
        -11    1    1    2    0    0  0.20870825891E+02  0.26152922408E+02 -0.13176239160E+01  0.33485860548E+02  0.00000000000E+00 0.  1.
         11    1    1    2    0    0  0.38085397348E+02 -0.22358993856E+01 -0.12174445100E+03  0.12758216210E+03  0.00000000000E+00 0. -1.
</event>
<event>
 7    1  0.8653652E-006  0.1108774E+03  0.7561462E-02  0.1258954E+00
         -2   -1    0    0    0  501 -0.00000000000E+00  0.00000000000E+00  0.47037574254E+02  0.47037574254E+02  0.00000000000E+00 0.  1.
          2   -1    0    0  501    0  0.00000000000E+00 -0.00000000000E+00 -0.38710176698E+03  0.38710176698E+03  0.00000000000E+00 0. -1.
         23    2    1    2    0    0 -0.19979797829E+02 -0.72945117054E+02 -0.11843959110E+03  0.18327390265E+03  0.11764864738E+03 0.  0.
          5    1    3    3  502    0 -0.36760335759E+02 -0.82084552635E+02 -0.13177738928E+03  0.15959933832E+03  0.41800000000E+01 0. -1.
         -5    1    3    3    0  502  0.16780537930E+02  0.91394355812E+01  0.13337798182E+02  0.23674564332E+02  0.41800000000E+01 0.  1.
        -11    1    1    2    0    0  0.33039059245E+02 -0.47448708094E+01 -0.10458367171E+03  0.10978086183E+03  0.00000000000E+00 0. -1.
         11    1    1    2    0    0 -0.13059261416E+02  0.77689987863E+02 -0.11704092992E+03  0.14108457676E+03  0.00000000000E+00 0.  1.
</event>
<event>
 7    1  0.8653652E-006  0.2649293E+03  0.7561462E-02  0.1104217E+00
         -3   -1    0    0    0  501 -0.00000000000E+00  0.00000000000E+00  0.87463124575E+02  0.87463124575E+02  0.00000000000E+00 0.  1.
          3   -1    0    0  501    0  0.00000000000E+00 -0.00000000000E+00 -0.91591713220E+03  0.91591713220E+03  0.00000000000E+00 0. -1.
         23    2    1    2    0    0  0.23279237220E+03  0.93036796414E+02 -0.29400910315E+03  0.40612579125E+03  0.12509465034E+03 0.  0.
          5    1    3    3  502    0  0.30985461600E+02 -0.29100944686E+02 -0.61545629290E+02  0.74915290141E+02  0.41800000000E+01 0.  1.
         -5    1    3    3    0  502  0.20180691060E+03  0.12213774110E+03 -0.23246347386E+03  0.33121050111E+03  0.41800000000E+01 0.  1.
        -11    1    1    2    0    0 -0.10882593527E+03 -0.34797620956E+02 -0.34540813483E+03  0.36381415341E+03  0.00000000000E+00 0.  1.
         11    1    1    2    0    0 -0.12396643693E+03 -0.58239175458E+02 -0.18903676965E+03  0.23344031212E+03  0.00000000000E+00 0. -1.
</event>
<event>
 7    1  0.8653652E-006  0.1121270E+03  0.7561462E-02  0.1256681E+00
          2   -1    0    0  501    0  0.00000000000E+00  0.00000000000E+00  0.86151311892E+03  0.86151311892E+03  0.00000000000E+00 0. -1.
         -2   -1    0    0    0  501 -0.00000000000E+00 -0.00000000000E+00 -0.15276564778E+02  0.15276564778E+02  0.00000000000E+00 0.  1.
         23    2    1    2    0    0  0.49852549709E+01 -0.39674409071E+02  0.40151715482E+03  0.42244873334E+03  0.12509194692E+03 0.  0.
          5    1    3    3  502    0 -0.43020932113E+02 -0.64055648899E+02  0.24193337566E+03  0.25397471806E+03  0.41800000000E+01 0. -1.
         -5    1    3    3    0  502  0.48006187084E+02  0.24381239828E+02  0.15958377916E+03  0.16847401528E+03  0.41800000000E+01 0. -1.
        -11    1    1    2    0    0 -0.14112400233E+02  0.64760135929E+02  0.31150985063E+03  0.31848300125E+03  0.00000000000E+00 0.  1.
         11    1    1    2    0    0  0.91271452624E+01 -0.25085726858E+02  0.13320954869E+03  0.13585794910E+03  0.00000000000E+00 0. -1.
</event>
<event>
 7    1  0.8653652E-006  0.9228152E+02  0.7561462E-02  0.1297419E+00
         -2   -1    0    0    0  501 -0.00000000000E+00  0.00000000000E+00  0.15410206779E+03  0.15410206779E+03  0.00000000000E+00 0.  1.
          2   -1    0    0  501    0  0.00000000000E+00 -0.00000000000E+00 -0.96760998643E+02  0.96760998643E+02  0.00000000000E+00 0. -1.
         23    2    1    2    0    0  0.53296391202E+02 -0.12198991605E+02  0.48845194909E+02  0.14499452296E+03  0.12509291711E+03 0.  0.
          5    1    3    3  502    0 -0.13870301340E+02  0.16448588697E+02 -0.30191237366E+02  0.37308504970E+02  0.41800000000E+01 0.  1.
         -5    1    3    3    0  502  0.67166692542E+02 -0.28647580303E+02  0.79036432275E+02  0.10768601799E+03  0.41800000000E+01 0.  1.
        -11    1    1    2    0    0  0.72618902108E+01 -0.19744467348E+02  0.27677847418E+02  0.34765532903E+02  0.00000000000E+00 0.  1.
         11    1    1    2    0    0 -0.60558281413E+02  0.31943458953E+02 -0.19181973176E+02  0.71103010573E+02  0.00000000000E+00 0. -1.
</event>
<event>
 7    1  0.8653652E-006  0.1086632E+03  0.7561462E-02  0.1263066E+00
         -2   -1    0    0    0  501 -0.00000000000E+00  0.00000000000E+00  0.59936014248E+02  0.59936014248E+02  0.00000000000E+00 0.  1.
          2   -1    0    0  501    0  0.00000000000E+00 -0.00000000000E+00 -0.36231708152E+03  0.36231708152E+03  0.00000000000E+00 0. -1.
         23    2    1    2    0    0 -0.94364157223E+02  0.17527724452E+02 -0.12162939324E+03  0.19913026735E+03  0.12508932321E+03 0.  0.
          5    1    3    3  502    0 -0.26142246750E+02  0.30776500442E+02  0.16990540216E+02  0.44008645758E+02  0.41800000000E+01 0.  1.
         -5    1    3    3    0  502 -0.68221910473E+02 -0.13248775991E+02 -0.13861993346E+03  0.15512162159E+03  0.41800000000E+01 0.  1.
        -11    1    1    2    0    0  0.61724049552E+02  0.12247059082E+02 -0.16436868008E+03  0.17600259015E+03  0.00000000000E+00 0. -1.
         11    1    1    2    0    0  0.32640107672E+02 -0.29774783534E+02 -0.16382993953E+02  0.47120238265E+02  0.00000000000E+00 0.  1.
</event>
<event>
 7    1  0.8653652E-006  0.8794064E+02  0.7561462E-02  0.1307917E+00
         -2   -1    0    0    0  501 -0.00000000000E+00  0.00000000000E+00  0.54385679711E+02  0.54385679711E+02  0.00000000000E+00 0.  1.
          2   -1    0    0  501    0  0.00000000000E+00 -0.00000000000E+00 -0.32017413382E+03  0.32017413382E+03  0.00000000000E+00 0. -1.
         23    2    1    2    0    0 -0.53631596721E+02 -0.28950829971E+02 -0.86401688957E+02  0.16378777184E+03  0.12508670443E+03 0.  0.
          5    1    3    3  502    0  0.17008481661E+02  0.13622565546E+02  0.19467681027E+02  0.29518227336E+02  0.41800000000E+01 0. -1.
         -5    1    3    3    0  502 -0.70640078382E+02 -0.42573395518E+02 -0.10586936998E+03  0.13426954450E+03  0.41800000000E+01 0. -1.
        -11    1    1    2    0    0  0.38767702171E+02  0.22784994218E+00 -0.17365136925E+03  0.17792634625E+03  0.00000000000E+00 0. -1.
         11    1    1    2    0    0  0.14863894549E+02  0.28722980029E+02 -0.57353958987E+01  0.32845695442E+02  0.00000000000E+00 0.  1.
</event>
<event>
 7    1  0.8653652E-006  0.7448785E+02  0.7561462E-02  0.1345464E+00
          1   -1    0    0  501    0  0.00000000000E+00  0.00000000000E+00  0.27625116639E+03  0.27625116639E+03  0.00000000000E+00 0. -1.
         -1   -1    0    0    0  501 -0.00000000000E+00 -0.00000000000E+00 -0.57778891657E+02  0.57778891657E+02  0.00000000000E+00 0.  1.
         23    2    1    2    0    0 -0.41413564819E+02 -0.25387818483E+02  0.63921673147E+02  0.14864256144E+03  0.12509598752E+03 0.  0.
          5    1    3    3  502    0  0.37865423348E+01 -0.11060560060E+02  0.92362233524E+02  0.93192963647E+02  0.41800000000E+01 0.  1.
         -5    1    3    3    0  502 -0.45200107154E+02 -0.14327258423E+02 -0.28440560377E+02  0.55449597791E+02  0.41800000000E+01 0.  1.
        -11    1    1    2    0    0 -0.21566800133E+02  0.15617934133E+01  0.62387396307E+01  0.22505286908E+02  0.00000000000E+00 0.  1.
         11    1    1    2    0    0  0.62980364952E+02  0.23826025070E+02  0.14831186196E+03  0.16288220970E+03  0.00000000000E+00 0. -1.
</event>
<event>
 7    1  0.8653652E-006  0.1471291E+03  0.7561462E-02  0.1204046E+00
          2   -1    0    0  501    0  0.00000000000E+00  0.00000000000E+00  0.13342812079E+03  0.13342812079E+03  0.00000000000E+00 0. -1.
         -2   -1    0    0    0  501 -0.00000000000E+00 -0.00000000000E+00 -0.24182603712E+03  0.24182603712E+03  0.00000000000E+00 0.  1.
         23    2    1    2    0    0 -0.12962780003E+03 -0.25407226535E+02 -0.10541961917E+03  0.21025975350E+03  0.12508786565E+03 0.  0.
          5    1    3    3  502    0 -0.64827080562E+02  0.34376833604E+02 -0.96849270729E+02  0.12157948307E+03  0.41800000000E+01 0.  1.
         -5    1    3    3    0  502 -0.64800719468E+02 -0.59784060139E+02 -0.85703484401E+01  0.88680270425E+02  0.41800000000E+01 0.  1.
        -11    1    1    2    0    0  0.48836254147E+02  0.44992618482E+01  0.46827504221E+02  0.67808835913E+02  0.00000000000E+00 0. -1.
         11    1    1    2    0    0  0.80791545883E+02  0.20907964687E+02 -0.49805801379E+02  0.97185568499E+02  0.00000000000E+00 0.  1.
</event>
<event>
 7    1  0.8653652E-006  0.1246827E+03  0.7561462E-02  0.1235566E+00
         -2   -1    0    0    0  501 -0.00000000000E+00  0.00000000000E+00  0.14906104954E+03  0.14906104954E+03  0.00000000000E+00 0.  1.
          2   -1    0    0  501    0  0.00000000000E+00 -0.00000000000E+00 -0.11786472040E+03  0.11786472040E+03  0.00000000000E+00 0. -1.
         23    2    1    2    0    0  0.17528124133E+02 -0.69485290099E+02  0.41595751989E+02  0.15005607131E+03  0.12510466529E+03 0.  0.
          5    1    3    3  502    0  0.28066419890E+02  0.30923039105E+02  0.21008376906E+02  0.46933810555E+02  0.41800000000E+01 0. -1.
         -5    1    3    3    0  502 -0.10538295757E+02 -0.10040832920E+03  0.20587375083E+02  0.10312226076E+03  0.41800000000E+01 0. -1.
        -11    1    1    2    0    0  0.25164393413E+02  0.56299203124E+02  0.17612066370E+02  0.64132923293E+02  0.00000000000E+00 0.  1.
         11    1    1    2    0    0 -0.42692517546E+02  0.13186086975E+02 -0.28011489220E+02  0.52736775332E+02  0.00000000000E+00 0. -1.
</event>
<event>
 7    1  0.8653652E-006  0.1658929E+03  0.7561462E-02  0.1182200E+00
          2   -1    0    0  501    0  0.00000000000E+00  0.00000000000E+00  0.49068666876E+03  0.49068666876E+03  0.00000000000E+00 0. -1.
         -2   -1    0    0    0  501 -0.00000000000E+00 -0.00000000000E+00 -0.58788059840E+02  0.58788059840E+02  0.00000000000E+00 0.  1.
         23    2    1    2    0    0  0.89377016369E+02  0.81974467850E+02  0.19010545298E+03  0.25786632771E+03  0.12508755046E+03 0.  0.
          5    1    3    3  502    0  0.11901663588E+03  0.62023715640E+02  0.17008304013E+03  0.21669705549E+03  0.41800000000E+01 0. -1.
         -5    1    3    3    0  502 -0.29639619516E+02  0.19950752210E+02  0.20022412845E+02  0.41169272217E+02  0.41800000000E+01 0. -1.
        -11    1    1    2    0    0 -0.65575204152E+02 -0.10795133245E+03  0.20402629518E+03  0.23995901046E+03  0.00000000000E+00 0.  1.
         11    1    1    2    0    0 -0.23801812217E+02  0.25976864604E+02  0.37766860765E+02  0.51649390427E+02  0.00000000000E+00 0. -1.
</event>
<event>
 7    1  0.8653652E-006  0.1362621E+03  0.7561462E-02  0.1218449E+00
          1   -1    0    0  501    0  0.00000000000E+00  0.00000000000E+00  0.21209792025E+03  0.21209792025E+03  0.00000000000E+00 0.  1.
         -1   -1    0    0    0  501 -0.00000000000E+00 -0.00000000000E+00 -0.15211918534E+03  0.15211918534E+03  0.00000000000E+00 0. -1.
         23    2    1    2    0    0 -0.12403355647E+03 -0.41963172734E+02 -0.32230431897E+02  0.18393460547E+03  0.12509159585E+03 0.  0.
          5    1    3    3  502    0 -0.12003481816E+03 -0.28738091696E+02  0.24062721906E+02  0.12582019898E+03  0.41800000000E+01 0.  1.
         -5    1    3    3    0  502 -0.39987383054E+01 -0.13225081038E+02 -0.56293153803E+02  0.58114406489E+02  0.41800000000E+01 0.  1.
        -11    1    1    2    0    0  0.33302125118E+02 -0.27982667780E+01  0.68726237631E+02  0.76420923661E+02  0.00000000000E+00 0.  1.
         11    1    1    2    0    0  0.90731431353E+02  0.44761439512E+02  0.23482929174E+02  0.10386157646E+03  0.00000000000E+00 0. -1.
</event>
<event>
 7    1  0.8653652E-006  0.1633889E+03  0.7561462E-02  0.1184923E+00
          2   -1    0    0  501    0  0.00000000000E+00  0.00000000000E+00  0.62490958236E+03  0.62490958236E+03  0.00000000000E+00 0.  1.
         -2   -1    0    0    0  501 -0.00000000000E+00 -0.00000000000E+00 -0.45602118995E+02  0.45602118995E+02  0.00000000000E+00 0. -1.
         23    2    1    2    0    0 -0.93189224155E+02 -0.85202671426E+02  0.23130333506E+03  0.29170672071E+03  0.12509137213E+03 0.  0.
          5    1    3    3  502    0 -0.84896637102E+02 -0.11668241088E+03  0.19700355457E+03  0.24423369324E+03  0.41800000000E+01 0. -1.
         -5    1    3    3    0  502 -0.82925870530E+01  0.31479739449E+02  0.34299780492E+02  0.47473027475E+02  0.41800000000E+01 0. -1.
        -11    1    1    2    0    0  0.10805354356E+03  0.73557834303E+02  0.30626515869E+03  0.33299349947E+03  0.00000000000E+00 0.  1.
         11    1    1    2    0    0 -0.14864319402E+02  0.11644837123E+02  0.41738969615E+02  0.45811481175E+02  0.00000000000E+00 0. -1.
</event>
<event>
 7    1  0.8653652E-006  0.1421338E+03  0.7561462E-02  0.1210486E+00
          1   -1    0    0  501    0  0.00000000000E+00  0.00000000000E+00  0.44151364655E+02  0.44151364655E+02  0.00000000000E+00 0. -1.
         -1   -1    0    0    0  501 -0.00000000000E+00 -0.00000000000E+00 -0.51006303353E+03  0.51006303353E+03  0.00000000000E+00 0.  1.
         23    2    1    2    0    0  0.60909316994E+02  0.83142693207E+02 -0.24946514932E+03  0.29749749133E+03  0.12509693958E+03 0.  0.
          5    1    3    3  502    0  0.81010661837E+01  0.94808051932E+02 -0.20945988482E+03  0.23009804374E+03  0.41800000000E+01 0.  1.
         -5    1    3    3    0  502  0.52808250810E+02 -0.11665358725E+02 -0.40005264502E+02  0.67399447592E+02  0.41800000000E+01 0.  1.
        -11    1    1    2    0    0 -0.50794865245E+02  0.23023936260E+00 -0.55906022758E+02  0.75535784407E+02  0.00000000000E+00 0. -1.
         11    1    1    2    0    0 -0.10114451748E+02 -0.83372932570E+02 -0.16054049679E+03  0.18118112244E+03  0.00000000000E+00 0.  1.
</event>
<event>
 7    1  0.8653652E-006  0.1352409E+03  0.7561462E-02  0.1219880E+00
          1   -1    0    0  501    0  0.00000000000E+00  0.00000000000E+00  0.32313401644E+03  0.32313401644E+03  0.00000000000E+00 0. -1.
         -1   -1    0    0    0  501 -0.00000000000E+00 -0.00000000000E+00 -0.10323176552E+03  0.10323176552E+03  0.00000000000E+00 0.  1.
         23    2    1    2    0    0 -0.69219239176E+02 -0.35827930242E+02 -0.25723056449E+02  0.14961341457E+03  0.12509018558E+03 0.  0.
          5    1    3    3  502    0  0.11543809084E+02  0.34201435672E+02 -0.22188975478E+02  0.42577232918E+02  0.41800000000E+01 0.  1.
         -5    1    3    3    0  502 -0.80763048260E+02 -0.70029365915E+02 -0.35340809713E+01  0.10703618165E+03  0.41800000000E+01 0.  1.
        -11    1    1    2    0    0  0.18608915758E+02 -0.35279467145E+02  0.86794431224E+02  0.95520708955E+02  0.00000000000E+00 0. -1.
         11    1    1    2    0    0  0.50610323418E+02  0.71107397387E+02  0.15883087615E+03  0.18123165843E+03  0.00000000000E+00 0.  1.
</event>
<event>
 7    1  0.8653652E-006  0.8720161E+02  0.7561462E-02  0.1309773E+00
         -2   -1    0    0    0  501 -0.00000000000E+00  0.00000000000E+00  0.54765729434E+02  0.54765729434E+02  0.00000000000E+00 0.  1.
          2   -1    0    0  501    0  0.00000000000E+00 -0.00000000000E+00 -0.26676838335E+03  0.26676838335E+03  0.00000000000E+00 0. -1.
         23    2    1    2    0    0  0.49099912986E+02  0.13488306261E+02 -0.94726934844E+02  0.16496009567E+03  0.12508359252E+03 0.  0.
          5    1    3    3  502    0  0.26498114344E+02  0.54684801126E+02 -0.10041400860E+03  0.11744370167E+03  0.41800000000E+01 0.  1.
         -5    1    3    3    0  502  0.22601798642E+02 -0.41196494865E+02  0.56870737587E+01  0.47516394002E+02  0.41800000000E+01 0.  1.
        -11    1    1    2    0    0 -0.37331056600E+02  0.11194380946E+02 -0.30183786503E+01  0.39090057065E+02  0.00000000000E+00 0.  1.
         11    1    1    2    0    0 -0.11768856386E+02 -0.24682687207E+02 -0.11425734042E+03  0.11748396005E+03  0.00000000000E+00 0. -1.
</event>
<event>
 7    1  0.8653652E-006  0.1260915E+03  0.7561462E-02  0.1233373E+00
         -2   -1    0    0    0  501 -0.00000000000E+00  0.00000000000E+00  0.31638683205E+02  0.31638683205E+02  0.00000000000E+00 0.  1.
          2   -1    0    0  501    0  0.00000000000E+00 -0.00000000000E+00 -0.72565147617E+03  0.72565147617E+03  0.00000000000E+00 0. -1.
         23    2    1    2    0    0  0.98499468849E+02 -0.10339198244E+02 -0.28655084213E+03  0.32797118746E+03  0.12507865644E+03 0.  0.
          5    1    3    3  502    0  0.11697042597E+03 -0.18852884855E+02 -0.15682237954E+03  0.19659156376E+03  0.41800000000E+01 0.  1.
         -5    1    3    3    0  502 -0.18470957123E+02  0.85136866111E+01 -0.12972846259E+03  0.13137962369E+03  0.41800000000E+01 0.  1.
        -11    1    1    2    0    0 -0.37415921413E+02  0.30783302871E+02 -0.66231405429E+02  0.82061939875E+02  0.00000000000E+00 0.  1.
         11    1    1    2    0    0 -0.61083547436E+02 -0.20444104627E+02 -0.34123054541E+03  0.34725703204E+03  0.00000000000E+00 0. -1.
</event>
<event>
 7    1  0.8653652E-006  0.1040290E+03  0.7561462E-02  0.1272045E+00
          1   -1    0    0  501    0  0.00000000000E+00  0.00000000000E+00  0.39727519343E+03  0.39727519343E+03  0.00000000000E+00 0. -1.
         -1   -1    0    0    0  501 -0.00000000000E+00 -0.00000000000E+00 -0.31859880646E+02  0.31859880646E+02  0.00000000000E+00 0.  1.
         23    2    1    2    0    0 -0.85178008808E+01 -0.69443968339E+01  0.14939690213E+03  0.19522993278E+03  0.12519790216E+03 0.  0.
          5    1    3    3  502    0  0.53746841266E+02 -0.23847883501E+02  0.53707259973E+02  0.79745762692E+02  0.41800000000E+01 0. -1.
         -5    1    3    3    0  502 -0.62264642146E+02  0.16903486667E+02  0.95689642162E+02  0.11548417008E+03  0.41800000000E+01 0. -1.
        -11    1    1    2    0    0  0.30765759858E+02 -0.28937634073E+02  0.68596458485E+02  0.80556767326E+02  0.00000000000E+00 0.  1.
         11    1    1    2    0    0 -0.22247958977E+02  0.35882030906E+02  0.14742195217E+03  0.15334837398E+03  0.00000000000E+00 0. -1.
</event>
<event>
 7    1  0.8653652E-006  0.7033472E+02  0.7561462E-02  0.1358959E+00
         -1   -1    0    0    0  501 -0.00000000000E+00  0.00000000000E+00  0.28634366673E+03  0.28634366673E+03  0.00000000000E+00 0.  1.
          1   -1    0    0  501    0  0.00000000000E+00 -0.00000000000E+00 -0.51861092820E+02  0.51861092820E+02  0.00000000000E+00 0. -1.
         23    2    1    2    0    0 -0.55174812959E+02 -0.92008184167E+01  0.13582046578E+03  0.19293343996E+03  0.12508876162E+03 0.  0.
          5    1    3    3  502    0 -0.12285841850E+01  0.47431138156E+01  0.13689591077E+03  0.13704732516E+03  0.41800000000E+01 0.  1.
         -5    1    3    3    0  502 -0.53946228774E+02 -0.13943932232E+02 -0.10754449902E+01  0.55886114795E+02  0.41800000000E+01 0.  1.
        -11    1    1    2    0    0 -0.96791025050E+01 -0.64579609221E+01 -0.11577838438E+02  0.16414524893E+02  0.00000000000E+00 0. -1.
         11    1    1    2    0    0  0.64853915464E+02  0.15658779339E+02  0.11023994656E+03  0.12885679469E+03  0.00000000000E+00 0.  1.
</event>
<event>
 7    1  0.1054508E-005  0.2904396E+03  0.7561462E-02  0.1090120E+00
         -1   -1    0    0    0  501 -0.00000000000E+00  0.00000000000E+00  0.10325351194E+03  0.10325351194E+03  0.00000000000E+00 0.  1.
          1   -1    0    0  501    0  0.00000000000E+00 -0.00000000000E+00 -0.10172750462E+04  0.10172750462E+04  0.00000000000E+00 0. -1.
         23    2    1    2    0    0  0.23418379397E+03  0.16175222419E+03 -0.27552136440E+03  0.41540974054E+03  0.12508956354E+03 0.  0.
          5    1    3    3  502    0  0.84768565580E+02  0.10100975695E+03 -0.19407757806E+03  0.23467479501E+03  0.41800000000E+01 0.  1.
         -5    1    3    3    0  502  0.14941522839E+03  0.60742467244E+02 -0.81443786344E+02  0.18073494553E+03  0.41800000000E+01 0.  1.
        -11    1    1    2    0    0 -0.67582680206E+02 -0.24982916506E+02 -0.86818696986E+02  0.11282309572E+03  0.00000000000E+00 0.  1.
         11    1    1    2    0    0 -0.16660111377E+03 -0.13676930768E+03 -0.55168147283E+03  0.59229572182E+03  0.00000000000E+00 0. -1.
</event>
<event>
 7    1  0.8653652E-006  0.1107231E+03  0.7561462E-02  0.1259237E+00
          2   -1    0    0  501    0  0.00000000000E+00  0.00000000000E+00  0.13254610232E+03  0.13254610232E+03  0.00000000000E+00 0.  1.
         -2   -1    0    0    0  501 -0.00000000000E+00 -0.00000000000E+00 -0.12024230584E+03  0.12024230584E+03  0.00000000000E+00 0. -1.
         23    2    1    2    0    0 -0.42395974895E+02 -0.75460648423E+01 -0.43505585397E+02  0.13926387939E+03  0.12508928955E+03 0.  0.
          5    1    3    3  502    0 -0.82987937997E+02 -0.74388107627E+01 -0.50993245269E+02  0.97775851935E+02  0.41800000000E+01 0.  1.
         -5    1    3    3    0  502  0.40591963101E+02 -0.10725407956E+00  0.74876598719E+01  0.41488027456E+02  0.41800000000E+01 0.  1.
        -11    1    1    2    0    0  0.42465624051E+02 -0.34778375217E+02  0.21163933167E+02  0.58828366252E+02  0.00000000000E+00 0. -1.
         11    1    1    2    0    0 -0.69649156228E-01  0.42324440059E+02  0.34645448719E+02  0.54696162518E+02  0.00000000000E+00 0.  1.
</event>
<event>
 7    1  0.8653652E-006  0.1169280E+03  0.7561462E-02  0.1248253E+00
         -3   -1    0    0    0  501 -0.00000000000E+00  0.00000000000E+00  0.19523532354E+03  0.19523532354E+03  0.00000000000E+00 0.  1.
          3   -1    0    0  501    0  0.00000000000E+00 -0.00000000000E+00 -0.11881870504E+03  0.11881870504E+03  0.00000000000E+00 0. -1.
         23    2    1    2    0    0 -0.87748362892E+02 -0.43639285616E+02  0.89256909243E+02  0.18225896362E+03  0.12508945413E+03 0.  0.
          5    1    3    3  502    0 -0.90480015693E+02 -0.59309930974E+02  0.11095951599E+03  0.15502834496E+03  0.41800000000E+01 0.  1.
         -5    1    3    3    0  502  0.27316528011E+01  0.15670645358E+02 -0.21702606750E+02  0.27230618662E+02  0.41800000000E+01 0.  1.
        -11    1    1    2    0    0  0.54474785611E+02  0.51486133491E+02  0.26659945169E+02  0.79555495634E+02  0.00000000000E+00 0.  1.
         11    1    1    2    0    0  0.33273577282E+02 -0.78468478748E+01 -0.39500235905E+02  0.52239569325E+02  0.00000000000E+00 0. -1.
</event>
<event>
 7    1  0.8653652E-006  0.1003856E+03  0.7561462E-02  0.1279487E+00
          2   -1    0    0  501    0  0.00000000000E+00  0.00000000000E+00  0.45797826784E+02  0.45797826784E+02  0.00000000000E+00 0. -1.
         -2   -1    0    0    0  501 -0.00000000000E+00 -0.00000000000E+00 -0.34610466046E+03  0.34610466046E+03  0.00000000000E+00 0.  1.
         23    2    1    2    0    0 -0.31294915434E+02 -0.27616909488E+02 -0.19064608026E+03  0.23180961783E+03  0.12509078933E+03 0.  0.
          5    1    3    3  502    0 -0.65555724086E+02 -0.51303335325E+02 -0.15832136715E+03  0.17892096823E+03  0.41800000000E+01 0. -1.
         -5    1    3    3    0  502  0.34260808652E+02  0.23686425837E+02 -0.32324713116E+02  0.52888649599E+02  0.41800000000E+01 0. -1.
        -11    1    1    2    0    0  0.44583216926E+02 -0.36479836667E+00 -0.11953615461E+03  0.12758012607E+03  0.00000000000E+00 0.  1.
         11    1    1    2    0    0 -0.13288301491E+02  0.27981707855E+02  0.98754011983E+01  0.32512743345E+02  0.00000000000E+00 0. -1.
</event>
<event>
 7    1  0.8653652E-006  0.1172363E+03  0.7561462E-02  0.1247727E+00
         -1   -1    0    0    0  501 -0.00000000000E+00  0.00000000000E+00  0.14348588437E+03  0.14348588437E+03  0.00000000000E+00 0.  1.
          1   -1    0    0  501    0  0.00000000000E+00 -0.00000000000E+00 -0.19093883400E+03  0.19093883400E+03  0.00000000000E+00 0. -1.
         23    2    1    2    0    0  0.79072765304E+02  0.57505524803E+02  0.53543158456E+02  0.16757248672E+03  0.12511706874E+03 0.  0.
          5    1    3    3  502    0  0.74133050597E+02 -0.14459557421E+00 -0.17067394891E+02  0.76187259218E+02  0.41800000000E+01 0. -1.
         -5    1    3    3    0  502  0.49397147068E+01  0.57650120378E+02  0.70610553348E+02  0.91385227499E+02  0.41800000000E+01 0. -1.
        -11    1    1    2    0    0 -0.73627919864E+02 -0.39822554111E+02 -0.11598777952E+03  0.14303870594E+03  0.00000000000E+00 0. -1.
         11    1    1    2    0    0 -0.54448454403E+01 -0.17682970692E+02  0.14991671432E+02  0.23813525709E+02  0.00000000000E+00 0.  1.
</event>
<event>
 7    1  0.8653652E-006  0.2267633E+03  0.7561462E-02  0.1128939E+00
          2   -1    0    0  501    0  0.00000000000E+00  0.00000000000E+00  0.13728339373E+03  0.13728339373E+03  0.00000000000E+00 0. -1.
         -2   -1    0    0    0  501 -0.00000000000E+00 -0.00000000000E+00 -0.46315712847E+03  0.46315712847E+03  0.00000000000E+00 0.  1.
         23    2    1    2    0    0  0.18722215761E+03 -0.71321660648E+02 -0.29615843427E+03  0.37880943206E+03  0.12509137480E+03 0.  0.
          5    1    3    3  502    0 -0.70181679426E+01 -0.37850533059E+02 -0.56234036185E+02  0.68276326496E+02  0.41800000000E+01 0.  1.
         -5    1    3    3    0  502  0.19424032556E+03 -0.33471127589E+02 -0.23992439809E+03  0.31053310556E+03  0.41800000000E+01 0.  1.
        -11    1    1    2    0    0 -0.76352725694E+02  0.74589624589E+02  0.23921711521E+00  0.10673990839E+03  0.00000000000E+00 0. -1.
         11    1    1    2    0    0 -0.11086943192E+03 -0.32679639416E+01 -0.29954517585E+02  0.11489118176E+03  0.00000000000E+00 0.  1.
</event>
<event>
 7    1  0.8653652E-006  0.1138495E+03  0.7561462E-02  0.1253603E+00
         -2   -1    0    0    0  501 -0.00000000000E+00  0.00000000000E+00  0.10998915085E+04  0.10998915085E+04  0.00000000000E+00 0. -1.
          2   -1    0    0  501    0  0.00000000000E+00 -0.00000000000E+00 -0.17736517019E+02  0.17736517019E+02  0.00000000000E+00 0.  1.
         23    2    1    2    0    0  0.13136940025E+02 -0.72810602364E+02  0.79332857077E+03  0.80653040140E+03  0.12508838541E+03 0.  0.
          5    1    3    3  502    0 -0.31260261537E+01  0.21806009031E+02  0.43386399297E+03  0.43444298920E+03  0.41800000000E+01 0.  1.
         -5    1    3    3    0  502  0.16262966179E+02 -0.94616611395E+02  0.35946457780E+03  0.37208741220E+03  0.41800000000E+01 0.  1.
        -11    1    1    2    0    0  0.31300369743E+02  0.11254873651E+02  0.14154006181E+03  0.14539592300E+03  0.00000000000E+00 0. -1.
         11    1    1    2    0    0 -0.44437309769E+02  0.61555728713E+02  0.14728635887E+03  0.16570170110E+03  0.00000000000E+00 0.  1.
</event>
<event>
 7    1  0.8653652E-006  0.8094050E+02  0.7561462E-02  0.1326403E+00
          1   -1    0    0  501    0  0.00000000000E+00  0.00000000000E+00  0.95945390122E+02  0.95945390122E+02  0.00000000000E+00 0. -1.
         -1   -1    0    0    0  501 -0.00000000000E+00 -0.00000000000E+00 -0.16670239932E+03  0.16670239932E+03  0.00000000000E+00 0.  1.
         23    2    1    2    0    0  0.35173440955E+02 -0.30095333569E+01 -0.96333956346E+02  0.16178419418E+03  0.12509063156E+03 0.  0.
          5    1    3    3  502    0  0.61743910544E+02  0.20166851405E+02 -0.10653332553E+03  0.12484323864E+03  0.41800000000E+01 0. -1.
         -5    1    3    3    0  502 -0.26570469589E+02 -0.23176384762E+02  0.10199369187E+02  0.36940955546E+02  0.41800000000E+01 0. -1.
        -11    1    1    2    0    0 -0.13465361744E+01  0.22304234492E+02 -0.27246285771E+02  0.35237084503E+02  0.00000000000E+00 0.  1.
         11    1    1    2    0    0 -0.33826904781E+02 -0.19294701135E+02  0.52823232914E+02  0.65626510759E+02  0.00000000000E+00 0. -1.
</event>
<event>
 7    1  0.8653652E-006  0.6300031E+02  0.7561462E-02  0.1385655E+00
         -3   -1    0    0    0  501 -0.00000000000E+00  0.00000000000E+00  0.14077779213E+03  0.14077779213E+03  0.00000000000E+00 0.  1.
          3   -1    0    0  501    0  0.00000000000E+00 -0.00000000000E+00 -0.11241591716E+03  0.11241591716E+03  0.00000000000E+00 0. -1.
         23    2    1    2    0    0 -0.37167240051E+02 -0.71443235634E+01  0.66651562210E+02  0.14670521159E+03  0.12509014058E+03 0.  0.
          5    1    3    3  502    0 -0.20472237253E+02 -0.34737192935E+02 -0.26237993258E+02  0.48287573571E+02  0.41800000000E+01 0. -1.
         -5    1    3    3    0  502 -0.16695002798E+02  0.27592869372E+02  0.92889555468E+02  0.98417638021E+02  0.41800000000E+01 0. -1.
        -11    1    1    2    0    0  0.20918393866E+02 -0.14809742173E+02 -0.64022810807E+02  0.68962511329E+02  0.00000000000E+00 0. -1.
         11    1    1    2    0    0  0.16248846185E+02  0.21954065736E+02  0.25733123564E+02  0.37525986370E+02  0.00000000000E+00 0.  1.
</event>
<event>
 7    1  0.8653652E-006  0.1196575E+03  0.7561462E-02  0.1243663E+00
         -2   -1    0    0    0  501 -0.00000000000E+00  0.00000000000E+00  0.24011216631E+02  0.24011216631E+02  0.00000000000E+00 0.  1.
          2   -1    0    0  501    0  0.00000000000E+00 -0.00000000000E+00 -0.10535151254E+04  0.10535151254E+04  0.00000000000E+00 0. -1.
         23    2    1    2    0    0 -0.15792844549E+02  0.10303868387E+03 -0.36957183205E+03  0.40385287969E+03  0.12508966815E+03 0.  0.
          5    1    3    3  502    0 -0.12163607235E+02  0.64196550233E+02 -0.35655350153E+03  0.36251485798E+03  0.41800000000E+01 0. -1.
         -5    1    3    3    0  502 -0.36292373142E+01  0.38842133639E+02 -0.13018330512E+02  0.41338021705E+02  0.41800000000E+01 0. -1.
        -11    1    1    2    0    0  0.50950341292E+02 -0.53699392295E+02 -0.39810074047E+03  0.40492438995E+03  0.00000000000E+00 0. -1.
         11    1    1    2    0    0 -0.35157496742E+02 -0.49339291578E+02 -0.26183133628E+03  0.26874907242E+03  0.00000000000E+00 0.  1.
</event>
<event>
 7    1  0.8653652E-006  0.6446004E+02  0.7561462E-02  0.1380014E+00
         -1   -1    0    0    0  501 -0.00000000000E+00  0.00000000000E+00  0.16594421840E+03  0.16594421840E+03  0.00000000000E+00 0.  1.
          1   -1    0    0  501    0  0.00000000000E+00 -0.00000000000E+00 -0.76151656433E+02  0.76151656433E+02  0.00000000000E+00 0. -1.
         23    2    1    2    0    0  0.22959282443E+02  0.16723580328E+02  0.57479772356E+02  0.14055636820E+03  0.12508141998E+03 0.  0.
          5    1    3    3  502    0  0.14172629681E+02  0.20794234756E+02 -0.37301508160E+02  0.45190027021E+02  0.41800000000E+01 0. -1.
         -5    1    3    3    0  502  0.87866527622E+01 -0.40706544287E+01  0.94781280516E+02  0.95366341182E+02  0.41800000000E+01 0. -1.
        -11    1    1    2    0    0 -0.32666357905E+02  0.30476280144E+02  0.28948558164E+02  0.53234515213E+02  0.00000000000E+00 0. -1.
         11    1    1    2    0    0  0.97070754618E+01 -0.47199860472E+02  0.33642314493E+01  0.48304991418E+02  0.00000000000E+00 0.  1.
</event>
<event>
 7    1  0.8653652E-006  0.1304912E+03  0.7561462E-02  0.1226729E+00
         -2   -1    0    0    0  501 -0.00000000000E+00  0.00000000000E+00  0.19324787755E+02  0.19324787755E+02  0.00000000000E+00 0.  1.
          2   -1    0    0  501    0  0.00000000000E+00 -0.00000000000E+00 -0.11905449119E+04  0.11905449119E+04  0.00000000000E+00 0. -1.
         23    2    1    2    0    0  0.10399572010E+03 -0.14025334433E+02 -0.62795825935E+03  0.64883919944E+03  0.12509560915E+03 0.  0.
          5    1    3    3  502    0  0.61647447644E+02 -0.45947363169E+02 -0.15678831516E+03  0.17467574575E+03  0.41800000000E+01 0. -1.
         -5    1    3    3    0  502  0.42348272457E+02  0.31922028736E+02 -0.47116994419E+03  0.47416345368E+03  0.41800000000E+01 0. -1.
        -11    1    1    2    0    0 -0.79061499130E+02 -0.26345562671E+02 -0.43371442392E+03  0.44164806219E+03  0.00000000000E+00 0.  1.
         11    1    1    2    0    0 -0.24934220971E+02  0.40370897104E+02 -0.10954744083E+03  0.11938243799E+03  0.00000000000E+00 0. -1.
</event>
<event>
 7    1  0.8653652E-006  0.3011981E+03  0.7561462E-02  0.1084643E+00
         -1   -1    0    0    0  501 -0.00000000000E+00  0.00000000000E+00  0.68121396407E+02  0.68121396407E+02  0.00000000000E+00 0.  1.
          1   -1    0    0  501    0  0.00000000000E+00 -0.00000000000E+00 -0.15383292227E+04  0.15383292227E+04  0.00000000000E+00 0. -1.
         23    2    1    2    0    0 -0.28727196266E+03 -0.78025475346E+02 -0.58488734915E+03  0.66809813805E+03  0.12509498603E+03 0.  0.
          5    1    3    3  502    0 -0.14389015335E+03 -0.43622463374E+02 -0.16606846548E+03  0.22406138259E+03  0.41800000000E+01 0.  1.
         -5    1    3    3    0  502 -0.14338180931E+03 -0.34403011972E+02 -0.41881888368E+03  0.44403675546E+03  0.41800000000E+01 0.  1.
        -11    1    1    2    0    0  0.11194630301E+03 -0.14893712205E+01 -0.23811233344E+03  0.26311912953E+03  0.00000000000E+00 0.  1.
         11    1    1    2    0    0  0.17532565965E+03  0.79514846566E+02 -0.64720814372E+03  0.67523335156E+03  0.00000000000E+00 0. -1.
</event>
<event>
 7    1  0.8653652E-006  0.1096734E+03  0.7561462E-02  0.1261176E+00
         -2   -1    0    0    0  501 -0.00000000000E+00  0.00000000000E+00  0.47512811269E+02  0.47512811269E+02  0.00000000000E+00 0.  1.
          2   -1    0    0  501    0  0.00000000000E+00 -0.00000000000E+00 -0.40127524345E+03  0.40127524345E+03  0.00000000000E+00 0. -1.
         23    2    1    2    0    0 -0.20070861476E+02  0.79685709032E+02 -0.15732967419E+03  0.21714954095E+03  0.12509454444E+03 0.  0.
          5    1    3    3  502    0 -0.55220340325E+02  0.10181083604E+02 -0.11584632680E+03  0.12880521838E+03  0.41800000000E+01 0. -1.
         -5    1    3    3    0  502  0.35149478849E+02  0.69504625428E+02 -0.41483347395E+02  0.88344322570E+02  0.41800000000E+01 0. -1.
        -11    1    1    2    0    0  0.13690289343E+02 -0.16089378944E+02  0.37887977347E+01  0.21462691475E+02  0.00000000000E+00 0.  1.
         11    1    1    2    0    0  0.63805721332E+01 -0.63596330088E+02 -0.20022155573E+03  0.21017582230E+03  0.00000000000E+00 0. -1.
</event>
<event>
 7    1  0.8653652E-006  0.9317682E+02  0.7561462E-02  0.1295336E+00
         -2   -1    0    0    0  501 -0.00000000000E+00  0.00000000000E+00  0.42188272836E+02  0.42188272836E+02  0.00000000000E+00 0.  1.
          2   -1    0    0  501    0  0.00000000000E+00 -0.00000000000E+00 -0.33589972278E+03  0.33589972278E+03  0.00000000000E+00 0. -1.
         23    2    1    2    0    0  0.97010090939E+01 -0.48530554199E+02 -0.14328789478E+03  0.19654103069E+03  0.12509049398E+03 0.  0.
          5    1    3    3  502    0 -0.11189543709E+02  0.33300526018E+02 -0.68658048511E+01  0.36038071505E+02  0.41800000000E+01 0.  1.
         -5    1    3    3    0  502  0.20890552803E+02 -0.81831080217E+02 -0.13642208993E+03  0.16050295918E+03  0.41800000000E+01 0.  1.
        -11    1    1    2    0    0 -0.25393553412E+02  0.15247122405E+02 -0.31968199640E+01  0.29791390609E+02  0.00000000000E+00 0.  1.
         11    1    1    2    0    0  0.15692544318E+02  0.33283431794E+02 -0.14722673520E+03  0.15175557432E+03  0.00000000000E+00 0. -1.
</event>
<event>
 7    1  0.8653652E-006  0.1771953E+03  0.7561462E-02  0.1170545E+00
          4   -1    0    0  501    0  0.00000000000E+00  0.00000000000E+00  0.31837266895E+03  0.31837266895E+03  0.00000000000E+00 0. -1.
         -4   -1    0    0    0  501 -0.00000000000E+00 -0.00000000000E+00 -0.13282364211E+03  0.13282364211E+03  0.00000000000E+00 0.  1.
         23    2    1    2    0    0  0.88439441130E+02  0.13539230805E+03  0.26403684829E+02  0.20614972831E+03  0.12509174267E+03 0.  0.
          5    1    3    3  502    0  0.54628656511E+02  0.14185814141E+03  0.54477025543E+02  0.16153402461E+03  0.41800000000E+01 0. -1.
         -5    1    3    3    0  502  0.33810784619E+02 -0.64658333585E+01 -0.28073340715E+02  0.44615703698E+02  0.41800000000E+01 0. -1.
        -11    1    1    2    0    0 -0.39524271387E+02 -0.24654487761E+02  0.99985083249E+02  0.11030425499E+03  0.00000000000E+00 0. -1.
         11    1    1    2    0    0 -0.48915169742E+02 -0.11073782029E+03  0.59160258769E+02  0.13474232776E+03  0.00000000000E+00 0.  1.
</event>
<event>
 7    1  0.8653652E-006  0.1848831E+03  0.7561462E-02  0.1163159E+00
         -2   -1    0    0    0  501 -0.00000000000E+00  0.00000000000E+00  0.11976400527E+03  0.11976400527E+03  0.00000000000E+00 0.  1.
          2   -1    0    0  501    0  0.00000000000E+00 -0.00000000000E+00 -0.34477261957E+03  0.34477261957E+03  0.00000000000E+00 0. -1.
         23    2    1    2    0    0 -0.10400153676E+03 -0.12642296978E+03 -0.55833849849E+02  0.21345646154E+03  0.12508858960E+03 0.  0.
          5    1    3    3  502    0 -0.46278038988E+02 -0.12760406087E+03 -0.71518732044E+02  0.15348242465E+03  0.41800000000E+01 0. -1.
         -5    1    3    3    0  502 -0.57723497772E+02  0.11810910913E+01  0.15684882195E+02  0.59974036888E+02  0.41800000000E+01 0. -1.
        -11    1    1    2    0    0 -0.10264449664E+01  0.40140729625E+02 -0.77026801589E+02  0.86864606873E+02  0.00000000000E+00 0.  1.
         11    1    1    2    0    0  0.10502798173E+03  0.86282240153E+02 -0.92147962864E+02  0.16421555642E+03  0.00000000000E+00 0. -1.
</event>
<event>
 7    1  0.8653652E-006  0.1102573E+03  0.7561462E-02  0.1260094E+00
         -4   -1    0    0    0  501 -0.00000000000E+00  0.00000000000E+00  0.59047241953E+02  0.59047241953E+02  0.00000000000E+00 0. -1.
          4   -1    0    0  501    0  0.00000000000E+00 -0.00000000000E+00 -0.23540155416E+03  0.23540155416E+03  0.00000000000E+00 0.  1.
         23    2    1    2    0    0 -0.43202523053E+02  0.71981423031E+01 -0.79625087620E+02  0.15461116469E+03  0.12508471696E+03 0.  0.
          5    1    3    3  502    0  0.43612313439E+02 -0.38139566420E+01 -0.35490258164E+02  0.56512042728E+02  0.41800000000E+01 0.  1.
         -5    1    3    3    0  502 -0.86814836492E+02  0.11012098945E+02 -0.44134829456E+02  0.98099121960E+02  0.41800000000E+01 0.  1.
        -11    1    1    2    0    0 -0.13921050231E+01 -0.35878442221E+02 -0.84925289371E+01  0.36896119313E+02  0.00000000000E+00 0. -1.
         11    1    1    2    0    0  0.44594628076E+02  0.28680299918E+02 -0.88236695653E+02  0.10294151211E+03  0.00000000000E+00 0.  1.
</event>
<event>
 7    1  0.8653652E-006  0.1218854E+03  0.7561462E-02  0.1240019E+00
          2   -1    0    0  501    0  0.00000000000E+00  0.00000000000E+00  0.18011424258E+03  0.18011424258E+03  0.00000000000E+00 0. -1.
         -2   -1    0    0    0  501 -0.00000000000E+00 -0.00000000000E+00 -0.99501002096E+02  0.99501002096E+02  0.00000000000E+00 0.  1.
         23    2    1    2    0    0  0.76725478601E+02  0.17317749096E+02  0.36517965690E+02  0.15220658756E+03  0.12508629013E+03 0.  0.
          5    1    3    3  502    0  0.61543145495E+02 -0.44238809815E+02 -0.53773530105E+01  0.76098747537E+02  0.41800000000E+01 0. -1.
         -5    1    3    3    0  502  0.15182333105E+02  0.61556558911E+02  0.41895318701E+02  0.76107840020E+02  0.41800000000E+01 0. -1.
        -11    1    1    2    0    0 -0.63456197947E+02 -0.42142221866E+02  0.13003535183E+01  0.76186264122E+02  0.00000000000E+00 0.  1.
         11    1    1    2    0    0 -0.13269280654E+02  0.24824472770E+02  0.42794921275E+02  0.51222392997E+02  0.00000000000E+00 0. -1.
</event>
<event>
 7    1  0.8653652E-006  0.1099667E+03  0.7561462E-02  0.1260632E+00
         -1   -1    0    0    0  501 -0.00000000000E+00  0.00000000000E+00  0.11842734411E+03  0.11842734411E+03  0.00000000000E+00 0.  1.
          1   -1    0    0  501    0  0.00000000000E+00 -0.00000000000E+00 -0.15434651759E+03  0.15434651759E+03  0.00000000000E+00 0. -1.
         23    2    1    2    0    0  0.10396682024E+02  0.47814240699E+02  0.42649932102E+02  0.14094542997E+03  0.12510917197E+03 0.  0.
          5    1    3    3  502    0 -0.56821470407E+02  0.28012654829E+02  0.13350121804E+02  0.64877472839E+02  0.41800000000E+01 0. -1.
         -5    1    3    3    0  502  0.67218152431E+02  0.19801585870E+02  0.29299810298E+02  0.76067957135E+02  0.41800000000E+01 0. -1.
        -11    1    1    2    0    0  0.17568650222E+02 -0.54694004979E+02 -0.84739051880E+02  0.10237577138E+03  0.00000000000E+00 0. -1.
         11    1    1    2    0    0 -0.27965332246E+02  0.68797642800E+01  0.61699462982E+01  0.29452660347E+02  0.00000000000E+00 0.  1.
</event>
<event>
 7    1  0.8653652E-006  0.9569392E+02  0.7561462E-02  0.1289621E+00
         -4   -1    0    0    0  501 -0.00000000000E+00  0.00000000000E+00  0.84053377023E+02  0.84053377023E+02  0.00000000000E+00 0.  1.
          4   -1    0    0  501    0  0.00000000000E+00 -0.00000000000E+00 -0.15923633504E+03  0.15923633504E+03  0.00000000000E+00 0. -1.
         23    2    1    2    0    0 -0.23902459298E+02  0.37346416899E+02 -0.32168399870E+02  0.13656542264E+03  0.12509686765E+03 0.  0.
          5    1    3    3  502    0 -0.99922768885E+01 -0.44396376910E+02  0.42705366380E+01  0.45897644420E+02  0.41800000000E+01 0.  1.
         -5    1    3    3    0  502 -0.13910182410E+02  0.81742793809E+02 -0.36438936508E+02  0.90667778225E+02  0.41800000000E+01 0.  1.
        -11    1    1    2    0    0  0.29045399591E+02 -0.44669750568E+01 -0.61855833864E+02  0.68481627365E+02  0.00000000000E+00 0. -1.
         11    1    1    2    0    0 -0.51429402930E+01 -0.32879441842E+02  0.18841275713E+02  0.38242662057E+02  0.00000000000E+00 0.  1.
</event>
<event>
 7    1  0.8653652E-006  0.1584068E+03  0.7561462E-02  0.1190507E+00
         -4   -1    0    0    0  501 -0.00000000000E+00  0.00000000000E+00  0.55476201132E+02  0.55476201132E+02  0.00000000000E+00 0.  1.
          4   -1    0    0  501    0  0.00000000000E+00 -0.00000000000E+00 -0.69637715361E+03  0.69637715361E+03  0.00000000000E+00 0. -1.
         23    2    1    2    0    0 -0.74211853384E+02 -0.12416087169E+03 -0.18933505445E+03  0.26910801784E+03  0.12509213078E+03 0.  0.
          5    1    3    3  502    0 -0.71359808828E+01 -0.93344195807E+02 -0.38854597142E+02  0.10144561712E+03  0.41800000000E+01 0. -1.
         -5    1    3    3    0  502 -0.67075872502E+02 -0.30816675879E+02 -0.15048045731E+03  0.16766240072E+03  0.41800000000E+01 0. -1.
        -11    1    1    2    0    0  0.64850364308E+02  0.75107855397E+02 -0.17047030062E+03  0.19724827778E+03  0.00000000000E+00 0.  1.
         11    1    1    2    0    0  0.93614890761E+01  0.49053016289E+02 -0.28109559741E+03  0.28549705912E+03  0.00000000000E+00 0. -1.
</event>
<event>
 7    1  0.8653652E-006  0.1464358E+03  0.7561462E-02  0.1204922E+00
          3   -1    0    0  501    0  0.00000000000E+00  0.00000000000E+00  0.25290573375E+03  0.25290573375E+03  0.00000000000E+00 0. -1.
         -3   -1    0    0    0  501 -0.00000000000E+00 -0.00000000000E+00 -0.13811882951E+03  0.13811882951E+03  0.00000000000E+00 0.  1.
         23    2    1    2    0    0 -0.92074194431E+02 -0.70885042836E+02 -0.41252546811E+02  0.17564478634E+03  0.12508785622E+03 0.  0.
          5    1    3    3  502    0 -0.11067895502E+03 -0.86239763916E+02 -0.50919576783E+02  0.14932315181E+03  0.41800000000E+01 0.  1.
         -5    1    3    3    0  502  0.18604760593E+02  0.15354721080E+02  0.96670299717E+01  0.26321634536E+02  0.41800000000E+01 0.  1.
        -11    1    1    2    0    0  0.37031079453E+01  0.30726001626E+02 -0.77005644873E+00  0.30957925823E+02  0.00000000000E+00 0.  1.
         11    1    1    2    0    0  0.88371086486E+02  0.40159041210E+02  0.15680950750E+03  0.18442185109E+03  0.00000000000E+00 0. -1.
</event>
<event>
 7    1  0.8653652E-006  0.2261731E+03  0.7561462E-02  0.1129363E+00
          1   -1    0    0  501    0  0.00000000000E+00  0.00000000000E+00  0.11021882128E+03  0.11021882128E+03  0.00000000000E+00 0. -1.
         -1   -1    0    0    0  501 -0.00000000000E+00 -0.00000000000E+00 -0.51351797980E+03  0.51351797980E+03  0.00000000000E+00 0.  1.
         23    2    1    2    0    0 -0.79840678486E+02  0.19372883966E+03 -0.24870114227E+03  0.34843752261E+03  0.12510416356E+03 0.  0.
          5    1    3    3  502    0 -0.74646098221E+02  0.39837715227E+02 -0.12439190353E+03  0.15049884252E+03  0.41800000000E+01 0. -1.
         -5    1    3    3    0  502 -0.51945802658E+01  0.15389112443E+03 -0.12430923874E+03  0.19793868009E+03  0.41800000000E+01 0. -1.
        -11    1    1    2    0    0  0.74376191152E+02 -0.13109176432E+03 -0.14938395403E+03  0.21220846874E+03  0.00000000000E+00 0.  1.
         11    1    1    2    0    0  0.54644873347E+01 -0.62637075335E+02 -0.52140622181E+01  0.63090809736E+02  0.00000000000E+00 0. -1.
</event>
<event>
 7    1  0.8653652E-006  0.1355258E+03  0.7561462E-02  0.1219479E+00
          2   -1    0    0  501    0  0.00000000000E+00  0.00000000000E+00  0.37680506835E+03  0.37680506835E+03  0.00000000000E+00 0. -1.
         -2   -1    0    0    0  501 -0.00000000000E+00 -0.00000000000E+00 -0.12345223000E+03  0.12345223000E+03  0.00000000000E+00 0.  1.
         23    2    1    2    0    0 -0.11603635681E+03 -0.45719957568E+02 -0.28581565464E+02  0.17894169127E+03  0.12509385423E+03 0.  0.
          5    1    3    3  502    0 -0.89637597619E+01  0.85448950673E+01  0.38993874913E+02  0.41126134045E+02  0.41800000000E+01 0. -1.
         -5    1    3    3    0  502 -0.10707259705E+03 -0.54264852635E+02 -0.67575440377E+02  0.13781555722E+03  0.41800000000E+01 0. -1.
        -11    1    1    2    0    0  0.12328937989E+02  0.30696680347E+02  0.18721772499E+02  0.38010441484E+02  0.00000000000E+00 0.  1.
         11    1    1    2    0    0  0.10370741882E+03  0.15023277220E+02  0.26321263131E+03  0.28330516561E+03  0.00000000000E+00 0. -1.
</event>
<event>
 7    1  0.8653652E-006  0.1467575E+03  0.7561462E-02  0.1204515E+00
         -1   -1    0    0    0  501 -0.00000000000E+00  0.00000000000E+00  0.18979157140E+02  0.18979157140E+02  0.00000000000E+00 0.  1.
          1   -1    0    0  501    0  0.00000000000E+00 -0.00000000000E+00 -0.12532856638E+04  0.12532856638E+04  0.00000000000E+00 0. -1.
         23    2    1    2    0    0 -0.14190552166E+02  0.10268096866E+03 -0.52424883262E+03  0.54884760396E+03  0.12510835612E+03 0.  0.
          5    1    3    3  502    0 -0.64164821391E+02  0.43830307710E+02 -0.18137760092E+03  0.19736647814E+03  0.41800000000E+01 0. -1.
         -5    1    3    3    0  502  0.49974269224E+02  0.58850660950E+02 -0.34287123170E+03  0.35148112582E+03  0.41800000000E+01 0. -1.
        -11    1    1    2    0    0  0.53466753287E+02 -0.60596994076E+02 -0.41857852943E+03  0.42630819215E+03  0.00000000000E+00 0. -1.
         11    1    1    2    0    0 -0.39276201121E+02 -0.42083974584E+02 -0.29147914459E+03  0.29710902481E+03  0.00000000000E+00 0.  1.
</event>
<event>
 7    1  0.8653652E-006  0.1036243E+03  0.7561462E-02  0.1272854E+00
          2   -1    0    0  501    0  0.00000000000E+00  0.00000000000E+00  0.11927285653E+03  0.11927285653E+03  0.00000000000E+00 0. -1.
         -2   -1    0    0    0  501 -0.00000000000E+00 -0.00000000000E+00 -0.15688690911E+03  0.15688690911E+03  0.00000000000E+00 0.  1.
         23    2    1    2    0    0 -0.12035774584E+02 -0.67517145228E+02  0.17988952612E+02  0.14378860725E+03  0.12509251132E+03 0.  0.
          5    1    3    3  502    0 -0.60241362228E+02 -0.23723514923E+02  0.38422053300E+02  0.75402609127E+02  0.41800000000E+01 0. -1.
         -5    1    3    3    0  502  0.48205587644E+02 -0.43793630305E+02 -0.20433100688E+02  0.68385998122E+02  0.41800000000E+01 0. -1.
        -11    1    1    2    0    0  0.24546074879E+02  0.48256555377E+02 -0.81445009548E+02  0.97798233671E+02  0.00000000000E+00 0.  1.
         11    1    1    2    0    0 -0.12510300295E+02  0.19260589851E+02  0.25842004353E+02  0.34572924723E+02  0.00000000000E+00 0. -1.
</event>
<event>
 7    1  0.8653652E-006  0.1604897E+03  0.7561462E-02  0.1188145E+00
         -1   -1    0    0    0  501 -0.00000000000E+00  0.00000000000E+00  0.36767737833E+03  0.36767737833E+03  0.00000000000E+00 0.  1.
          1   -1    0    0  501    0  0.00000000000E+00 -0.00000000000E+00 -0.88095355786E+02  0.88095355786E+02  0.00000000000E+00 0. -1.
         23    2    1    2    0    0  0.84878561496E+02  0.10527172148E+03  0.20388206355E+03  0.27477564572E+03  0.12508898471E+03 0.  0.
          5    1    3    3  502    0  0.98548347249E+02  0.23766134332E+02  0.11290679652E+03  0.15179599134E+03  0.41800000000E+01 0. -1.
         -5    1    3    3    0  502 -0.13669785753E+02  0.81505587152E+02  0.90975267035E+02  0.12297965438E+03  0.41800000000E+01 0. -1.
        -11    1    1    2    0    0 -0.63175367085E+02 -0.62821899440E+02  0.94382341077E+02  0.12979115672E+03  0.00000000000E+00 0.  1.
         11    1    1    2    0    0 -0.21703194410E+02 -0.42449822044E+02 -0.18682382081E+02  0.51205931682E+02  0.00000000000E+00 0. -1.
</event>
<event>
 7    1  0.8653652E-006  0.9917441E+02  0.7561462E-02  0.1282042E+00
         -2   -1    0    0    0  501 -0.00000000000E+00  0.00000000000E+00  0.11341257865E+03  0.11341257865E+03  0.00000000000E+00 0.  1.
          2   -1    0    0  501    0  0.00000000000E+00 -0.00000000000E+00 -0.17381150610E+03  0.17381150610E+03  0.00000000000E+00 0. -1.
         23    2    1    2    0    0 -0.36897998930E+02  0.47644340303E+02  0.33854933243E+02  0.14292069745E+03  0.12509485907E+03 0.  0.
          5    1    3    3  502    0 -0.27370070882E+02 -0.10824149240E+02 -0.38929632473E+02  0.48982360818E+02  0.41800000000E+01 0.  1.
         -5    1    3    3    0  502 -0.95279280487E+01  0.58468489542E+02  0.72784565716E+02  0.93938336630E+02  0.41800000000E+01 0.  1.
        -11    1    1    2    0    0  0.29653740308E+02  0.23428900159E+02 -0.30880218411E+02  0.48804155213E+02  0.00000000000E+00 0.  1.
         11    1    1    2    0    0  0.72442586223E+01 -0.71073240462E+02 -0.63373642287E+02  0.95499232088E+02  0.00000000000E+00 0. -1.
</event>
<event>
 6    1  0.8653652E-006  0.1224837E+03  0.7561462E-02  0.1239055E+00
          1   -1    0    0  501    0  0.00000000000E+00  0.00000000000E+00  0.32298172967E+02  0.32298172967E+02  0.00000000000E+00 0. -1.
         -1   -1    0    0    0  501 -0.00000000000E+00 -0.00000000000E+00 -0.60402905370E+03  0.60402905370E+03  0.00000000000E+00 0.  1.
          5    1    1    2  502    0  0.67886075162E+02 -0.41075093814E+02 -0.22668214193E+03  0.24020397250E+03  0.41800000000E+01 0. -1.
         -5    1    1    2    0  502 -0.58975363031E+02  0.65376447685E+02 -0.14328992649E+03  0.16823093886E+03  0.41800000000E+01 0.  1.
        -11    1    1    2    0    0 -0.41054100119E+02 -0.10434007911E+02 -0.28316166064E+02  0.50952064906E+02  0.00000000000E+00 0.  1.
         11    1    1    2    0    0  0.32143387987E+02 -0.13867345960E+02 -0.17344264624E+03  0.17694025040E+03  0.00000000000E+00 0. -1.
</event>
<event>
 7    1  0.8653652E-006  0.1408475E+03  0.7561462E-02  0.1212193E+00
         -1   -1    0    0    0  501 -0.00000000000E+00  0.00000000000E+00  0.19177633189E+03  0.19177633189E+03  0.00000000000E+00 0.  1.
          1   -1    0    0  501    0  0.00000000000E+00 -0.00000000000E+00 -0.17033239419E+03  0.17033239419E+03  0.00000000000E+00 0. -1.
         23    2    1    2    0    0  0.86221240709E+02  0.49791797993E+02  0.11658802818E+03  0.19643368522E+03  0.12280105405E+03 0.  0.
          5    1    3    3  502    0  0.17953801134E+02  0.78959410424E+02  0.78642667967E+02  0.11295604939E+03  0.41800000000E+01 0. -1.
         -5    1    3    3    0  502  0.68267439575E+02 -0.29167612431E+02  0.37945360209E+02  0.83477635822E+02  0.41800000000E+01 0.  1.
        -11    1    1    2    0    0 -0.49342376333E+01  0.19085624844E+02 -0.42468063178E+02  0.46820339243E+02  0.00000000000E+00 0. -1.
         11    1    1    2    0    0 -0.81287003076E+02 -0.68877422837E+02 -0.52676027296E+02  0.11885470162E+03  0.00000000000E+00 0.  1.
</event>
<event>
 7    1  0.8653652E-006  0.1145455E+03  0.7561462E-02  0.1252377E+00
         -2   -1    0    0    0  501 -0.00000000000E+00  0.00000000000E+00  0.20972520594E+02  0.20972520594E+02  0.00000000000E+00 0.  1.
          2   -1    0    0  501    0  0.00000000000E+00 -0.00000000000E+00 -0.63275027560E+03  0.63275027560E+03  0.00000000000E+00 0. -1.
         23    2    1    2    0    0 -0.37913596808E+02 -0.38455718480E+01 -0.34900689586E+03  0.37269888297E+03  0.12508562973E+03 0.  0.
          5    1    3    3  502    0 -0.67601297735E+02  0.39210738548E+02 -0.20474490922E+03  0.21919253574E+03  0.41800000000E+01 0.  1.
         -5    1    3    3    0  502  0.29687700927E+02 -0.43056310396E+02 -0.14426198664E+03  0.15350634723E+03  0.41800000000E+01 0.  1.
        -11    1    1    2    0    0  0.25986834691E+02 -0.42879852770E+02 -0.15620109715E+03  0.16405115087E+03  0.00000000000E+00 0. -1.
         11    1    1    2    0    0  0.11926762117E+02  0.46725424618E+02 -0.10656976199E+03  0.11697276235E+03  0.00000000000E+00 0.  1.
</event>
<event>
 7    1  0.8653652E-006  0.1017710E+03  0.7561462E-02  0.1276615E+00
          1   -1    0    0  501    0  0.00000000000E+00  0.00000000000E+00  0.70884859814E+02  0.70884859814E+02  0.00000000000E+00 0.  1.
         -1   -1    0    0    0  501 -0.00000000000E+00 -0.00000000000E+00 -0.18411691460E+03  0.18411691460E+03  0.00000000000E+00 0. -1.
         23    2    1    2    0    0  0.41109484479E+01 -0.29088753815E+02 -0.94112675697E+02  0.15927480383E+03  0.12509281320E+03 0.  0.
          5    1    3    3  502    0  0.54682502153E+02 -0.21012753317E+01 -0.84859758868E+02  0.10106058814E+03  0.41800000000E+01 0.  1.
         -5    1    3    3    0  502 -0.50571553705E+02 -0.26987478484E+02 -0.92529168290E+01  0.58214215694E+02  0.41800000000E+01 0.  1.
        -11    1    1    2    0    0  0.40604747902E+02  0.21107463624E+02 -0.20811317066E+02  0.50273069241E+02  0.00000000000E+00 0.  1.
         11    1    1    2    0    0 -0.44715696350E+02  0.79812901913E+01  0.16919379742E+01  0.45453901343E+02  0.00000000000E+00 0. -1.
</event>
<event>
 7    1  0.8653652E-006  0.1341244E+03  0.7561462E-02  0.1221461E+00
         -2   -1    0    0    0  501 -0.00000000000E+00  0.00000000000E+00  0.22975265394E+02  0.22975265394E+02  0.00000000000E+00 0.  1.
          2   -1    0    0  501    0  0.00000000000E+00 -0.00000000000E+00 -0.11696631981E+04  0.11696631981E+04  0.00000000000E+00 0. -1.
         23    2    1    2    0    0 -0.47448775033E+02  0.10840330939E+03 -0.72709386549E+03  0.74720857132E+03  0.12510993597E+03 0.  0.
          5    1    3    3  502    0 -0.68784666345E+02  0.10708065802E+03 -0.70415327236E+03  0.71557452514E+03  0.41800000000E+01 0.  1.
         -5    1    3    3    0  502  0.21335891312E+02  0.13226513688E+01 -0.22940593131E+02  0.31634046184E+02  0.41800000000E+01 0.  1.
        -11    1    1    2    0    0  0.20568600106E+02 -0.31109547729E+02 -0.31546441003E+02  0.48847202685E+02  0.00000000000E+00 0.  1.
         11    1    1    2    0    0  0.26880174927E+02 -0.77293761657E+02 -0.38804762619E+03  0.39658268947E+03  0.00000000000E+00 0. -1.
</event>
<event>
 7    1  0.8653652E-006  0.1066412E+03  0.7561462E-02  0.1266919E+00
          1   -1    0    0  501    0  0.00000000000E+00  0.00000000000E+00  0.12249345446E+02  0.12249345446E+02  0.00000000000E+00 0. -1.
         -1   -1    0    0    0  501 -0.00000000000E+00 -0.00000000000E+00 -0.10497539579E+04  0.10497539579E+04  0.00000000000E+00 0.  1.
         23    2    1    2    0    0 -0.97911472928E+01 -0.18534173315E+02 -0.73133118976E+03  0.74224777741E+03  0.12508825612E+03 0.  0.
          5    1    3    3  502    0  0.16280154912E+02  0.47591749281E+02 -0.20498734349E+03  0.21110969052E+03  0.41800000000E+01 0. -1.
         -5    1    3    3    0  502 -0.26071302204E+02 -0.66125922596E+02 -0.52634384627E+03  0.53113808689E+03  0.41800000000E+01 0. -1.
        -11    1    1    2    0    0  0.29945918531E+02  0.47600429272E+02 -0.20518864446E+03  0.21275558446E+03  0.00000000000E+00 0.  1.
         11    1    1    2    0    0 -0.20154771238E+02 -0.29066255956E+02 -0.10098477819E+03  0.10699994142E+03  0.00000000000E+00 0. -1.
</event>
<event>
 7    1  0.8653652E-006  0.8470783E+02  0.7561462E-02  0.1316198E+00
          1   -1    0    0  501    0  0.00000000000E+00  0.00000000000E+00  0.56077565622E+03  0.56077565622E+03  0.00000000000E+00 0.  1.
         -1   -1    0    0    0  501 -0.00000000000E+00 -0.00000000000E+00 -0.21880492183E+02  0.21880492183E+02  0.00000000000E+00 0. -1.
         23    2    1    2    0    0  0.10012495853E+02 -0.46188444061E+01  0.25351270045E+03  0.28290946798E+03  0.12508994358E+03 0.  0.
          5    1    3    3  502    0 -0.37055721805E+01 -0.42515625965E+02  0.23407250125E+03  0.23796789270E+03  0.41800000000E+01 0. -1.
         -5    1    3    3    0  502  0.13718068034E+02  0.37896781559E+02  0.19440199200E+02  0.44941575274E+02  0.41800000000E+01 0. -1.
        -11    1    1    2    0    0  0.37013406498E+02 -0.67758271820E+01  0.75480643974E+02  0.84339976935E+02  0.00000000000E+00 0.  1.
         11    1    1    2    0    0 -0.47025902351E+02  0.11394671588E+02  0.20990181961E+03  0.21540670349E+03  0.00000000000E+00 0. -1.
</event>
<event>
 7    1  0.8653652E-006  0.1103994E+03  0.7561462E-02  0.1259832E+00
         -1   -1    0    0    0  501 -0.00000000000E+00  0.00000000000E+00  0.13565878706E+03  0.13565878706E+03  0.00000000000E+00 0.  1.
          1   -1    0    0  501    0  0.00000000000E+00 -0.00000000000E+00 -0.11039382785E+03  0.11039382785E+03  0.00000000000E+00 0. -1.
         23    2    1    2    0    0  0.43632596071E+02 -0.22285440006E+01  0.50236093398E+02  0.14132143484E+03  0.12465678087E+03 0.  0.
          5    1    3    3  502    0  0.82465243277E+02  0.18188386774E+02  0.47926890228E+02  0.97189469436E+02  0.41800000000E+01 0. -1.
         -5    1    3    3    0  502 -0.38832647206E+02 -0.20416930775E+02  0.23092031695E+01  0.44131965406E+02  0.41800000000E+01 0.  1.
        -11    1    1    2    0    0  0.20269465899E+02 -0.15890255768E+02 -0.28250938841E+02  0.38229138384E+02  0.00000000000E+00 0. -1.
         11    1    1    2    0    0 -0.63902061970E+02  0.18118799769E+02  0.32798046507E+01  0.66502041680E+02  0.00000000000E+00 0.  1.
</event>
<event>
 7    1  0.8653652E-006  0.1530839E+03  0.7561462E-02  0.1196734E+00
         -3   -1    0    0    0  501 -0.00000000000E+00  0.00000000000E+00  0.62263220745E+02  0.62263220745E+02  0.00000000000E+00 0.  1.
          3   -1    0    0  501    0  0.00000000000E+00 -0.00000000000E+00 -0.44925907056E+03  0.44925907056E+03  0.00000000000E+00 0. -1.
         23    2    1    2    0    0 -0.17602779562E+02  0.10883016841E+03 -0.10892801475E+03  0.19916647041E+03  0.12509239439E+03 0.  0.
          5    1    3    3  502    0 -0.40608956694E+02  0.12756801666E+03 -0.10214197423E+03  0.16844328879E+03  0.41800000000E+01 0. -1.
         -5    1    3    3    0  502  0.23006177131E+02 -0.18737848245E+02 -0.67860405176E+01  0.30723181622E+02  0.41800000000E+01 0. -1.
        -11    1    1    2    0    0 -0.72334801774E+01 -0.11614621714E+03 -0.22947143097E+03  0.25729244960E+03  0.00000000000E+00 0.  1.
         11    1    1    2    0    0  0.24836259740E+02  0.73160487238E+01 -0.48596404101E+02  0.55063371295E+02  0.00000000000E+00 0. -1.
</event>
<event>
 7    1  0.8653652E-006  0.1369268E+03  0.7561462E-02  0.1217525E+00
          1   -1    0    0  501    0  0.00000000000E+00  0.00000000000E+00  0.10854306977E+03  0.10854306977E+03  0.00000000000E+00 0. -1.
         -1   -1    0    0    0  501 -0.00000000000E+00 -0.00000000000E+00 -0.21105494878E+03  0.21105494878E+03  0.00000000000E+00 0.  1.
         23    2    1    2    0    0 -0.89110629926E+02  0.17931731349E+02 -0.11299315901E+03  0.19151312895E+03  0.12509026030E+03 0.  0.
          5    1    3    3  502    0 -0.21643768731E+02  0.62554653816E+02 -0.22433588470E+02  0.70016253332E+02  0.41800000000E+01 0. -1.
         -5    1    3    3    0  502 -0.67466861195E+02 -0.44622922468E+02 -0.90559570539E+02  0.12149687562E+03  0.41800000000E+01 0. -1.
        -11    1    1    2    0    0  0.53365133970E+02  0.34155131890E+02 -0.32290268573E+01  0.63441604429E+02  0.00000000000E+00 0.  1.
         11    1    1    2    0    0  0.35745495956E+02 -0.52086863239E+02  0.13710306862E+02  0.64643285169E+02  0.00000000000E+00 0. -1.
</event>
<event>
 7    1  0.8653652E-006  0.1364508E+03  0.7561462E-02  0.1218186E+00
          1   -1    0    0  501    0  0.00000000000E+00  0.00000000000E+00  0.85438225161E+03  0.85438225161E+03  0.00000000000E+00 0. -1.
         -1   -1    0    0    0  501 -0.00000000000E+00 -0.00000000000E+00 -0.35683496199E+02  0.35683496199E+02  0.00000000000E+00 0.  1.
         23    2    1    2    0    0 -0.61596604890E+02  0.10594459444E+03  0.28074565254E+03  0.33088463316E+03  0.12509244668E+03 0.  0.
          5    1    3    3  502    0 -0.22035946462E+02  0.44081940076E+02  0.10174910987E+02  0.50495560112E+02  0.41800000000E+01 0.  1.
         -5    1    3    3    0  502 -0.39560658427E+02  0.61862654360E+02  0.27057074155E+03  0.28038907305E+03  0.41800000000E+01 0.  1.
        -11    1    1    2    0    0 -0.22189722975E+02 -0.20180280104E+02  0.70891102998E+02  0.76975164794E+02  0.00000000000E+00 0.  1.
         11    1    1    2    0    0  0.83786327865E+02 -0.85764314333E+02  0.46706199987E+03  0.48220594985E+03  0.00000000000E+00 0. -1.
</event>
<event>
 7    1  0.8653652E-006  0.1186634E+03  0.7561462E-02  0.1245318E+00
          1   -1    0    0  501    0  0.00000000000E+00  0.00000000000E+00  0.47921129980E+03  0.47921129980E+03  0.00000000000E+00 0. -1.
         -1   -1    0    0    0  501 -0.00000000000E+00 -0.00000000000E+00 -0.53551760869E+02  0.53551760869E+02  0.00000000000E+00 0.  1.
         23    2    1    2    0    0 -0.93983254428E+02  0.49884947284E+02  0.14594341904E+03  0.21970269753E+03  0.12509369954E+03 0.  0.
          5    1    3    3  502    0 -0.42848814508E+02  0.38404592853E+02  0.15586618707E+03  0.16620070496E+03  0.41800000000E+01 0.  1.
         -5    1    3    3    0  502 -0.51134439920E+02  0.11480354431E+02 -0.99227680337E+01  0.53501992573E+02  0.41800000000E+01 0.  1.
        -11    1    1    2    0    0  0.15877661961E+02  0.17697010784E+02  0.13118751898E+02  0.27154852078E+02  0.00000000000E+00 0.  1.
         11    1    1    2    0    0  0.78105592467E+02 -0.67581958068E+02  0.26659736799E+03  0.28590551105E+03  0.00000000000E+00 0. -1.
</event>
<event>
 7    1  0.8653652E-006  0.1620518E+03  0.7561462E-02  0.1186400E+00
         -2   -1    0    0    0  501 -0.00000000000E+00  0.00000000000E+00  0.43425832228E+03  0.43425832228E+03  0.00000000000E+00 0. -1.
          2   -1    0    0  501    0  0.00000000000E+00 -0.00000000000E+00 -0.83407119796E+02  0.83407119796E+02  0.00000000000E+00 0.  1.
         23    2    1    2    0    0  0.74974177338E+02 -0.12069324475E+03  0.27137852325E+03  0.33087949140E+03  0.12508776262E+03 0.  0.
          5    1    3    3  502    0  0.84786421083E+02 -0.65724498257E+02  0.86994802522E+02  0.13818109472E+03  0.41800000000E+01 0.  1.
         -5    1    3    3    0  502 -0.98122437457E+01 -0.54968746494E+02  0.18438372072E+03  0.19269839669E+03  0.41800000000E+01 0.  1.
        -11    1    1    2    0    0 -0.86424643365E+02  0.12169004581E+03  0.87268936746E+02  0.17289752327E+03  0.00000000000E+00 0. -1.
         11    1    1    2    0    0  0.11450466027E+02 -0.99680106344E+00 -0.77962575089E+01  0.13888427403E+02  0.00000000000E+00 0.  1.
</event>
<event>
 7    1  0.8653652E-006  0.2276956E+03  0.7561462E-02  0.1128272E+00
          2   -1    0    0  501    0  0.00000000000E+00  0.00000000000E+00  0.96067761235E+02  0.96067761235E+02  0.00000000000E+00 0. -1.
         -2   -1    0    0    0  501 -0.00000000000E+00 -0.00000000000E+00 -0.68281552260E+03  0.68281552260E+03  0.00000000000E+00 0.  1.
         23    2    1    2    0    0 -0.14763375604E+03  0.16915629920E+03 -0.41333747564E+03  0.48672892447E+03  0.12509035802E+03 0.  0.
          5    1    3    3  502    0 -0.97602764320E+02  0.11911234439E+03 -0.15379318461E+03  0.21767835497E+03  0.41800000000E+01 0. -1.
         -5    1    3    3    0  502 -0.50030991715E+02  0.50043954811E+02 -0.25954429102E+03  0.26905056950E+03  0.41800000000E+01 0. -1.
        -11    1    1    2    0    0  0.92555291568E+01 -0.40372578561E+02 -0.10803395216E+02  0.42805645280E+02  0.00000000000E+00 0.  1.
         11    1    1    2    0    0  0.13837822688E+03 -0.12878372064E+03 -0.16260689051E+03  0.24934871409E+03  0.00000000000E+00 0. -1.
</event>
<event>
 7    1  0.8653652E-006  0.9834319E+02  0.7561462E-02  0.1283819E+00
         -2   -1    0    0    0  501 -0.00000000000E+00  0.00000000000E+00  0.76784850868E+02  0.76784850868E+02  0.00000000000E+00 0. -1.
          2   -1    0    0  501    0  0.00000000000E+00 -0.00000000000E+00 -0.18757526570E+03  0.18757526570E+03  0.00000000000E+00 0.  1.
         23    2    1    2    0    0  0.17345776357E+02 -0.23228013133E+02 -0.15144298313E+02  0.12929507610E+03  0.12508976929E+03 0.  0.
          5    1    3    3  502    0 -0.40247110136E+02 -0.14724838795E+02 -0.46220935085E+02  0.63170388568E+02  0.41800000000E+01 0.  1.
         -5    1    3    3    0  502  0.57592886493E+02 -0.85031743379E+01  0.31076636771E+02  0.66124687533E+02  0.41800000000E+01 0.  1.
        -11    1    1    2    0    0  0.16473574887E+02  0.49669915801E+02 -0.55681076410E+02  0.76412443197E+02  0.00000000000E+00 0.  1.
         11    1    1    2    0    0 -0.33819351244E+02 -0.26441902668E+02 -0.39965040105E+02  0.58652597264E+02  0.00000000000E+00 0. -1.
</event>
<event>
 7    1  0.8653652E-006  0.1063766E+03  0.7561462E-02  0.1267431E+00
         -1   -1    0    0    0  501 -0.00000000000E+00  0.00000000000E+00  0.60467367388E+03  0.60467367388E+03  0.00000000000E+00 0.  1.
          1   -1    0    0  501    0  0.00000000000E+00 -0.00000000000E+00 -0.24344129016E+02  0.24344129016E+02  0.00000000000E+00 0. -1.
         23    2    1    2    0    0 -0.24362479466E+02  0.78035741705E+01  0.45122567568E+03  0.46894007558E+03  0.12508300408E+03 0.  0.
          5    1    3    3  502    0 -0.82705128161E+01 -0.58544118473E+02  0.20926174587E+03  0.21749428929E+03  0.41800000000E+01 0. -1.
         -5    1    3    3    0  502 -0.16091966650E+02  0.66347692644E+02  0.24196392982E+03  0.25144578629E+03  0.41800000000E+01 0. -1.
        -11    1    1    2    0    0  0.12607654830E+02  0.36828597957E+02  0.25166431161E+02  0.46353509524E+02  0.00000000000E+00 0.  1.
         11    1    1    2    0    0  0.11754824636E+02 -0.44632172128E+02  0.10393743802E+03  0.11372421779E+03  0.00000000000E+00 0. -1.
</event>
<event>
 7    1  0.8653652E-006  0.1314553E+03  0.7561462E-02  0.1225312E+00
         -1   -1    0    0    0  501 -0.00000000000E+00  0.00000000000E+00  0.10489189279E+03  0.10489189279E+03  0.00000000000E+00 0.  1.
          1   -1    0    0  501    0  0.00000000000E+00 -0.00000000000E+00 -0.35390196075E+03  0.35390196075E+03  0.00000000000E+00 0. -1.
         23    2    1    2    0    0 -0.11260065634E+03 -0.22192458861E+02  0.69203647021E+01  0.16390119777E+03  0.11680881022E+03 0.  0.
          5    1    3    3  502    0 -0.63016222586E+01  0.40540507804E+01 -0.42746384280E+02  0.43598985536E+02  0.41800000000E+01 0. -1.
         -5    1    3    3    0  502 -0.10629903408E+03 -0.26246509642E+02  0.49666748982E+02  0.12030221224E+03  0.41800000000E+01 0.  1.
        -11    1    1    2    0    0  0.74218728478E+01 -0.27463159137E+02 -0.34010689209E+02  0.44340007745E+02  0.00000000000E+00 0.  1.
         11    1    1    2    0    0  0.10517878349E+03  0.49655617999E+02 -0.22191974345E+03  0.25055264802E+03  0.00000000000E+00 0. -1.
</event>
<event>
 7    1  0.8653652E-006  0.1081928E+03  0.7561462E-02  0.1263954E+00
         -2   -1    0    0    0  501 -0.00000000000E+00  0.00000000000E+00  0.11965060612E+03  0.11965060612E+03  0.00000000000E+00 0.  1.
          2   -1    0    0  501    0  0.00000000000E+00 -0.00000000000E+00 -0.11612948944E+03  0.11612948944E+03  0.00000000000E+00 0. -1.
         23    2    1    2    0    0  0.11680874510E+01 -0.51905869813E+02  0.12058105147E+02  0.13597184200E+03  0.12508940870E+03 0.  0.
          5    1    3    3  502    0 -0.18105705395E+00  0.37485104506E+02 -0.17687796846E+02  0.41659289466E+02  0.41800000000E+01 0.  1.
         -5    1    3    3    0  502  0.13491445050E+01 -0.89390974320E+02  0.29745901993E+02  0.94312552537E+02  0.41800000000E+01 0.  1.
        -11    1    1    2    0    0  0.33354702231E+02  0.41231046294E+02  0.16850594013E+02  0.55646004870E+02  0.00000000000E+00 0.  1.
         11    1    1    2    0    0 -0.34522789682E+02  0.10674823520E+02 -0.25387582484E+02  0.44162248686E+02  0.00000000000E+00 0. -1.
</event>
<event>
 7    1  0.8653652E-006  0.6471824E+02  0.7561462E-02  0.1379035E+00
          2   -1    0    0  501    0  0.00000000000E+00  0.00000000000E+00  0.40108925779E+02  0.40108925779E+02  0.00000000000E+00 0.  1.
         -2   -1    0    0    0  501 -0.00000000000E+00 -0.00000000000E+00 -0.30222599623E+03  0.30222599623E+03  0.00000000000E+00 0. -1.
         23    2    1    2    0    0  0.12061408276E+02 -0.10947263898E+02 -0.17367503075E+03  0.21474533322E+03  0.12524863942E+03 0.  0.
          5    1    3    3  502    0  0.19140416676E+02 -0.30030867253E+02  0.38007574084E+01  0.36057269660E+02  0.41800000000E+01 0. -1.
         -5    1    3    3    0  502 -0.70790083992E+01  0.19083603354E+02 -0.17747578816E+03  0.17868806356E+03  0.41800000000E+01 0. -1.
        -11    1    1    2    0    0  0.19368464281E+02  0.30248280028E+02 -0.82829443041E+02  0.90281850267E+02  0.00000000000E+00 0. -1.
         11    1    1    2    0    0 -0.31429872557E+02 -0.19301016130E+02 -0.56125966670E+01  0.37307738526E+02  0.00000000000E+00 0.  1.
</event>
<event>
 6    1  0.8653652E-006  0.1213901E+03  0.7561462E-02  0.1240821E+00
         -2   -1    0    0    0  501 -0.00000000000E+00  0.00000000000E+00  0.22809448799E+03  0.22809448799E+03  0.00000000000E+00 0.  1.
          2   -1    0    0  501    0  0.00000000000E+00 -0.00000000000E+00 -0.80463318680E+02  0.80463318680E+02  0.00000000000E+00 0. -1.
          5    1    1    2  502    0 -0.51360142209E+02 -0.16892088690E+02 -0.11250032220E+02  0.55382691276E+02  0.41800000000E+01 0. -1.
         -5    1    1    2    0  502  0.88144642928E+02  0.23997776158E+02  0.11334876945E+03  0.14563923673E+03  0.41800000000E+01 0.  1.
        -11    1    1    2    0    0  0.21130398292E+02 -0.28399601442E+02  0.12466210195E+02  0.37529155209E+02  0.00000000000E+00 0.  1.
         11    1    1    2    0    0 -0.57914899011E+02  0.21293913974E+02  0.33066221878E+02  0.70006723456E+02  0.00000000000E+00 0. -1.
</event>
<event>
 7    1  0.8653652E-006  0.1174453E+03  0.7561462E-02  0.1247372E+00
          3   -1    0    0  501    0  0.00000000000E+00  0.00000000000E+00  0.11749609563E+03  0.11749609563E+03  0.00000000000E+00 0. -1.
         -3   -1    0    0    0  501 -0.00000000000E+00 -0.00000000000E+00 -0.16472733841E+03  0.16472733841E+03  0.00000000000E+00 0.  1.
         23    2    1    2    0    0 -0.75965191760E+02 -0.20691234941E+02 -0.63589275788E+02  0.16090338084E+03  0.12508982535E+03 0.  0.
          5    1    3    3  502    0 -0.30456351357E+02  0.52650285815E+02 -0.20351514280E+02  0.64275177696E+02  0.41800000000E+01 0.  1.
         -5    1    3    3    0  502 -0.45508840403E+02 -0.73341520756E+02 -0.43237761508E+02  0.96628203139E+02  0.41800000000E+01 0.  1.
        -11    1    1    2    0    0  0.83693287012E+01 -0.10194483283E+02 -0.30660772286E+02  0.33377479077E+02  0.00000000000E+00 0.  1.
         11    1    1    2    0    0  0.67595863059E+02  0.30885718224E+02  0.47018805291E+02  0.87942574126E+02  0.00000000000E+00 0. -1.
</event>
<event>
 7    1  0.8653652E-006  0.1115860E+03  0.7561462E-02  0.1257661E+00
          3   -1    0    0  501    0  0.00000000000E+00  0.00000000000E+00  0.31216823790E+03  0.31216823790E+03  0.00000000000E+00 0. -1.
         -3   -1    0    0    0  501 -0.00000000000E+00 -0.00000000000E+00 -0.64275534674E+02  0.64275534674E+02  0.00000000000E+00 0.  1.
         23    2    1    2    0    0  0.70463082571E+02  0.42461343355E+02  0.10651027771E+03  0.18373707973E+03  0.12508742354E+03 0.  0.
          5    1    3    3  502    0  0.87897469235E+01  0.67093660375E+02  0.13101224865E+02  0.69050223797E+02  0.41800000000E+01 0. -1.
         -5    1    3    3    0  502  0.61673335648E+02 -0.24632317019E+02  0.93409052843E+02  0.11468685594E+03  0.41800000000E+01 0. -1.
        -11    1    1    2    0    0 -0.25059849385E+02 -0.34652402911E+02  0.14024790924E+03  0.14662285336E+03  0.00000000000E+00 0. -1.
         11    1    1    2    0    0 -0.45403233187E+02 -0.78089404444E+01  0.11345162756E+01  0.46083839487E+02  0.00000000000E+00 0.  1.
</event>
<event>
 7    1  0.8653652E-006  0.2959939E+03  0.7561462E-02  0.1087261E+00
          2   -1    0    0  501    0  0.00000000000E+00  0.00000000000E+00  0.26988839258E+04  0.26988839258E+04  0.00000000000E+00 0. -1.
         -2   -1    0    0    0  501 -0.00000000000E+00 -0.00000000000E+00 -0.33781303210E+02  0.33781303210E+02  0.00000000000E+00 0.  1.
         23    2    1    2    0    0  0.21718655820E+03 -0.17843772051E+03  0.14312711477E+04  0.14639655534E+04  0.12509205389E+03 0.  0.
          5    1    3    3  502    0  0.23226084135E+03 -0.16959995889E+03  0.13794996695E+04  0.14091650205E+04  0.41800000000E+01 0. -1.
         -5    1    3    3    0  502 -0.15074283145E+02 -0.88377616244E+01  0.51771478194E+02  0.54800532819E+02  0.41800000000E+01 0. -1.
        -11    1    1    2    0    0 -0.13075533429E+03  0.14073302233E+03  0.96155964772E+03  0.98056090945E+03  0.00000000000E+00 0.  1.
         11    1    1    2    0    0 -0.86431223907E+02  0.37704698179E+02  0.27227182715E+03  0.28813876621E+03  0.00000000000E+00 0. -1.
</event>
<event>
 7    1  0.8653652E-006  0.1294463E+03  0.7561462E-02  0.1228280E+00
          2   -1    0    0  501    0  0.00000000000E+00  0.00000000000E+00  0.39162511047E+03  0.39162511047E+03  0.00000000000E+00 0. -1.
         -2   -1    0    0    0  501 -0.00000000000E+00 -0.00000000000E+00 -0.63986382777E+02  0.63986382777E+02  0.00000000000E+00 0.  1.
         23    2    1    2    0    0  0.61962449844E+02 -0.88405112951E+02  0.12299260720E+03  0.20597866110E+03  0.12508084672E+03 0.  0.
          5    1    3    3  502    0  0.19704345061E+02 -0.73898560830E+02  0.16586373772E+01  0.76612544567E+02  0.41800000000E+01 0. -1.
         -5    1    3    3    0  502  0.42258104783E+02 -0.14506552121E+02  0.12133396982E+03  0.12936611653E+03  0.41800000000E+01 0. -1.
        -11    1    1    2    0    0 -0.60713781773E+02  0.13102864151E+02  0.59000181945E+02  0.85667203851E+02  0.00000000000E+00 0.  1.
         11    1    1    2    0    0 -0.12486680709E+01  0.75302248800E+02  0.14564593855E+03  0.16396562829E+03  0.00000000000E+00 0. -1.
</event>
<event>
 7    1  0.8653652E-006  0.1355414E+03  0.7561462E-02  0.1219457E+00
          2   -1    0    0  501    0  0.00000000000E+00  0.00000000000E+00  0.79994452204E+03  0.79994452204E+03  0.00000000000E+00 0. -1.
         -2   -1    0    0    0  501 -0.00000000000E+00 -0.00000000000E+00 -0.29407514782E+02  0.29407514782E+02  0.00000000000E+00 0.  1.
         23    2    1    2    0    0 -0.10547084136E+03  0.22017970553E+02  0.41221064516E+03  0.44404079570E+03  0.12508286398E+03 0.  0.
          5    1    3    3  502    0 -0.76995728239E+02 -0.22983367824E+02  0.36163898390E+03  0.37048185440E+03  0.41800000000E+01 0.  1.
         -5    1    3    3    0  502 -0.28475113122E+02  0.45001338377E+02  0.50571661257E+02  0.73558941301E+02  0.41800000000E+01 0.  1.
        -11    1    1    2    0    0  0.61579600875E+02 -0.54791423428E+02  0.16602435308E+03  0.18535973981E+03  0.00000000000E+00 0.  1.
         11    1    1    2    0    0  0.43891240486E+02  0.32773452874E+02  0.19230200902E+03  0.19995150132E+03  0.00000000000E+00 0. -1.
</event>
<event>
 7    1  0.8653652E-006  0.3632420E+03  0.7561462E-02  0.1057307E+00
         -2   -1    0    0    0  501 -0.00000000000E+00  0.00000000000E+00  0.19732022593E+03  0.19732022593E+03  0.00000000000E+00 0.  1.
          2   -1    0    0  501    0  0.00000000000E+00 -0.00000000000E+00 -0.77550373148E+03  0.77550373148E+03  0.00000000000E+00 0. -1.
         23    2    1    2    0    0  0.10501970318E+03  0.34185933578E+03 -0.15018939575E+03  0.40755586891E+03  0.12509191888E+03 0.  0.
          5    1    3    3  502    0  0.18925706603E+02  0.29722819064E+02 -0.62833726788E+02  0.72160778583E+02  0.41800000000E+01 0.  1.
         -5    1    3    3    0  502  0.86093996578E+02  0.31213651672E+03 -0.87355668962E+02  0.33539509032E+03  0.41800000000E+01 0.  1.
        -11    1    1    2    0    0 -0.93138162505E+02 -0.16151050564E+03 -0.18737525925E+03  0.26432905351E+03  0.00000000000E+00 0.  1.
         11    1    1    2    0    0 -0.11881540676E+02 -0.18034883014E+03 -0.24061885055E+03  0.30093903499E+03  0.00000000000E+00 0. -1.
</event>
<event>
 7    1  0.8653652E-006  0.5454226E+02  0.7561462E-02  0.1422276E+00
         -1   -1    0    0    0  501 -0.00000000000E+00  0.00000000000E+00  0.26316463758E+03  0.26316463758E+03  0.00000000000E+00 0.  1.
          1   -1    0    0  501    0  0.00000000000E+00 -0.00000000000E+00 -0.54450774396E+02  0.54450774396E+02  0.00000000000E+00 0. -1.
         23    2    1    2    0    0 -0.28721108688E+02 -0.38986575044E+02  0.12696696150E+03  0.18469831217E+03  0.12509197451E+03 0.  0.
          5    1    3    3  502    0 -0.31390304238E+02 -0.43094605714E+02  0.15080452171E+03  0.16000616367E+03  0.41800000000E+01 0. -1.
         -5    1    3    3    0  502  0.26691955502E+01  0.41080306698E+01 -0.23837560210E+02  0.24692148501E+02  0.41800000000E+01 0. -1.
        -11    1    1    2    0    0  0.83783157712E+01  0.56253791219E+01 -0.20832259162E+02  0.23147874357E+02  0.00000000000E+00 0. -1.
         11    1    1    2    0    0  0.20342792917E+02  0.33361195922E+02  0.10257916084E+03  0.10976922545E+03  0.00000000000E+00 0.  1.
</event>
<event>
 7    1  0.8653652E-006  0.1719113E+03  0.7561462E-02  0.1175869E+00
          2   -1    0    0  501    0  0.00000000000E+00  0.00000000000E+00  0.83292171960E+03  0.83292171960E+03  0.00000000000E+00 0.  1.
         -2   -1    0    0    0  501 -0.00000000000E+00 -0.00000000000E+00 -0.40416435984E+02  0.40416435984E+02  0.00000000000E+00 0. -1.
         23    2    1    2    0    0  0.10284194337E+03 -0.87477591076E+02  0.27662266920E+03  0.33225913592E+03  0.12508892049E+03 0.  0.
          5    1    3    3  502    0  0.53847721230E+02 -0.11507612004E+03  0.20311552079E+03  0.23961527011E+03  0.41800000000E+01 0. -1.
         -5    1    3    3    0  502  0.48994222142E+02  0.27598528963E+02  0.73507148413E+02  0.92643865809E+02  0.41800000000E+01 0. -1.
        -11    1    1    2    0    0 -0.14642318214E+01  0.53315391938E+02  0.12687749464E+03  0.13763202257E+03  0.00000000000E+00 0. -1.
         11    1    1    2    0    0 -0.10137771155E+03  0.34162199138E+02  0.38900511978E+03  0.40344699709E+03  0.00000000000E+00 0.  1.
</event>
<event>
 7    1  0.8653652E-006  0.1570655E+03  0.7561462E-02  0.1192050E+00
         -1   -1    0    0    0  501 -0.00000000000E+00  0.00000000000E+00  0.12614360197E+03  0.12614360197E+03  0.00000000000E+00 0.  1.
          1   -1    0    0  501    0  0.00000000000E+00 -0.00000000000E+00 -0.25838279588E+03  0.25838279588E+03  0.00000000000E+00 0. -1.
         23    2    1    2    0    0 -0.33595933401E+02 -0.11397347600E+03  0.22761896202E+02  0.17402344367E+03  0.12508962809E+03 0.  0.
          5    1    3    3  502    0 -0.57895061495E+02 -0.22452725355E+01  0.90043270690E+01  0.58782903129E+02  0.41800000000E+01 0. -1.
         -5    1    3    3    0  502  0.24299128094E+02 -0.11172820347E+03  0.13757569133E+02  0.11524054054E+03  0.41800000000E+01 0. -1.
        -11    1    1    2    0    0 -0.50183718652E+00  0.10677485302E+03 -0.10677783921E+03  0.15100539072E+03  0.00000000000E+00 0. -1.
         11    1    1    2    0    0  0.34097770588E+02  0.71986229788E+01 -0.48223250899E+02  0.59497563472E+02  0.00000000000E+00 0.  1.
</event>
<event>
 7    1  0.8653652E-006  0.1099452E+03  0.7561462E-02  0.1260671E+00
         -1   -1    0    0    0  501 -0.00000000000E+00  0.00000000000E+00  0.99031257384E+02  0.99031257384E+02  0.00000000000E+00 0.  1.
          1   -1    0    0  501    0  0.00000000000E+00 -0.00000000000E+00 -0.14684567612E+03  0.14684567612E+03  0.00000000000E+00 0. -1.
         23    2    1    2    0    0 -0.34015742481E+01  0.26927476448E+02  0.20598581852E+02  0.12964847765E+03  0.12509103280E+03 0.  0.
          5    1    3    3  502    0  0.51566465646E+02 -0.18108692119E+02  0.20334634364E+02  0.58463620006E+02  0.41800000000E+01 0.  1.
         -5    1    3    3    0  502 -0.54968039894E+02  0.45036168567E+02  0.26394748747E+00  0.71184857640E+02  0.41800000000E+01 0.  1.
        -11    1    1    2    0    0  0.38792001045E+02 -0.40414834796E+02 -0.38631791253E+02  0.68048464436E+02  0.00000000000E+00 0.  1.
         11    1    1    2    0    0 -0.35390426797E+02  0.13487358349E+02 -0.29781209338E+02  0.48179991426E+02  0.00000000000E+00 0. -1.
</event>
<event>
 7    1  0.8653652E-006  0.1497787E+03  0.7561462E-02  0.1200745E+00
         -2   -1    0    0    0  501 -0.00000000000E+00  0.00000000000E+00  0.83844405076E+03  0.83844405076E+03  0.00000000000E+00 0.  1.
          2   -1    0    0  501    0  0.00000000000E+00 -0.00000000000E+00 -0.43148344030E+02  0.43148344030E+02  0.00000000000E+00 0. -1.
         23    2    1    2    0    0  0.10848497027E+03 -0.16405637808E+01  0.68216392093E+03  0.70197333452E+03  0.12508903681E+03 0.  0.
          5    1    3    3  502    0 -0.24724896280E+02  0.82660018260E+01  0.19617697348E+03  0.19794576178E+03  0.41800000000E+01 0. -1.
         -5    1    3    3    0  502  0.13320986655E+03 -0.99065656068E+01  0.48598694745E+03  0.50402757274E+03  0.41800000000E+01 0. -1.
        -11    1    1    2    0    0 -0.37461180736E+02  0.43232932889E+02  0.46957719629E+02  0.74009823544E+02  0.00000000000E+00 0. -1.
         11    1    1    2    0    0 -0.71023789537E+02 -0.41592369108E+02  0.66174066164E+02  0.10560923672E+03  0.00000000000E+00 0.  1.
</event>
<event>
 7    1  0.8653652E-006  0.1861849E+03  0.7561462E-02  0.1161948E+00
         -2   -1    0    0    0  501 -0.00000000000E+00  0.00000000000E+00  0.17311537452E+03  0.17311537452E+03  0.00000000000E+00 0. -1.
          2   -1    0    0  501    0  0.00000000000E+00 -0.00000000000E+00 -0.22826796765E+03  0.22826796765E+03  0.00000000000E+00 0.  1.
         23    2    1    2    0    0  0.77956653295E+02  0.14502945838E+03 -0.53573904858E+01  0.20684990686E+03  0.12508956288E+03 0.  0.
          5    1    3    3  502    0  0.63897195272E+02  0.25975229170E+02 -0.42684613582E+02  0.81221996594E+02  0.41800000000E+01 0. -1.
         -5    1    3    3    0  502  0.14059458023E+02  0.11905422921E+03  0.37327223096E+02  0.12562791026E+03  0.41800000000E+01 0. -1.
        -11    1    1    2    0    0 -0.43680504466E+02 -0.14238640296E+03 -0.56889544201E+02  0.15943115899E+03  0.00000000000E+00 0.  1.
         11    1    1    2    0    0 -0.34276148830E+02 -0.26430554260E+01  0.70943415583E+01  0.35102276318E+02  0.00000000000E+00 0. -1.
</event>
<event>
 7    1  0.8653652E-006  0.1069913E+03  0.7561462E-02  0.1266245E+00
         -3   -1    0    0    0  501 -0.00000000000E+00  0.00000000000E+00  0.13272549253E+03  0.13272549253E+03  0.00000000000E+00 0.  1.
          3   -1    0    0  501    0  0.00000000000E+00 -0.00000000000E+00 -0.22628626945E+03  0.22628626945E+03  0.00000000000E+00 0. -1.
         23    2    1    2    0    0  0.24768028974E+02  0.20814210710E+02  0.90904364669E+02  0.14900009131E+03  0.11353738181E+03 0.  0.
          5    1    3    3  502    0 -0.40588946843E+02 -0.92727240714E+01  0.15314426650E+02  0.44558389571E+02  0.41800000000E+01 0. -1.
         -5    1    3    3    0  502  0.65356975818E+02  0.30086934781E+02  0.75589938019E+02  0.10444170174E+03  0.41800000000E+01 0.  1.
        -11    1    1    2    0    0  0.27369964137E+02  0.19963543247E+02 -0.54717446497E+02  0.64355706406E+02  0.00000000000E+00 0.  1.
         11    1    1    2    0    0 -0.52137993112E+02 -0.40777753957E+02 -0.12974769509E+03  0.14565596426E+03  0.00000000000E+00 0. -1.
</event>
<event>
 7    1  0.8653652E-006  0.1247834E+03  0.7561462E-02  0.1235408E+00
          1   -1    0    0  501    0  0.00000000000E+00  0.00000000000E+00  0.33053911127E+03  0.33053911127E+03  0.00000000000E+00 0. -1.
         -1   -1    0    0    0  501 -0.00000000000E+00 -0.00000000000E+00 -0.52753728395E+02  0.52753728395E+02  0.00000000000E+00 0.  1.
         23    2    1    2    0    0 -0.72436416285E+02  0.48012975468E+01  0.12730304240E+03  0.19267453155E+03  0.12508926270E+03 0.  0.
          5    1    3    3  502    0  0.16893382173E+02 -0.32145590177E+02  0.52633719634E+01  0.36931027788E+02  0.41800000000E+01 0. -1.
         -5    1    3    3    0  502 -0.89329798458E+02  0.36946887724E+02  0.12203967043E+03  0.15574350376E+03  0.41800000000E+01 0. -1.
        -11    1    1    2    0    0  0.80634665681E+02 -0.32821527939E+02  0.10283177339E+03  0.13473520558E+03  0.00000000000E+00 0.  1.
         11    1    1    2    0    0 -0.81982493960E+01  0.28020230392E+02  0.47650567091E+02  0.55883102531E+02  0.00000000000E+00 0. -1.
</event>
<event>
 7    1  0.8653652E-006  0.2296580E+03  0.7561462E-02  0.1126881E+00
         -2   -1    0    0    0  501 -0.00000000000E+00  0.00000000000E+00  0.21466812342E+03  0.21466812342E+03  0.00000000000E+00 0.  1.
          2   -1    0    0  501    0  0.00000000000E+00 -0.00000000000E+00 -0.29033649548E+03  0.29033649548E+03  0.00000000000E+00 0. -1.
         23    2    1    2    0    0  0.11559757698E+03 -0.19120382912E+03 -0.14104137649E+02  0.25645423149E+03  0.12509253407E+03 0.  0.
          5    1    3    3  502    0  0.95475766465E+02 -0.10242266259E+03  0.45821456395E+02  0.14738759127E+03  0.41800000000E+01 0.  1.
         -5    1    3    3    0  502  0.20121810511E+02 -0.88781166530E+02 -0.59925594045E+02  0.10906664023E+03  0.41800000000E+01 0.  1.
        -11    1    1    2    0    0 -0.65637413010E+02  0.65023494920E+02  0.13642250692E+02  0.93393982045E+02  0.00000000000E+00 0.  1.
         11    1    1    2    0    0 -0.49960163967E+02  0.12618033420E+03 -0.75206485111E+02  0.15515640536E+03  0.00000000000E+00 0. -1.
</event>
<event>
 7    1  0.8653652E-006  0.1757342E+03  0.7561462E-02  0.1171997E+00
          2   -1    0    0  501    0  0.00000000000E+00  0.00000000000E+00  0.15192886361E+03  0.15192886361E+03  0.00000000000E+00 0. -1.
         -2   -1    0    0    0  501 -0.00000000000E+00 -0.00000000000E+00 -0.23338403823E+03  0.23338403823E+03  0.00000000000E+00 0.  1.
         23    2    1    2    0    0 -0.99169671584E+02  0.11536574771E+03 -0.55497267215E+02  0.20463038393E+03  0.12509903219E+03 0.  0.
          5    1    3    3  502    0  0.18584358754E+02  0.55719415008E+02  0.55341131665E+01  0.59144994781E+02  0.41800000000E+01 0.  1.
         -5    1    3    3    0  502 -0.11775403034E+03  0.59646332703E+02 -0.61031380381E+02  0.14548538915E+03  0.41800000000E+01 0.  1.
        -11    1    1    2    0    0  0.76375858586E+01 -0.43442440026E+02 -0.44672032891E+02  0.62778729166E+02  0.00000000000E+00 0.  1.
         11    1    1    2    0    0  0.91532085726E+02 -0.71923307686E+02  0.18714125480E+02  0.11790378874E+03  0.00000000000E+00 0. -1.
</event>
<event>
 7    1  0.8653652E-006  0.1111247E+03  0.7561462E-02  0.1258501E+00
          1   -1    0    0  501    0  0.00000000000E+00  0.00000000000E+00  0.16188953598E+03  0.16188953598E+03  0.00000000000E+00 0. -1.
         -1   -1    0    0    0  501 -0.00000000000E+00 -0.00000000000E+00 -0.83750597351E+02  0.83750597351E+02  0.00000000000E+00 0.  1.
         23    2    1    2    0    0 -0.14752294327E+02 -0.22752285309E+02  0.10276073324E+02  0.12840838235E+03  0.12509123990E+03 0.  0.
          5    1    3    3  502    0 -0.69528699250E+02 -0.17295601723E+02  0.13823314709E+02  0.73088537322E+02  0.41800000000E+01 0. -1.
         -5    1    3    3    0  502  0.54776404923E+02 -0.54566835860E+01 -0.35472413855E+01  0.55319845024E+02  0.41800000000E+01 0. -1.
        -11    1    1    2    0    0 -0.37638933068E+02  0.20442039131E+02  0.25775089188E+02  0.49989213527E+02  0.00000000000E+00 0.  1.
         11    1    1    2    0    0  0.52391227395E+02  0.23102461774E+01  0.42087776118E+02  0.67242537459E+02  0.00000000000E+00 0. -1.
</event>
<event>
 7    1  0.8653652E-006  0.7169646E+02  0.7561462E-02  0.1354417E+00
         -2   -1    0    0    0  501 -0.00000000000E+00  0.00000000000E+00  0.25056019565E+02  0.25056019565E+02  0.00000000000E+00 0. -1.
          2   -1    0    0  501    0  0.00000000000E+00 -0.00000000000E+00 -0.58892030432E+03  0.58892030432E+03  0.00000000000E+00 0.  1.
         23    2    1    2    0    0  0.20954907176E+02 -0.49705447496E+02 -0.32761938651E+03  0.35481127784E+03  0.12508733276E+03 0.  0.
          5    1    3    3  502    0  0.68973446910E+00 -0.27673334971E+02 -0.22991864456E+01  0.28089995734E+02  0.41800000000E+01 0. -1.
         -5    1    3    3    0  502  0.20265172706E+02 -0.22032112525E+02 -0.32532020007E+03  0.32672128210E+03  0.41800000000E+01 0. -1.
        -11    1    1    2    0    0  0.56957382322E+01  0.57203712490E+02 -0.21929142505E+03  0.22670120259E+03  0.00000000000E+00 0.  1.
         11    1    1    2    0    0 -0.26650645408E+02 -0.74982649937E+01 -0.16953473192E+02  0.32463843455E+02  0.00000000000E+00 0. -1.
</event>
<event>
 6    1  0.1050421E-005  0.4679314E+03  0.7561462E-02  0.1022506E+00
         -2   -1    0    0    0  501 -0.00000000000E+00  0.00000000000E+00  0.37361693393E+03  0.37361693393E+03  0.00000000000E+00 0.  1.
          2   -1    0    0  501    0  0.00000000000E+00 -0.00000000000E+00 -0.14748736122E+04  0.14748736122E+04  0.00000000000E+00 0. -1.
          5    1    1    2  502    0  0.41451755891E+02 -0.18742570193E+02  0.75307004002E+02  0.88080356810E+02  0.41800000000E+01 0. -1.
         -5    1    1    2    0  502  0.19704820507E+03  0.26468386059E+03 -0.38601441283E+02  0.33225454827E+03  0.41800000000E+01 0.  1.
        -11    1    1    2    0    0 -0.35689425860E+03 -0.96868760123E+02 -0.11448195055E+03  0.38712166758E+03  0.00000000000E+00 0.  1.
         11    1    1    2    0    0  0.11839429764E+03 -0.14907253027E+03 -0.10234802904E+04  0.10410339734E+04  0.00000000000E+00 0. -1.
</event>
<event>
 7    1  0.8653652E-006  0.1128599E+03  0.7561462E-02  0.1255364E+00
          3   -1    0    0  501    0  0.00000000000E+00  0.00000000000E+00  0.21810461938E+03  0.21810461938E+03  0.00000000000E+00 0. -1.
         -3   -1    0    0    0  501 -0.00000000000E+00 -0.00000000000E+00 -0.60335585727E+02  0.60335585727E+02  0.00000000000E+00 0.  1.
         23    2    1    2    0    0 -0.37192956726E+02 -0.14958244624E+02  0.80647485037E+02  0.15414332443E+03  0.12509629295E+03 0.  0.
          5    1    3    3  502    0 -0.63991497626E+02  0.36068387954E+02  0.45338146897E+02  0.86422568476E+02  0.41800000000E+01 0. -1.
         -5    1    3    3    0  502  0.26798540899E+02 -0.51026632578E+02  0.35309338140E+02  0.67720755950E+02  0.41800000000E+01 0. -1.
        -11    1    1    2    0    0  0.12614245675E+02 -0.35802167574E+02  0.16182177989E+02  0.41264721996E+02  0.00000000000E+00 0.  1.
         11    1    1    2    0    0  0.24578711052E+02  0.50760412198E+02  0.60939370626E+02  0.83032158685E+02  0.00000000000E+00 0. -1.
</event>
<event>
 7    1  0.8653652E-006  0.1585542E+03  0.7561462E-02  0.1190339E+00
         -1   -1    0    0    0  501 -0.00000000000E+00  0.00000000000E+00  0.16895699758E+03  0.16895699758E+03  0.00000000000E+00 0.  1.
          1   -1    0    0  501    0  0.00000000000E+00 -0.00000000000E+00 -0.20515017194E+03  0.20515017194E+03  0.00000000000E+00 0. -1.
         23    2    1    2    0    0 -0.23303891907E+02  0.12313828232E+03  0.69299716235E+02  0.19014784758E+03  0.12509054849E+03 0.  0.
          5    1    3    3  502    0 -0.28759352046E+01 -0.20571568693E+02  0.35037788301E+02  0.40946055375E+02  0.41800000000E+01 0.  1.
         -5    1    3    3    0  502 -0.20427956703E+02  0.14370985101E+03  0.34261927934E+02  0.14920179221E+03  0.41800000000E+01 0.  1.
        -11    1    1    2    0    0 -0.19941183186E+02 -0.99386559325E+02 -0.70827637873E+02  0.12366039482E+03  0.00000000000E+00 0. -1.
         11    1    1    2    0    0  0.43245075093E+02 -0.23751722993E+02 -0.34665252719E+02  0.60298927113E+02  0.00000000000E+00 0.  1.
</event>
<event>
 6    1  0.8653652E-006  0.9679336E+02  0.7561462E-02  0.1287187E+00
         -3   -1    0    0    0  501 -0.00000000000E+00  0.00000000000E+00  0.47401315994E+02  0.47401315994E+02  0.00000000000E+00 0.  1.
          3   -1    0    0  501    0  0.00000000000E+00 -0.00000000000E+00 -0.58341235739E+03  0.58341235739E+03  0.00000000000E+00 0. -1.
          5    1    1    2  502    0  0.20894944385E+02 -0.13344388576E+02 -0.19539185002E+03  0.19700283972E+03  0.41800000000E+01 0. -1.
         -5    1    1    2    0  502 -0.21554101249E+02  0.62637392666E+02  0.11218590463E+02  0.67315313359E+02  0.41800000000E+01 0.  1.
        -11    1    1    2    0    0  0.30568845607E+02  0.12806703837E+02 -0.13251049335E+03  0.13659244793E+03  0.00000000000E+00 0.  1.
         11    1    1    2    0    0 -0.29909688743E+02 -0.62099707927E+02 -0.21932728850E+03  0.22990307237E+03  0.00000000000E+00 0. -1.
</event>
<event>
 7    1  0.8653652E-006  0.1220283E+03  0.7561462E-02  0.1239788E+00
          1   -1    0    0  501    0  0.00000000000E+00  0.00000000000E+00  0.46705356294E+03  0.46705356294E+03  0.00000000000E+00 0. -1.
         -1   -1    0    0    0  501 -0.00000000000E+00 -0.00000000000E+00 -0.41360521728E+02  0.41360521728E+02  0.00000000000E+00 0.  1.
         23    2    1    2    0    0 -0.55270649298E+02  0.23985418381E+02  0.11964729641E+03  0.18329042938E+03  0.12509900477E+03 0.  0.
          5    1    3    3  502    0  0.12337399146E+02  0.57463992632E+02  0.30231261974E+02  0.66224794959E+02  0.41800000000E+01 0.  1.
         -5    1    3    3    0  502 -0.67608048444E+02 -0.33478574251E+02  0.89416034434E+02  0.11706563442E+03  0.41800000000E+01 0.  1.
        -11    1    1    2    0    0 -0.10683415393E+02  0.25153919615E+02  0.69014240648E+02  0.74228164793E+02  0.00000000000E+00 0.  1.
         11    1    1    2    0    0  0.65954064691E+02 -0.49139337995E+02  0.23703150415E+03  0.25089549049E+03  0.00000000000E+00 0. -1.
</event>
<event>
 6    1  0.8653652E-006  0.1143398E+03  0.7561462E-02  0.1252738E+00
          1   -1    0    0  501    0  0.00000000000E+00  0.00000000000E+00  0.27661431988E+03  0.27661431988E+03  0.00000000000E+00 0. -1.
         -1   -1    0    0    0  501 -0.00000000000E+00 -0.00000000000E+00 -0.77681286474E+02  0.77681286474E+02  0.00000000000E+00 0.  1.
          5    1    1    2  502    0  0.29737379783E+02  0.20798806021E+02 -0.33280704710E+02  0.49416391959E+02  0.41800000000E+01 0. -1.
         -5    1    1    2    0  502 -0.82671093845E+02  0.10038231714E+02  0.67194239126E+02  0.10708787992E+03  0.41800000000E+01 0.  1.
        -11    1    1    2    0    0  0.77331699220E+02 -0.12702749189E+02  0.11242518638E+03  0.13704369403E+03  0.00000000000E+00 0. -1.
         11    1    1    2    0    0 -0.24397985159E+02 -0.18134288546E+02  0.52594312608E+02  0.60747640444E+02  0.00000000000E+00 0.  1.
</event>
<event>
 7    1  0.8653652E-006  0.1113678E+03  0.7561462E-02  0.1258058E+00
          2   -1    0    0  501    0  0.00000000000E+00  0.00000000000E+00  0.90849665657E+02  0.90849665657E+02  0.00000000000E+00 0. -1.
         -2   -1    0    0    0  501 -0.00000000000E+00 -0.00000000000E+00 -0.16994135943E+03  0.16994135943E+03  0.00000000000E+00 0.  1.
         23    2    1    2    0    0 -0.39585754475E+02 -0.40580908182E+02 -0.66702316380E+02  0.15267784674E+03  0.12508990290E+03 0.  0.
          5    1    3    3  502    0  0.42305402747E+02 -0.32988096104E+02 -0.16717625822E+02  0.56346366336E+02  0.41800000000E+01 0. -1.
         -5    1    3    3    0  502 -0.81891157221E+02 -0.75928120786E+01 -0.49984690558E+02  0.96331480402E+02  0.41800000000E+01 0. -1.
        -11    1    1    2    0    0  0.26184194955E+01  0.48666229080E+02 -0.38524508088E+02  0.62124034776E+02  0.00000000000E+00 0.  1.
         11    1    1    2    0    0  0.36967334979E+02 -0.80853208977E+01  0.26135130699E+02  0.45989143568E+02  0.00000000000E+00 0. -1.
</event>
<event>
 7    1  0.8653652E-006  0.1044782E+03  0.7561462E-02  0.1271151E+00
         -3   -1    0    0    0  501 -0.00000000000E+00  0.00000000000E+00  0.69188802607E+03  0.69188802607E+03  0.00000000000E+00 0.  1.
          3   -1    0    0  501    0  0.00000000000E+00 -0.00000000000E+00 -0.31463591349E+02  0.31463591349E+02  0.00000000000E+00 0. -1.
         23    2    1    2    0    0  0.46892374491E+02  0.77691942111E+02  0.45785795184E+03  0.48323516264E+03  0.12508951072E+03 0.  0.
          5    1    3    3  502    0  0.16094809657E+02  0.82169350372E+02  0.13540655382E+03  0.15925844485E+03  0.41800000000E+01 0. -1.
         -5    1    3    3    0  502  0.30797564834E+02 -0.44774082609E+01  0.32245139802E+03  0.32397671779E+03  0.41800000000E+01 0. -1.
        -11    1    1    2    0    0 -0.64797345336E+01 -0.32308101035E+02  0.16590361239E+03  0.16914434356E+03  0.00000000000E+00 0.  1.
         11    1    1    2    0    0 -0.40412639957E+02 -0.45383841075E+02  0.36662870486E+02  0.70972111222E+02  0.00000000000E+00 0. -1.
</event>
<event>
 7    1  0.8653652E-006  0.1046625E+03  0.7561462E-02  0.1270786E+00
         -1   -1    0    0    0  501 -0.00000000000E+00  0.00000000000E+00  0.68659169098E+02  0.68659169098E+02  0.00000000000E+00 0.  1.
          1   -1    0    0  501    0  0.00000000000E+00 -0.00000000000E+00 -0.25269925625E+03  0.25269925625E+03  0.00000000000E+00 0. -1.
         23    2    1    2    0    0  0.56239722997E+02 -0.12683935775E+02 -0.44937075649E+02  0.14481315055E+03  0.12501087606E+03 0.  0.
          5    1    3    3  502    0 -0.38990315592E+02 -0.16487747358E+01 -0.96662994472E+00  0.39260284532E+02  0.41800000000E+01 0. -1.
         -5    1    3    3    0  502  0.95230038588E+02 -0.11035161040E+02 -0.43970445704E+02  0.10555286602E+03  0.41800000000E+01 0. -1.
        -11    1    1    2    0    0 -0.32953638135E+02 -0.16442189358E+02 -0.47735574617E+01  0.37135895143E+02  0.00000000000E+00 0.  1.
         11    1    1    2    0    0 -0.23286084862E+02  0.29126125133E+02 -0.13432945404E+03  0.13940937965E+03  0.00000000000E+00 0. -1.
</event>
<event>
 7    1  0.8653652E-006  0.1279909E+03  0.7561462E-02  0.1230468E+00
         -2   -1    0    0    0  501 -0.00000000000E+00  0.00000000000E+00  0.16584583070E+03  0.16584583070E+03  0.00000000000E+00 0.  1.
          2   -1    0    0  501    0  0.00000000000E+00 -0.00000000000E+00 -0.12649257247E+03  0.12649257247E+03  0.00000000000E+00 0. -1.
         23    2    1    2    0    0 -0.24663199152E+02  0.77476397743E+02  0.87255079468E+02  0.16235877071E+03  0.11016376870E+03 0.  0.
          5    1    3    3  502    0 -0.30998315965E+02  0.10356052476E+03  0.59255970460E+02  0.12334674830E+03  0.41800000000E+01 0. -1.
         -5    1    3    3    0  502  0.63351168125E+01 -0.26084127017E+02  0.27999109008E+02  0.39012022410E+02  0.41800000000E+01 0.  1.
        -11    1    1    2    0    0  0.26886593188E+02 -0.97167368481E+02 -0.37233465089E+02  0.10747426349E+03  0.00000000000E+00 0. -1.
         11    1    1    2    0    0 -0.22233940362E+01  0.19690970738E+02 -0.10668356146E+02  0.22505368971E+02  0.00000000000E+00 0.  1.
</event>
<event>
 7    1  0.8653652E-006  0.1131206E+03  0.7561462E-02  0.1254898E+00
         -1   -1    0    0    0  501 -0.00000000000E+00  0.00000000000E+00  0.11857053514E+03  0.11857053514E+03  0.00000000000E+00 0.  1.
          1   -1    0    0  501    0  0.00000000000E+00 -0.00000000000E+00 -0.13842744523E+03  0.13842744523E+03  0.00000000000E+00 0. -1.
         23    2    1    2    0    0 -0.25573815649E+02 -0.63091355598E+02 -0.88002595117E+01  0.14268743077E+03  0.12509084352E+03 0.  0.
          5    1    3    3  502    0  0.28901738915E+01 -0.93575978777E+02 -0.26193469932E+02  0.97305637947E+02  0.41800000000E+01 0.  1.
         -5    1    3    3    0  502 -0.28463989541E+02  0.30484623178E+02  0.17393210420E+02  0.45381792821E+02  0.41800000000E+01 0.  1.
        -11    1    1    2    0    0 -0.16877139737E+02  0.31638183237E+01  0.26691283827E+02  0.31737552275E+02  0.00000000000E+00 0.  1.
         11    1    1    2    0    0  0.42450955386E+02  0.59927537275E+02 -0.37747934401E+02  0.82572997333E+02  0.00000000000E+00 0. -1.
</event>
<event>
 6    1  0.8653652E-006  0.3140984E+03  0.7561462E-02  0.1078398E+00
         -1   -1    0    0    0  501 -0.00000000000E+00  0.00000000000E+00  0.53190918171E+03  0.53190918171E+03  0.00000000000E+00 0.  1.
          1   -1    0    0  501    0  0.00000000000E+00 -0.00000000000E+00 -0.46745985612E+03  0.46745985612E+03  0.00000000000E+00 0. -1.
          5    1    1    2  502    0 -0.27015696567E+03  0.18393007147E+02  0.20633658223E+03  0.34046342884E+03  0.41800000000E+01 0. -1.
         -5    1    1    2    0  502  0.13469959371E+03 -0.11630954583E+03  0.20005133164E+03  0.26778703980E+03  0.41800000000E+01 0.  1.
        -11    1    1    2    0    0  0.94771591441E+02  0.28601166421E+02 -0.25064631229E+03  0.26948702219E+03  0.00000000000E+00 0. -1.
         11    1    1    2    0    0  0.40685780524E+02  0.69315372264E+02 -0.91292275993E+02  0.12163154700E+03  0.00000000000E+00 0.  1.
</event>
<event>
 7    1  0.8653652E-006  0.9296780E+02  0.7561462E-02  0.1295820E+00
         -1   -1    0    0    0  501 -0.00000000000E+00  0.00000000000E+00  0.82150911662E+02  0.82150911662E+02  0.00000000000E+00 0.  1.
          1   -1    0    0  501    0  0.00000000000E+00 -0.00000000000E+00 -0.22441590080E+03  0.22441590080E+03  0.00000000000E+00 0. -1.
         23    2    1    2    0    0  0.24992673105E+02  0.47249458479E+02 -0.27423543288E+02  0.13876810667E+03  0.12508953460E+03 0.  0.
          5    1    3    3  502    0  0.11481733516E+01 -0.40816495100E+02 -0.23618643118E+02  0.47356280228E+02  0.41800000000E+01 0. -1.
         -5    1    3    3    0  502  0.23844499754E+02  0.88065953579E+02 -0.38049001697E+01  0.91411826443E+02  0.41800000000E+01 0. -1.
        -11    1    1    2    0    0 -0.93169794178E+01 -0.14280401409E+02  0.21049842266E+02  0.27089330543E+02  0.00000000000E+00 0.  1.
         11    1    1    2    0    0 -0.15675693687E+02 -0.32969057071E+02 -0.13589128811E+03  0.14070937524E+03  0.00000000000E+00 0. -1.
</event>
<event>
 7    1  0.8653652E-006  0.8852992E+02  0.7561462E-02  0.1306451E+00
          2   -1    0    0  501    0  0.00000000000E+00  0.00000000000E+00  0.15379608141E+03  0.15379608141E+03  0.00000000000E+00 0. -1.
         -2   -1    0    0    0  501 -0.00000000000E+00 -0.00000000000E+00 -0.11418943577E+03  0.11418943577E+03  0.00000000000E+00 0.  1.
         23    2    1    2    0    0 -0.71362714097E+01 -0.60034549403E+02 -0.23765739087E+02  0.14095307461E+03  0.12509150809E+03 0.  0.
          5    1    3    3  502    0 -0.19905729451E+02 -0.46473181994E+02  0.46087309127E+02  0.68538362777E+02  0.41800000000E+01 0.  1.
         -5    1    3    3    0  502  0.12769458042E+02 -0.13561367409E+02 -0.69853048214E+02  0.72414711830E+02  0.41800000000E+01 0.  1.
        -11    1    1    2    0    0 -0.26935190845E+02  0.67223099418E+02  0.28716505078E+02  0.77904346895E+02  0.00000000000E+00 0.  1.
         11    1    1    2    0    0  0.34071462255E+02 -0.71885500147E+01  0.34655879643E+02  0.49128095682E+02  0.00000000000E+00 0. -1.
</event>
<event>
 7    1  0.8653652E-006  0.1757408E+03  0.7561462E-02  0.1171990E+00
          2   -1    0    0  501    0  0.00000000000E+00  0.00000000000E+00  0.47683946089E+03  0.47683946089E+03  0.00000000000E+00 0. -1.
         -2   -1    0    0    0  501 -0.00000000000E+00 -0.00000000000E+00 -0.94159042709E+02  0.94159042709E+02  0.00000000000E+00 0.  1.
         23    2    1    2    0    0  0.12593433895E+03  0.10765977610E+03  0.10002443263E+03  0.23044503073E+03  0.12509972003E+03 0.  0.
          5    1    3    3  502    0  0.46927779301E+01 -0.12204994006E+02  0.51262663618E+02  0.53068984582E+02  0.41800000000E+01 0.  1.
         -5    1    3    3    0  502  0.12124156102E+03  0.11986477010E+03  0.48761769009E+02  0.17737604615E+03  0.41800000000E+01 0.  1.
        -11    1    1    2    0    0 -0.54731356251E+02 -0.32378464829E+02  0.36136637012E+02  0.73141936509E+02  0.00000000000E+00 0.  1.
         11    1    1    2    0    0 -0.71202982700E+02 -0.75281311269E+02  0.24651934854E+03  0.26741153636E+03  0.00000000000E+00 0. -1.
</event>
<event>
 7    1  0.8653652E-006  0.8404330E+02  0.7561462E-02  0.1317954E+00
         -1   -1    0    0    0  501 -0.00000000000E+00  0.00000000000E+00  0.21703388443E+03  0.21703388443E+03  0.00000000000E+00 0.  1.
          1   -1    0    0  501    0  0.00000000000E+00 -0.00000000000E+00 -0.70885166200E+02  0.70885166200E+02  0.00000000000E+00 0. -1.
         23    2    1    2    0    0  0.20055600213E+02  0.13050858583E+02  0.14822496297E+03  0.19542864277E+03  0.12509661370E+03 0.  0.
          5    1    3    3  502    0  0.15788828794E+02 -0.41745193735E+02  0.12978031312E+03  0.13730386152E+03  0.41800000000E+01 0.  1.
         -5    1    3    3    0  502  0.42667714187E+01  0.54796052318E+02  0.18444649850E+02  0.58124781256E+02  0.41800000000E+01 0.  1.
        -11    1    1    2    0    0 -0.31654033430E+02 -0.32580433701E+02 -0.31530020392E+02  0.55295611747E+02  0.00000000000E+00 0. -1.
         11    1    1    2    0    0  0.11598433217E+02  0.19529575118E+02  0.29453775654E+02  0.37194796110E+02  0.00000000000E+00 0.  1.
</event>
<event>
 7    1  0.8653652E-006  0.7011793E+02  0.7561462E-02  0.1359692E+00
          2   -1    0    0  501    0  0.00000000000E+00  0.00000000000E+00  0.38104435150E+02  0.38104435150E+02  0.00000000000E+00 0. -1.
         -2   -1    0    0    0  501 -0.00000000000E+00 -0.00000000000E+00 -0.34007272378E+03  0.34007272378E+03  0.00000000000E+00 0.  1.
         23    2    1    2    0    0  0.36609564980E+02  0.19052147366E+01 -0.19410498750E+03  0.23150032550E+03  0.12071356363E+03 0.  0.
          5    1    3    3  502    0  0.14836243240E+01 -0.26638707350E+01  0.16811290237E+02  0.17589463547E+02  0.41800000000E+01 0. -1.
         -5    1    3    3    0  502  0.35125940656E+02  0.45690854717E+01 -0.21091627774E+03  0.21391086196E+03  0.41800000000E+01 0.  1.
        -11    1    1    2    0    0  0.26953402757E+02 -0.19702499278E+02 -0.36662150977E+02  0.49586164524E+02  0.00000000000E+00 0.  1.
         11    1    1    2    0    0 -0.63562967737E+02  0.17797284541E+02 -0.71201150152E+02  0.97090668901E+02  0.00000000000E+00 0. -1.
</event>
<event>
 7    1  0.8653652E-006  0.9683847E+02  0.7561462E-02  0.1287088E+00
         -1   -1    0    0    0  501 -0.00000000000E+00  0.00000000000E+00  0.16642410688E+03  0.16642410688E+03  0.00000000000E+00 0.  1.
          1   -1    0    0  501    0  0.00000000000E+00 -0.00000000000E+00 -0.90080578591E+02  0.90080578591E+02  0.00000000000E+00 0. -1.
         23    2    1    2    0    0 -0.36094147664E+02  0.35452727244E+02  0.79312187959E+02  0.15165920219E+03  0.11895548362E+03 0.  0.
          5    1    3    3  502    0  0.68425586153E+00  0.67331749367E+02  0.12055258401E+02  0.68533454123E+02  0.41800000000E+01 0. -1.
         -5    1    3    3    0  502 -0.36778403526E+02 -0.31879022123E+02  0.67256929558E+02  0.83125748063E+02  0.41800000000E+01 0.  1.
        -11    1    1    2    0    0 -0.15741971339E+02 -0.14658158254E+02  0.32288047168E+02  0.38796768615E+02  0.00000000000E+00 0. -1.
         11    1    1    2    0    0  0.51836119003E+02 -0.20794568990E+02 -0.35256706837E+02  0.66048714672E+02  0.00000000000E+00 0.  1.
</event>
<event>
 7    1  0.8653652E-006  0.1177250E+03  0.7561462E-02  0.1246898E+00
         -2   -1    0    0    0  501 -0.00000000000E+00  0.00000000000E+00  0.92919543494E+02  0.92919543494E+02  0.00000000000E+00 0.  1.
          2   -1    0    0  501    0  0.00000000000E+00 -0.00000000000E+00 -0.16596388963E+03  0.16596388963E+03  0.00000000000E+00 0. -1.
         23    2    1    2    0    0 -0.57966043282E+02 -0.51972625900E+01 -0.23540206847E+02  0.13996899730E+03  0.12510038032E+03 0.  0.
          5    1    3    3  502    0 -0.43696757839E+02  0.56039790865E+02 -0.28675220558E+02  0.76743765088E+02  0.41800000000E+01 0.  1.
         -5    1    3    3    0  502 -0.14269285444E+02 -0.61237053455E+02  0.51350137111E+01  0.63225232216E+02  0.41800000000E+01 0.  1.
        -11    1    1    2    0    0  0.68453284646E+02  0.29682644356E+02 -0.16344147466E+02  0.76380905409E+02  0.00000000000E+00 0.  1.
         11    1    1    2    0    0 -0.10487241364E+02 -0.24485381766E+02 -0.33159991827E+02  0.42533530416E+02  0.00000000000E+00 0. -1.
</event>
<event>
 7    1  0.8653652E-006  0.1496297E+03  0.7561462E-02  0.1200929E+00
          2   -1    0    0  501    0  0.00000000000E+00  0.00000000000E+00  0.51173095988E+03  0.51173095988E+03  0.00000000000E+00 0.  1.
         -2   -1    0    0    0  501 -0.00000000000E+00 -0.00000000000E+00 -0.69828066751E+02  0.69828066751E+02  0.00000000000E+00 0. -1.
         23    2    1    2    0    0 -0.13277200250E+03  0.44913262487E+02  0.13607362642E+03  0.23197206974E+03  0.12509757607E+03 0.  0.
          5    1    3    3  502    0 -0.28955619119E+02 -0.42698891604E+01 -0.21762733186E+02  0.36711698241E+02  0.41800000000E+01 0.  1.
         -5    1    3    3    0  502 -0.10381638338E+03  0.49183151647E+02  0.15783635961E+03  0.19526037150E+03  0.41800000000E+01 0.  1.
        -11    1    1    2    0    0  0.40607039591E+02  0.16668281466E+02  0.16291441192E+03  0.16872423917E+03  0.00000000000E+00 0.  1.
         11    1    1    2    0    0  0.92164962907E+02 -0.61581543952E+02  0.14291485478E+03  0.18086271772E+03  0.00000000000E+00 0. -1.
</event>
<event>
 7    1  0.8653652E-006  0.1065494E+03  0.7561462E-02  0.1267097E+00
         -1   -1    0    0    0  501 -0.00000000000E+00  0.00000000000E+00  0.10619720687E+03  0.10619720687E+03  0.00000000000E+00 0.  1.
          1   -1    0    0  501    0  0.00000000000E+00 -0.00000000000E+00 -0.17259891694E+03  0.17259891694E+03  0.00000000000E+00 0. -1.
         23    2    1    2    0    0 -0.78071761836E+02 -0.17676338265E+01 -0.14504415300E+02  0.14815160890E+03  0.12506077175E+03 0.  0.
          5    1    3    3  502    0 -0.35371842336E+02  0.40576484641E+02 -0.53778866567E+02  0.76205362182E+02  0.41800000000E+01 0.  1.
         -5    1    3    3    0  502 -0.42699919500E+02 -0.42344118468E+02  0.39274451267E+02  0.71946246715E+02  0.41800000000E+01 0.  1.
        -11    1    1    2    0    0  0.71367542676E+02 -0.21561163526E+02 -0.68493539392E+02  0.10124018401E+03  0.00000000000E+00 0.  1.
         11    1    1    2    0    0  0.67042191596E+01  0.23328797352E+02  0.16596244616E+02  0.29404330902E+02  0.00000000000E+00 0. -1.
</event>
<event>
 7    1  0.8653652E-006  0.1952754E+03  0.7561462E-02  0.1153788E+00
          2   -1    0    0  501    0  0.00000000000E+00  0.00000000000E+00  0.59704267483E+02  0.59704267483E+02  0.00000000000E+00 0. -1.
         -2   -1    0    0    0  501 -0.00000000000E+00 -0.00000000000E+00 -0.88634659053E+03  0.88634659053E+03  0.00000000000E+00 0.  1.
         23    2    1    2    0    0 -0.72680442310E+02  0.15437786196E+03 -0.66522045836E+03  0.69805540136E+03  0.12509242261E+03 0.  0.
          5    1    3    3  502    0 -0.60652777071E+01  0.14370784352E+03 -0.44341515748E+03  0.46617937124E+03  0.41800000000E+01 0.  1.
         -5    1    3    3    0  502 -0.66615164603E+02  0.10670018434E+02 -0.22180530088E+03  0.23187603012E+03  0.41800000000E+01 0.  1.
        -11    1    1    2    0    0  0.94045215980E+00 -0.62430203590E+02 -0.21935517336E+02  0.66178408044E+02  0.00000000000E+00 0. -1.
         11    1    1    2    0    0  0.71739990150E+02 -0.91947658368E+02 -0.13948634735E+03  0.18181704861E+03  0.00000000000E+00 0.  1.
</event>
<event>
 7    1  0.8653652E-006  0.1144321E+03  0.7561462E-02  0.1252576E+00
         -2   -1    0    0    0  501 -0.00000000000E+00  0.00000000000E+00  0.29393751047E+02  0.29393751047E+02  0.00000000000E+00 0.  1.
          2   -1    0    0  501    0  0.00000000000E+00 -0.00000000000E+00 -0.77760895896E+03  0.77760895896E+03  0.00000000000E+00 0. -1.
         23    2    1    2    0    0  0.36551129250E+02 -0.78258535171E+02 -0.24811037487E+03  0.29096300028E+03  0.12506128914E+03 0.  0.
          5    1    3    3  502    0  0.36805560063E+02 -0.13028044912E+02 -0.54374717934E+01  0.39641111302E+02  0.41800000000E+01 0. -1.
         -5    1    3    3    0  502 -0.25443081278E+00 -0.65230490259E+02 -0.24267290307E+03  0.25132188898E+03  0.41800000000E+01 0. -1.
        -11    1    1    2    0    0 -0.54553884414E+02  0.12382735767E+02 -0.17078573304E+03  0.17971428730E+03  0.00000000000E+00 0.  1.
         11    1    1    2    0    0  0.18002755164E+02  0.65875799404E+02 -0.32931910000E+03  0.33632542242E+03  0.00000000000E+00 0. -1.
</event>
<event>
 7    1  0.8653652E-006  0.1018092E+03  0.7561462E-02  0.1276537E+00
          1   -1    0    0  501    0  0.00000000000E+00  0.00000000000E+00  0.17759833672E+03  0.17759833672E+03  0.00000000000E+00 0. -1.
         -1   -1    0    0    0  501 -0.00000000000E+00 -0.00000000000E+00 -0.95289419624E+02  0.95289419624E+02  0.00000000000E+00 0.  1.
         23    2    1    2    0    0  0.32940339593E+02 -0.61905670559E+02  0.33097110919E+02  0.14717459289E+03  0.12509022352E+03 0.  0.
          5    1    3    3  502    0  0.65270000722E+02 -0.36559762214E+02  0.61600603835E+02  0.96999463917E+02  0.41800000000E+01 0.  1.
         -5    1    3    3    0  502 -0.32329661129E+02 -0.25345908345E+02 -0.28503492916E+02  0.50175128968E+02  0.41800000000E+01 0.  1.
        -11    1    1    2    0    0 -0.43772298995E+02  0.62776408428E+02  0.12550619363E+01  0.76540621861E+02  0.00000000000E+00 0.  1.
         11    1    1    2    0    0  0.10831959402E+02 -0.87073786949E+00  0.47956744244E+02  0.49172541600E+02  0.00000000000E+00 0. -1.
</event>
<event>
 7    1  0.8653652E-006  0.1588872E+03  0.7561462E-02  0.1189959E+00
         -1   -1    0    0    0  501 -0.00000000000E+00  0.00000000000E+00  0.34262762073E+02  0.34262762073E+02  0.00000000000E+00 0.  1.
          1   -1    0    0  501    0  0.00000000000E+00 -0.00000000000E+00 -0.75851870855E+03  0.75851870855E+03  0.00000000000E+00 0. -1.
         23    2    1    2    0    0  0.91824925958E+02  0.73101732872E+02 -0.34073025623E+03  0.38148946792E+03  0.12514562017E+03 0.  0.
          5    1    3    3  502    0  0.60202894809E+02  0.10731094549E+03 -0.26930047259E+03  0.29610850123E+03  0.41800000000E+01 0.  1.
         -5    1    3    3    0  502  0.31622031149E+02 -0.34209212618E+02 -0.71429783646E+02  0.85380966694E+02  0.41800000000E+01 0.  1.
        -11    1    1    2    0    0 -0.28152584861E+01 -0.57439677261E+02 -0.13048438611E+03  0.14259529173E+03  0.00000000000E+00 0. -1.
         11    1    1    2    0    0 -0.89009667472E+02 -0.15662055611E+02 -0.25304130414E+03  0.26869671098E+03  0.00000000000E+00 0.  1.
</event>
<event>
 7    1  0.8653652E-006  0.1435157E+03  0.7561462E-02  0.1208675E+00
          2   -1    0    0  501    0  0.00000000000E+00  0.00000000000E+00  0.17885503652E+03  0.17885503652E+03  0.00000000000E+00 0. -1.
         -2   -1    0    0    0  501 -0.00000000000E+00 -0.00000000000E+00 -0.13698272586E+03  0.13698272586E+03  0.00000000000E+00 0.  1.
         23    2    1    2    0    0  0.37607875276E+01 -0.11522928568E+03  0.16120880440E+02  0.16995031318E+03  0.12381960411E+03 0.  0.
          5    1    3    3  502    0  0.12238769161E+02 -0.13478213339E+03  0.36429733758E+02  0.14021629311E+03  0.41800000000E+01 0. -1.
         -5    1    3    3    0  502 -0.84779816330E+01  0.19552847709E+02 -0.20308853318E+02  0.29734020064E+02  0.41800000000E+01 0.  1.
        -11    1    1    2    0    0 -0.10931197542E+02 -0.31030391136E+01 -0.16499651557E+02  0.20033932039E+02  0.00000000000E+00 0. -1.
         11    1    1    2    0    0  0.71704100145E+01  0.11833232480E+03  0.42251081781E+02  0.12585351717E+03  0.00000000000E+00 0.  1.
</event>
<event>
 7    1  0.8653652E-006  0.1132257E+03  0.7561462E-02  0.1254710E+00
          2   -1    0    0  501    0  0.00000000000E+00  0.00000000000E+00  0.11812578928E+03  0.11812578928E+03  0.00000000000E+00 0. -1.
         -2   -1    0    0    0  501 -0.00000000000E+00 -0.00000000000E+00 -0.13006921524E+03  0.13006921524E+03  0.00000000000E+00 0.  1.
         23    2    1    2    0    0  0.59889988220E+02  0.55304908262E+00 -0.26139876416E+02  0.14112822023E+03  0.12508702912E+03 0.  0.
          5    1    3    3  502    0  0.49717234002E+02  0.54789405181E+02 -0.39817990166E+02  0.84122690267E+02  0.41800000000E+01 0. -1.
         -5    1    3    3    0  502  0.10172754219E+02 -0.54236356098E+02  0.13678113749E+02  0.57005529968E+02  0.41800000000E+01 0. -1.
        -11    1    1    2    0    0 -0.48546404980E+02  0.34897412671E+02  0.29685047762E+02  0.66751665959E+02  0.00000000000E+00 0. -1.
         11    1    1    2    0    0 -0.11343583241E+02 -0.35450461754E+02 -0.15488597304E+02  0.40315118327E+02  0.00000000000E+00 0.  1.
</event>
<event>
 7    1  0.8653652E-006  0.8457829E+02  0.7561462E-02  0.1316539E+00
         -1   -1    0    0    0  501 -0.00000000000E+00  0.00000000000E+00  0.68341692395E+02  0.68341692395E+02  0.00000000000E+00 0.  1.
          1   -1    0    0  501    0  0.00000000000E+00 -0.00000000000E+00 -0.27111262277E+03  0.27111262277E+03  0.00000000000E+00 0. -1.
         23    2    1    2    0    0 -0.73417386874E+02 -0.12514102359E+02 -0.64623368912E+02  0.15928701125E+03  0.12509778851E+03 0.  0.
          5    1    3    3  502    0 -0.80852531493E+02 -0.19250835437E+02 -0.95430786861E+02  0.12661845835E+03  0.41800000000E+01 0.  1.
         -5    1    3    3    0  502  0.74351446187E+01  0.67367330785E+01  0.30807417950E+02  0.32668552903E+02  0.41800000000E+01 0.  1.
        -11    1    1    2    0    0  0.45526025474E+02  0.12375117179E+02 -0.14411818345E+03  0.15164370518E+03  0.00000000000E+00 0. -1.
         11    1    1    2    0    0  0.27891361400E+02  0.13898518019E+00  0.59706219854E+01  0.28523598730E+02  0.00000000000E+00 0.  1.
</event>
<event>
 7    1  0.8653652E-006  0.1203732E+03  0.7561462E-02  0.1242483E+00
          2   -1    0    0  501    0  0.00000000000E+00  0.00000000000E+00  0.67829641761E+03  0.67829641761E+03  0.00000000000E+00 0. -1.
         -2   -1    0    0    0  501 -0.00000000000E+00 -0.00000000000E+00 -0.23927164456E+02  0.23927164456E+02  0.00000000000E+00 0.  1.
         23    2    1    2    0    0 -0.41518636174E+02 -0.33974270226E+02  0.25593233725E+03  0.28987891174E+03  0.12510145498E+03 0.  0.
          5    1    3    3  502    0 -0.85058118030E+02 -0.99917936464E+01  0.14969118083E+03  0.17250982987E+03  0.41800000000E+01 0.  1.
         -5    1    3    3    0  502  0.43539481856E+02 -0.23982476580E+02  0.10624115641E+03  0.11736908187E+03  0.41800000000E+01 0.  1.
        -11    1    1    2    0    0  0.39823724374E+02 -0.24410037717E+02  0.14846337771E+03  0.15563789219E+03  0.00000000000E+00 0.  1.
         11    1    1    2    0    0  0.16949117996E+01  0.58384307944E+02  0.24997353820E+03  0.25670677813E+03  0.00000000000E+00 0. -1.
</event>
<event>
 7    1  0.8653652E-006  0.1052925E+03  0.7561462E-02  0.1269544E+00
          2   -1    0    0  501    0  0.00000000000E+00  0.00000000000E+00  0.17463554694E+03  0.17463554694E+03  0.00000000000E+00 0. -1.
         -2   -1    0    0    0  501 -0.00000000000E+00 -0.00000000000E+00 -0.83553290631E+02  0.83553290631E+02  0.00000000000E+00 0.  1.
         23    2    1    2    0    0 -0.23658971138E+02  0.46183059868E+02  0.49627898966E+02  0.14423144868E+03  0.12508861058E+03 0.  0.
          5    1    3    3  502    0 -0.67070012002E+02  0.44571286557E+02  0.58594354606E+02  0.99678266874E+02  0.41800000000E+01 0.  1.
         -5    1    3    3    0  502  0.43411040864E+02  0.16117733109E+01 -0.89664556397E+01  0.44553181803E+02  0.41800000000E+01 0.  1.
        -11    1    1    2    0    0  0.13945182577E+02  0.17222448870E+02  0.44529027811E+02  0.49738467809E+02  0.00000000000E+00 0.  1.
         11    1    1    2    0    0  0.97137885611E+01 -0.63405508738E+02 -0.30746704711E+01  0.64218921082E+02  0.00000000000E+00 0. -1.
</event>
<event>
 7    1  0.8653652E-006  0.8829281E+02  0.7561462E-02  0.1307039E+00
          1   -1    0    0  501    0  0.00000000000E+00  0.00000000000E+00  0.10187498475E+03  0.10187498475E+03  0.00000000000E+00 0. -1.
         -1   -1    0    0    0  501 -0.00000000000E+00 -0.00000000000E+00 -0.18349416598E+03  0.18349416598E+03  0.00000000000E+00 0.  1.
         23    2    1    2    0    0  0.78061967324E+01 -0.25468766588E+02 -0.12479307529E+03  0.17868694247E+03  0.12508443945E+03 0.  0.
          5    1    3    3  502    0 -0.74480345573E+01 -0.75097412932E+02 -0.68691698003E+02  0.10213283714E+03  0.41800000000E+01 0.  1.
         -5    1    3    3    0  502  0.15254231290E+02  0.49628646344E+02 -0.56101377283E+02  0.76554105332E+02  0.41800000000E+01 0.  1.
        -11    1    1    2    0    0 -0.24599536791E+01 -0.11399630384E+02  0.63282174654E+02  0.64347778314E+02  0.00000000000E+00 0. -1.
         11    1    1    2    0    0 -0.53462430532E+01  0.36868396972E+02 -0.20108280600E+02  0.42334429945E+02  0.00000000000E+00 0.  1.
</event>
<event>
 7    1  0.8653652E-006  0.1362602E+03  0.7561462E-02  0.1218452E+00
          1   -1    0    0  501    0  0.00000000000E+00  0.00000000000E+00  0.30775642980E+03  0.30775642980E+03  0.00000000000E+00 0. -1.
         -1   -1    0    0    0  501 -0.00000000000E+00 -0.00000000000E+00 -0.64720338050E+02  0.64720338050E+02  0.00000000000E+00 0.  1.
         23    2    1    2    0    0 -0.44780725678E+02  0.77201532154E+02  0.10775123911E+03  0.18767676537E+03  0.12508736455E+03 0.  0.
          5    1    3    3  502    0 -0.59970568775E+02 -0.10581622211E+02  0.63629842868E+02  0.88174084351E+02  0.41800000000E+01 0.  1.
         -5    1    3    3    0  502  0.15189843096E+02  0.87783154365E+02  0.44121396243E+02  0.99502681020E+02  0.41800000000E+01 0.  1.
        -11    1    1    2    0    0  0.63843912300E+02 -0.28350115472E+02  0.55009548787E+02  0.88914704312E+02  0.00000000000E+00 0. -1.
         11    1    1    2    0    0 -0.19063186622E+02 -0.48851416682E+02  0.80275303847E+02  0.95885298163E+02  0.00000000000E+00 0.  1.
</event>
<event>
 7    1  0.8653652E-006  0.7974557E+02  0.7561462E-02  0.1329775E+00
         -1   -1    0    0    0  501 -0.00000000000E+00  0.00000000000E+00  0.17265251133E+02  0.17265251133E+02  0.00000000000E+00 0.  1.
          1   -1    0    0  501    0  0.00000000000E+00 -0.00000000000E+00 -0.81034323585E+03  0.81034323585E+03  0.00000000000E+00 0. -1.
         23    2    1    2    0    0 -0.12484030260E+02 -0.35983678011E+02 -0.35040213981E+03  0.37399883012E+03  0.12507113676E+03 0.  0.
          5    1    3    3  502    0 -0.34143181346E+01  0.11584677423E+02  0.61261179271E+01  0.14172651134E+02  0.41800000000E+01 0. -1.
         -5    1    3    3    0  502 -0.90697121253E+01 -0.47568355433E+02 -0.35652825774E+03  0.35982617899E+03  0.41800000000E+01 0. -1.
        -11    1    1    2    0    0  0.51875324702E+02  0.20172355898E+02 -0.22056873307E+03  0.22748305270E+03  0.00000000000E+00 0.  1.
         11    1    1    2    0    0 -0.39391294443E+02  0.15811322113E+02 -0.22210711183E+03  0.22612660416E+03  0.00000000000E+00 0. -1.
</event>
<event>
 7    1  0.8653652E-006  0.1412794E+03  0.7561462E-02  0.1211618E+00
          2   -1    0    0  501    0  0.00000000000E+00  0.00000000000E+00  0.71303805461E+03  0.71303805461E+03  0.00000000000E+00 0. -1.
         -2   -1    0    0    0  501 -0.00000000000E+00 -0.00000000000E+00 -0.35770952327E+02  0.35770952327E+02  0.00000000000E+00 0.  1.
         23    2    1    2    0    0  0.10043727165E+03  0.50913589234E+02  0.28494352994E+03  0.33093822964E+03  0.12508979763E+03 0.  0.
          5    1    3    3  502    0  0.12196450203E+03  0.27803967062E+02  0.16657923777E+03  0.20836150123E+03  0.41800000000E+01 0.  1.
         -5    1    3    3    0  502 -0.21527230377E+02  0.23109622172E+02  0.11836429217E+03  0.12257672840E+03  0.41800000000E+01 0.  1.
        -11    1    1    2    0    0 -0.67442458262E+02 -0.61101962033E+02  0.35721740422E+03  0.36862746617E+03  0.00000000000E+00 0. -1.
         11    1    1    2    0    0 -0.32994813389E+02  0.10188372799E+02  0.35106168125E+02  0.49243311133E+02  0.00000000000E+00 0.  1.
</event>
<event>
 7    1  0.8653652E-006  0.1970116E+03  0.7561462E-02  0.1152285E+00
          1   -1    0    0  501    0  0.00000000000E+00  0.00000000000E+00  0.78900400750E+03  0.78900400750E+03  0.00000000000E+00 0. -1.
         -1   -1    0    0    0  501 -0.00000000000E+00 -0.00000000000E+00 -0.62471800671E+02  0.62471800671E+02  0.00000000000E+00 0.  1.
         23    2    1    2    0    0 -0.19073077685E+03  0.26244302911E+02  0.38206188830E+03  0.44573249633E+03  0.12505670364E+03 0.  0.
          5    1    3    3  502    0 -0.14132716065E+03  0.45045945193E+02  0.16336497561E+03  0.22069909644E+03  0.41800000000E+01 0. -1.
         -5    1    3    3    0  502 -0.49403616198E+02 -0.18801642282E+02  0.21869691269E+03  0.22503339989E+03  0.41800000000E+01 0. -1.
        -11    1    1    2    0    0  0.12612177604E+03 -0.19978953611E+02  0.13233075906E+03  0.18389478180E+03  0.00000000000E+00 0.  1.
         11    1    1    2    0    0  0.64609000806E+02 -0.62653493005E+01  0.21213955948E+03  0.22184853004E+03  0.00000000000E+00 0. -1.
</event>
<event>
 7    1  0.8653652E-006  0.8946409E+02  0.7561462E-02  0.1304155E+00
         -1   -1    0    0    0  501 -0.00000000000E+00  0.00000000000E+00  0.32517299571E+02  0.32517299571E+02  0.00000000000E+00 0.  1.
          1   -1    0    0  501    0  0.00000000000E+00 -0.00000000000E+00 -0.53954121756E+03  0.53954121756E+03  0.00000000000E+00 0. -1.
         23    2    1    2    0    0 -0.27663894553E+02  0.23496408248E+02 -0.13617773768E+03  0.18844354328E+03  0.12509684449E+03 0.  0.
          5    1    3    3  502    0 -0.43340562354E+02 -0.91958670130E+01 -0.14434047821E+03  0.15104507395E+03  0.41800000000E+01 0.  1.
         -5    1    3    3    0  502  0.15676667802E+02  0.32692275261E+02  0.81627405318E+01  0.37398469328E+02  0.41800000000E+01 0.  1.
        -11    1    1    2    0    0  0.57595757356E+02  0.33893924182E+01 -0.23100819281E+03  0.23810406211E+03  0.00000000000E+00 0. -1.
         11    1    1    2    0    0 -0.29931862803E+02 -0.26885800666E+02 -0.13983798750E+03  0.14551091174E+03  0.00000000000E+00 0.  1.
</event>
<event>
 7    1  0.8653652E-006  0.1660062E+03  0.7561462E-02  0.1182078E+00
         -2   -1    0    0    0  501 -0.00000000000E+00  0.00000000000E+00  0.20243629656E+02  0.20243629656E+02  0.00000000000E+00 0.  1.
          2   -1    0    0  501    0  0.00000000000E+00 -0.00000000000E+00 -0.14885478183E+04  0.14885478183E+04  0.00000000000E+00 0. -1.
         23    2    1    2    0    0  0.12837638080E+03 -0.33807177283E+02 -0.65932835579E+03  0.68409429835E+03  0.12509079867E+03 0.  0.
          5    1    3    3  502    0 -0.22312650846E+02 -0.51392190527E+01 -0.16104973287E+03  0.16272293882E+03  0.41800000000E+01 0. -1.
         -5    1    3    3    0  502  0.15068903164E+03 -0.28667958230E+02 -0.49827862292E+03  0.52137135954E+03  0.41800000000E+01 0. -1.
        -11    1    1    2    0    0 -0.47357886914E+01 -0.19922631574E+02 -0.53454299133E+02  0.57242475830E+02  0.00000000000E+00 0.  1.
         11    1    1    2    0    0 -0.12364059210E+03  0.53729808857E+02 -0.75552153372E+03  0.76745467377E+03  0.00000000000E+00 0. -1.
</event>
<event>
 7    1  0.8653652E-006  0.1014852E+03  0.7561462E-02  0.1277203E+00
          2   -1    0    0  501    0  0.00000000000E+00  0.00000000000E+00  0.13413702550E+03  0.13413702550E+03  0.00000000000E+00 0. -1.
         -2   -1    0    0    0  501 -0.00000000000E+00 -0.00000000000E+00 -0.14468142462E+03  0.14468142462E+03  0.00000000000E+00 0.  1.
         23    2    1    2    0    0  0.64336301078E+02 -0.27659672607E+02 -0.59423685428E+02  0.15518784485E+03  0.12509146923E+03 0.  0.
          5    1    3    3  502    0  0.45505972692E+02  0.17093641292E+02  0.27153750739E+02  0.55837126560E+02  0.41800000000E+01 0. -1.
         -5    1    3    3    0  502  0.18830328386E+02 -0.44753313898E+02 -0.86577436167E+02  0.99350718293E+02  0.41800000000E+01 0. -1.
        -11    1    1    2    0    0 -0.30907622393E+02 -0.27222045100E+02 -0.26347001994E+01  0.41270600995E+02  0.00000000000E+00 0.  1.
         11    1    1    2    0    0 -0.33428678686E+02  0.54881717706E+02  0.51513986515E+02  0.82360004272E+02  0.00000000000E+00 0. -1.
</event>
<event>
 7    1  0.8653652E-006  0.1060311E+03  0.7561462E-02  0.1268101E+00
          2   -1    0    0  501    0  0.00000000000E+00  0.00000000000E+00  0.51959207200E+03  0.51959207200E+03  0.00000000000E+00 0.  1.
         -2   -1    0    0    0  501 -0.00000000000E+00 -0.00000000000E+00 -0.32892270932E+02  0.32892270932E+02  0.00000000000E+00 0. -1.
         23    2    1    2    0    0  0.65520523944E+02  0.21236001318E+02  0.21609020748E+03  0.25901121007E+03  0.12509165585E+03 0.  0.
          5    1    3    3  502    0  0.10010411429E+03  0.16495053067E+00  0.17157395035E+03  0.19868556501E+03  0.41800000000E+01 0. -1.
         -5    1    3    3    0  502 -0.34583590345E+02  0.21071050788E+02  0.44516257136E+02  0.60325645060E+02  0.41800000000E+01 0. -1.
        -11    1    1    2    0    0 -0.13594962099E+02 -0.12568163556E+02  0.75313477930E+00  0.18529677322E+02  0.00000000000E+00 0. -1.
         11    1    1    2    0    0 -0.51925561845E+02 -0.86678377620E+01  0.26985645881E+03  0.27494345554E+03  0.00000000000E+00 0.  1.
</event>
<event>
 7    1  0.8653652E-006  0.8466656E+02  0.7561462E-02  0.1316307E+00
          2   -1    0    0  501    0  0.00000000000E+00  0.00000000000E+00  0.39497398824E+02  0.39497398824E+02  0.00000000000E+00 0. -1.
         -2   -1    0    0    0  501 -0.00000000000E+00 -0.00000000000E+00 -0.30471982878E+03  0.30471982878E+03  0.00000000000E+00 0.  1.
         23    2    1    2    0    0 -0.10716998518E+02  0.16879983284E+02 -0.19254856711E+03  0.22765477983E+03  0.11979966690E+03 0.  0.
          5    1    3    3  502    0  0.27672323384E+02  0.58187997665E+02 -0.94104609654E+02  0.11412602907E+03  0.41800000000E+01 0. -1.
         -5    1    3    3    0  502 -0.38389321902E+02 -0.41308014381E+02 -0.98443957459E+02  0.11352875076E+03  0.41800000000E+01 0.  1.
        -11    1    1    2    0    0  0.14579440761E+02 -0.30636829390E+02  0.78131308761E+01  0.34816955956E+02  0.00000000000E+00 0. -1.
         11    1    1    2    0    0 -0.38624422434E+01  0.13756846105E+02 -0.80486993715E+02  0.81745491816E+02  0.00000000000E+00 0.  1.
</event>
<event>
 7    1  0.8653652E-006  0.1018754E+03  0.7561462E-02  0.1276401E+00
          1   -1    0    0  501    0  0.00000000000E+00  0.00000000000E+00  0.37029238419E+03  0.37029238419E+03  0.00000000000E+00 0. -1.
         -1   -1    0    0    0  501 -0.00000000000E+00 -0.00000000000E+00 -0.35276128320E+02  0.35276128320E+02  0.00000000000E+00 0.  1.
         23    2    1    2    0    0 -0.32977238434E+00  0.16194398993E+02  0.10107457428E+03  0.15358911337E+03  0.11450405614E+03 0.  0.
          5    1    3    3  502    0  0.93455108549E+01  0.64878757632E+02  0.53585502937E+02  0.84767153367E+02  0.41800000000E+01 0. -1.
         -5    1    3    3    0  502 -0.96752832392E+01 -0.48684358639E+02  0.47489071344E+02  0.68821960005E+02  0.41800000000E+01 0.  1.
        -11    1    1    2    0    0 -0.35084379779E+02 -0.33792251003E+02  0.85935866980E+02  0.98781593254E+02  0.00000000000E+00 0. -1.
         11    1    1    2    0    0  0.35414152163E+02  0.17597852010E+02  0.14800581461E+03  0.15319780589E+03  0.00000000000E+00 0.  1.
</event>
<event>
 7    1  0.8653652E-006  0.3249377E+03  0.7561462E-02  0.1073399E+00
         -1   -1    0    0    0  501 -0.00000000000E+00  0.00000000000E+00  0.13520153318E+04  0.13520153318E+04  0.00000000000E+00 0.  1.
          1   -1    0    0  501    0  0.00000000000E+00 -0.00000000000E+00 -0.10009736074E+03  0.10009736074E+03  0.00000000000E+00 0. -1.
         23    2    1    2    0    0  0.22397881932E+03 -0.23371013493E+03  0.90452176619E+03  0.96881276524E+03  0.12510639442E+03 0.  0.
          5    1    3    3  502    0  0.73403354193E+02 -0.10404214546E+03  0.52684513979E+03  0.54202960635E+03  0.41800000000E+01 0.  1.
         -5    1    3    3    0  502  0.15057546512E+03 -0.12966798947E+03  0.37767662640E+03  0.42678315890E+03  0.41800000000E+01 0.  1.
        -11    1    1    2    0    0 -0.17303633807E+03  0.18226106344E+03  0.20802340104E+03  0.32624286187E+03  0.00000000000E+00 0. -1.
         11    1    1    2    0    0 -0.50942481250E+02  0.51449071487E+02  0.13937280387E+03  0.15705706547E+03  0.00000000000E+00 0.  1.
</event>
<event>
 7    1  0.8653652E-006  0.9341302E+02  0.7561462E-02  0.1294791E+00
          1   -1    0    0  501    0  0.00000000000E+00  0.00000000000E+00  0.29059874345E+03  0.29059874345E+03  0.00000000000E+00 0. -1.
         -1   -1    0    0    0  501 -0.00000000000E+00 -0.00000000000E+00 -0.43329091912E+02  0.43329091912E+02  0.00000000000E+00 0.  1.
         23    2    1    2    0    0 -0.15132308246E+02  0.26422191721E+02  0.12249378637E+03  0.17770535420E+03  0.12508935304E+03 0.  0.
          5    1    3    3  502    0 -0.76103205115E+01  0.74906946503E+02  0.95056197194E+02  0.12133474621E+03  0.41800000000E+01 0.  1.
         -5    1    3    3    0  502 -0.75219877346E+01 -0.48484754782E+02  0.27437589177E+02  0.56370607994E+02  0.41800000000E+01 0.  1.
        -11    1    1    2    0    0  0.30350103004E+02 -0.33661091166E+02  0.13071902996E+03  0.13835339751E+03  0.00000000000E+00 0. -1.
         11    1    1    2    0    0 -0.15217794758E+02  0.72388994445E+01 -0.59431647923E+01  0.17869083642E+02  0.00000000000E+00 0.  1.
</event>
<event>
 7    1  0.8653652E-006  0.1638455E+03  0.7561462E-02  0.1184422E+00
          1   -1    0    0  501    0  0.00000000000E+00  0.00000000000E+00  0.45827397667E+03  0.45827397667E+03  0.00000000000E+00 0. -1.
         -1   -1    0    0    0  501 -0.00000000000E+00 -0.00000000000E+00 -0.63550332320E+02  0.63550332320E+02  0.00000000000E+00 0.  1.
         23    2    1    2    0    0  0.96946535634E+02  0.95936915300E+02  0.20832874704E+03  0.27865708654E+03  0.12508550095E+03 0.  0.
          5    1    3    3  502    0 -0.12495785545E+02  0.71594297552E+02  0.85825353979E+02  0.11254044555E+03  0.41800000000E+01 0. -1.
         -5    1    3    3    0  502  0.10944232118E+03  0.24342617748E+02  0.12250339306E+03  0.16611664100E+03  0.41800000000E+01 0. -1.
        -11    1    1    2    0    0 -0.56793948790E+02 -0.82890240863E+02  0.79146880694E+02  0.12790845700E+03  0.00000000000E+00 0.  1.
         11    1    1    2    0    0 -0.40152586843E+02 -0.13046674437E+02  0.10724801662E+03  0.11525876545E+03  0.00000000000E+00 0. -1.
</event>
<event>
 7    1  0.8653652E-006  0.1383136E+03  0.7561462E-02  0.1215616E+00
          3   -1    0    0  501    0  0.00000000000E+00  0.00000000000E+00  0.20733972436E+03  0.20733972436E+03  0.00000000000E+00 0. -1.
         -3   -1    0    0    0  501 -0.00000000000E+00 -0.00000000000E+00 -0.14736854513E+03  0.14736854513E+03  0.00000000000E+00 0.  1.
         23    2    1    2    0    0  0.88205634144E+02  0.45332244615E+01 -0.70444840436E+02  0.16855583068E+03  0.12509120070E+03 0.  0.
          5    1    3    3  502    0  0.92450432538E+02  0.45247142564E+02 -0.74614827836E+02  0.12719760737E+03  0.41800000000E+01 0. -1.
         -5    1    3    3    0  502 -0.42447983939E+01 -0.40713918102E+02  0.41699874002E+01  0.41358223312E+02  0.41800000000E+01 0. -1.
        -11    1    1    2    0    0 -0.10349221668E+03  0.18190590750E+02  0.97638380562E+02  0.14343915039E+03  0.00000000000E+00 0.  1.
         11    1    1    2    0    0  0.15286582534E+02 -0.22723815211E+02  0.32777639098E+02  0.42713288426E+02  0.00000000000E+00 0. -1.
</event>
<event>
 7    1  0.8653652E-006  0.1038342E+03  0.7561462E-02  0.1272434E+00
          2   -1    0    0  501    0  0.00000000000E+00  0.00000000000E+00  0.37340845294E+02  0.37340845294E+02  0.00000000000E+00 0. -1.
         -2   -1    0    0    0  501 -0.00000000000E+00 -0.00000000000E+00 -0.51009003787E+03  0.51009003787E+03  0.00000000000E+00 0.  1.
         23    2    1    2    0    0  0.63228141531E+02  0.54523852592E+02 -0.29628503535E+03  0.33226876477E+03  0.12508821481E+03 0.  0.
          5    1    3    3  502    0  0.52825626690E+02 -0.95320913411E+00 -0.31825665012E+02  0.61820714945E+02  0.41800000000E+01 0.  1.
         -5    1    3    3    0  502  0.10402514842E+02  0.55477061726E+02 -0.26445937034E+03  0.27044804983E+03  0.41800000000E+01 0.  1.
        -11    1    1    2    0    0  0.48192911561E+01 -0.22234791774E+02  0.58410505941E+00  0.22758574454E+02  0.00000000000E+00 0. -1.
         11    1    1    2    0    0 -0.68047432687E+02 -0.32289060818E+02 -0.17704826228E+03  0.19240354394E+03  0.00000000000E+00 0.  1.
</event>
<event>
 7    1  0.8653652E-006  0.1175175E+03  0.7561462E-02  0.1247249E+00
          3   -1    0    0  501    0  0.00000000000E+00  0.00000000000E+00  0.68029979676E+02  0.68029979676E+02  0.00000000000E+00 0. -1.
         -3   -1    0    0    0  501 -0.00000000000E+00 -0.00000000000E+00 -0.35956621790E+03  0.35956621790E+03  0.00000000000E+00 0.  1.
         23    2    1    2    0    0 -0.15016642561E+02 -0.56429653161E+02 -0.28487048805E+03  0.31655737900E+03  0.12509026313E+03 0.  0.
          5    1    3    3  502    0 -0.11741050358E+02  0.35525000755E+02 -0.13926990653E+03  0.14426869795E+03  0.41800000000E+01 0.  1.
         -5    1    3    3    0  502 -0.32755922033E+01 -0.91954653916E+02 -0.14560058152E+03  0.17228868105E+03  0.41800000000E+01 0.  1.
        -11    1    1    2    0    0 -0.35974512072E+02  0.34257585011E+02  0.14173621848E+02  0.51658873448E+02  0.00000000000E+00 0. -1.
         11    1    1    2    0    0  0.50991154633E+02  0.22172068150E+02 -0.20839372022E+02  0.59379945126E+02  0.00000000000E+00 0.  1.
</event>
<event>
 7    1  0.8653652E-006  0.9176924E+02  0.7561462E-02  0.1298623E+00
         -2   -1    0    0    0  501 -0.00000000000E+00  0.00000000000E+00  0.11731991408E+03  0.11731991408E+03  0.00000000000E+00 0.  1.
          2   -1    0    0  501    0  0.00000000000E+00 -0.00000000000E+00 -0.16427784436E+03  0.16427784436E+03  0.00000000000E+00 0. -1.
         23    2    1    2    0    0  0.55417622181E+01 -0.84500728187E+02 -0.33706385790E+02  0.15477081995E+03  0.12508717789E+03 0.  0.
          5    1    3    3  502    0 -0.15211993473E+02 -0.37185802703E+02  0.45036916351E+02  0.60497809072E+02  0.41800000000E+01 0.  1.
         -5    1    3    3    0  502  0.20753755691E+02 -0.47314925484E+02 -0.78743302141E+02  0.94273010883E+02  0.41800000000E+01 0.  1.
        -11    1    1    2    0    0  0.11686807387E+02  0.61340360925E+02  0.34266916176E+02  0.71228104633E+02  0.00000000000E+00 0.  1.
         11    1    1    2    0    0 -0.17228569606E+02  0.23160367262E+02 -0.47518460668E+02  0.55598833860E+02  0.00000000000E+00 0. -1.
</event>
<event>
 7    1  0.8653652E-006  0.1052605E+03  0.7561462E-02  0.1269607E+00
         -3   -1    0    0    0  501 -0.00000000000E+00  0.00000000000E+00  0.54469317475E+03  0.54469317475E+03  0.00000000000E+00 0.  1.
          3   -1    0    0  501    0  0.00000000000E+00 -0.00000000000E+00 -0.28239263962E+02  0.28239263962E+02  0.00000000000E+00 0. -1.
         23    2    1    2    0    0 -0.46385374618E+01 -0.53172426316E+02  0.36615805408E+03  0.39059959072E+03  0.12508995462E+03 0.  0.
          5    1    3    3  502    0  0.23197282403E+02 -0.72154972701E+02  0.11918963907E+03  0.14130851517E+03  0.41800000000E+01 0. -1.
         -5    1    3    3    0  502 -0.27835819865E+02  0.18982546384E+02  0.24696841501E+03  0.24929107555E+03  0.41800000000E+01 0. -1.
        -11    1    1    2    0    0 -0.32897966153E+02  0.53868914242E+02  0.11287835361E+03  0.12932771865E+03  0.00000000000E+00 0.  1.
         11    1    1    2    0    0  0.37536503615E+02 -0.69648792595E+00  0.37417503101E+02  0.53005129350E+02  0.00000000000E+00 0. -1.
</event>
<event>
 7    1  0.8653652E-006  0.8504131E+02  0.7561462E-02  0.1315325E+00
         -1   -1    0    0    0  501 -0.00000000000E+00  0.00000000000E+00  0.53806184163E+02  0.53806184163E+02  0.00000000000E+00 0.  1.
          1   -1    0    0  501    0  0.00000000000E+00 -0.00000000000E+00 -0.29304771401E+03  0.29304771401E+03  0.00000000000E+00 0. -1.
         23    2    1    2    0    0  0.42201478994E+02 -0.34370212624E+02 -0.10461734313E+03  0.17191474174E+03  0.12509042169E+03 0.  0.
          5    1    3    3  502    0  0.48429940604E+02 -0.46541963803E+02 -0.12793886590E+03  0.14455946648E+03  0.41800000000E+01 0.  1.
         -5    1    3    3    0  502 -0.62284616094E+01  0.12171751179E+02  0.23321522764E+02  0.27355275265E+02  0.41800000000E+01 0.  1.
        -11    1    1    2    0    0 -0.22033577602E+02 -0.20458058705E+02 -0.21357766830E+01  0.30142532242E+02  0.00000000000E+00 0.  1.
         11    1    1    2    0    0 -0.20167901392E+02  0.54828271329E+02 -0.13248841003E+03  0.14479662419E+03  0.00000000000E+00 0. -1.
</event>
<event>
 7    1  0.8653652E-006  0.1161152E+03  0.7561462E-02  0.1249647E+00
          2   -1    0    0  501    0  0.00000000000E+00  0.00000000000E+00  0.17710387942E+03  0.17710387942E+03  0.00000000000E+00 0.  1.
         -2   -1    0    0    0  501 -0.00000000000E+00 -0.00000000000E+00 -0.10994058884E+03  0.10994058884E+03  0.00000000000E+00 0. -1.
         23    2    1    2    0    0 -0.41988401137E+02 -0.78546580911E+01 -0.41793955299E+02  0.13863111459E+03  0.12508848767E+03 0.  0.
          5    1    3    3  502    0  0.38402744198E+02 -0.29628858834E+02 -0.12752065875E+02  0.50326212075E+02  0.41800000000E+01 0. -1.
         -5    1    3    3    0  502 -0.80391145336E+02  0.21774200742E+02 -0.29041889424E+02  0.88304902512E+02  0.41800000000E+01 0. -1.
        -11    1    1    2    0    0  0.56728037856E+02 -0.26617958369E+02  0.75943489734E+02  0.98458110990E+02  0.00000000000E+00 0. -1.
         11    1    1    2    0    0 -0.14739636719E+02  0.34472616460E+02  0.33013756144E+02  0.49955242677E+02  0.00000000000E+00 0.  1.
</event>
<event>
 7    1  0.8653652E-006  0.2230305E+03  0.7561462E-02  0.1131644E+00
          2   -1    0    0  501    0  0.00000000000E+00  0.00000000000E+00  0.17910483702E+04  0.17910483702E+04  0.00000000000E+00 0.  1.
         -2   -1    0    0    0  501 -0.00000000000E+00 -0.00000000000E+00 -0.31652533491E+02  0.31652533491E+02  0.00000000000E+00 0. -1.
         23    2    1    2    0    0  0.16936353998E+03  0.10076776509E+03  0.61096847531E+03  0.65404057384E+03  0.12509373786E+03 0.  0.
          5    1    3    3  502    0  0.10466680296E+03 -0.57863162686E+01  0.33842020879E+03  0.35430824322E+03  0.41800000000E+01 0.  1.
         -5    1    3    3    0  502  0.64696737020E+02  0.10655408135E+03  0.27254826652E+03  0.29973233062E+03  0.41800000000E+01 0.  1.
        -11    1    1    2    0    0 -0.11236027079E+03 -0.14880567232E+02  0.58387206813E+03  0.59477126164E+03  0.00000000000E+00 0.  1.
         11    1    1    2    0    0 -0.57003269193E+02 -0.85887197853E+02  0.56455529328E+03  0.57388906822E+03  0.00000000000E+00 0. -1.
</event>
<event>
 7    1  0.8653652E-006  0.1177367E+03  0.7561462E-02  0.1246878E+00
         -1   -1    0    0    0  501 -0.00000000000E+00  0.00000000000E+00  0.39042229048E+02  0.39042229048E+02  0.00000000000E+00 0.  1.
          1   -1    0    0  501    0  0.00000000000E+00 -0.00000000000E+00 -0.44619742584E+03  0.44619742584E+03  0.00000000000E+00 0. -1.
         23    2    1    2    0    0  0.32015657010E+02 -0.41291781657E+02 -0.12720935322E+03  0.18589714749E+03  0.12508203856E+03 0.  0.
          5    1    3    3  502    0 -0.44565870878E+02 -0.24838481148E+02 -0.24753710703E+02  0.56861987183E+02  0.41800000000E+01 0.  1.
         -5    1    3    3    0  502  0.76581527888E+02 -0.16453300509E+02 -0.10245564252E+03  0.12903516031E+03  0.41800000000E+01 0.  1.
        -11    1    1    2    0    0  0.57510935551E+01 -0.27106281802E+02 -0.66271943195E+02  0.71831720326E+02  0.00000000000E+00 0.  1.
         11    1    1    2    0    0 -0.37766750565E+02  0.68398063459E+02 -0.21367390038E+03  0.22751078708E+03  0.00000000000E+00 0. -1.
</event>
<event>
 7    1  0.8653652E-006  0.1644225E+03  0.7561462E-02  0.1183792E+00
         -1   -1    0    0    0  501 -0.00000000000E+00  0.00000000000E+00  0.70935464479E+03  0.70935464479E+03  0.00000000000E+00 0.  1.
          1   -1    0    0  501    0  0.00000000000E+00 -0.00000000000E+00 -0.57720777106E+02  0.57720777106E+02  0.00000000000E+00 0. -1.
         23    2    1    2    0    0  0.15600010439E+03  0.26972773580E+02  0.46152833001E+03  0.50370466015E+03  0.12508565932E+03 0.  0.
          5    1    3    3  502    0  0.85870202417E+02  0.64167531596E+00  0.89182951796E+02  0.12387564208E+03  0.41800000000E+01 0.  1.
         -5    1    3    3    0  502  0.70129901970E+02  0.26331098264E+02  0.37234537822E+03  0.37982901807E+03  0.41800000000E+01 0.  1.
        -11    1    1    2    0    0 -0.83915720713E+02  0.13776454659E+02  0.44776894452E+02  0.96107279446E+02  0.00000000000E+00 0. -1.
         11    1    1    2    0    0 -0.72084383674E+02 -0.40749228239E+02  0.14532864322E+03  0.16726348230E+03  0.00000000000E+00 0.  1.
</event>
<event>
 7    1  0.8653652E-006  0.2652986E+03  0.7561462E-02  0.1104001E+00
          2   -1    0    0  501    0  0.00000000000E+00  0.00000000000E+00  0.20296642425E+03  0.20296642425E+03  0.00000000000E+00 0. -1.
         -2   -1    0    0    0  501 -0.00000000000E+00 -0.00000000000E+00 -0.68286290988E+03  0.68286290988E+03  0.00000000000E+00 0.  1.
         23    2    1    2    0    0 -0.10326871077E+03  0.23290717350E+03 -0.54593428814E+03  0.61530614318E+03  0.12508886751E+03 0.  0.
          5    1    3    3  502    0  0.14858466968E+02  0.80474712003E+02 -0.24036108975E+03  0.25394463802E+03  0.41800000000E+01 0.  1.
         -5    1    3    3    0  502 -0.11812717773E+03  0.15243246149E+03 -0.30557319839E+03  0.36136150516E+03  0.41800000000E+01 0.  1.
        -11    1    1    2    0    0  0.35057227570E+02 -0.10657752635E+03  0.59046452792E+02  0.12678431258E+03  0.00000000000E+00 0. -1.
         11    1    1    2    0    0  0.68211483196E+02 -0.12632964714E+03  0.69913497203E+01  0.14373887838E+03  0.00000000000E+00 0.  1.
</event>
<event>
 7    1  0.8653652E-006  0.2228565E+03  0.7561462E-02  0.1131771E+00
          2   -1    0    0  501    0  0.00000000000E+00  0.00000000000E+00  0.38676674911E+03  0.38676674911E+03  0.00000000000E+00 0. -1.
         -2   -1    0    0    0  501 -0.00000000000E+00 -0.00000000000E+00 -0.24317910182E+03  0.24317910182E+03  0.00000000000E+00 0.  1.
         23    2    1    2    0    0 -0.20734797438E+03  0.25499107619E+02 -0.12805743705E+03  0.27511856314E+03  0.12509248432E+03 0.  0.
          5    1    3    3  502    0 -0.17365443059E+02 -0.25699005828E+02  0.12049765975E+02  0.33536051843E+02  0.41800000000E+01 0.  1.
         -5    1    3    3    0  502 -0.18998253132E+03  0.51198113448E+02 -0.14010720302E+03  0.24158251130E+03  0.41800000000E+01 0.  1.
        -11    1    1    2    0    0  0.87793299660E+02 -0.41291190496E+02  0.17576457383E+03  0.20076307253E+03  0.00000000000E+00 0.  1.
         11    1    1    2    0    0  0.11955467472E+03  0.15792082876E+02  0.95880510495E+02  0.15406421525E+03  0.00000000000E+00 0. -1.
</event>
<event>
 7    1  0.8653652E-006  0.8530998E+02  0.7561462E-02  0.1314624E+00
          1   -1    0    0  501    0  0.00000000000E+00  0.00000000000E+00  0.25680005933E+03  0.25680005933E+03  0.00000000000E+00 0. -1.
         -1   -1    0    0    0  501 -0.00000000000E+00 -0.00000000000E+00 -0.49566503198E+02  0.49566503198E+02  0.00000000000E+00 0.  1.
         23    2    1    2    0    0  0.25068043225E+02  0.17937554206E+02  0.10387658800E+03  0.16549744850E+03  0.12509555261E+03 0.  0.
          5    1    3    3  502    0 -0.56519541421E+01 -0.43672488307E+02  0.44045990786E+01  0.44453388101E+02  0.41800000000E+01 0.  1.
         -5    1    3    3    0  502  0.30719997367E+02  0.61610042514E+02  0.99471988925E+02  0.12104406040E+03  0.41800000000E+01 0.  1.
        -11    1    1    2    0    0 -0.11938503175E+02 -0.34367944135E+02  0.10236416400E+01  0.36396858165E+02  0.00000000000E+00 0.  1.
         11    1    1    2    0    0 -0.13129540051E+02  0.16430389928E+02  0.10233332648E+03  0.10447225586E+03  0.00000000000E+00 0. -1.
</event>
<event>
 7    1  0.8653652E-006  0.1169295E+03  0.7561462E-02  0.1248250E+00
          1   -1    0    0  501    0  0.00000000000E+00  0.00000000000E+00  0.15266364634E+03  0.15266364634E+03  0.00000000000E+00 0. -1.
         -1   -1    0    0    0  501 -0.00000000000E+00 -0.00000000000E+00 -0.96931638174E+02  0.96931638174E+02  0.00000000000E+00 0.  1.
         23    2    1    2    0    0  0.58536271926E+02  0.39305747120E+02  0.31258477924E+02  0.14695757686E+03  0.12509196643E+03 0.  0.
          5    1    3    3  502    0  0.23115248853E+02  0.82053014308E+02  0.52533428323E+01  0.85510712179E+02  0.41800000000E+01 0.  1.
         -5    1    3    3    0  502  0.35421023072E+02 -0.42747267188E+02  0.26005135092E+02  0.61446864677E+02  0.41800000000E+01 0.  1.
        -11    1    1    2    0    0 -0.44665704208E+02  0.63554511221E+01 -0.67377508600E+01  0.45615942148E+02  0.00000000000E+00 0.  1.
         11    1    1    2    0    0 -0.13870567718E+02 -0.45661198242E+02  0.31211281097E+02  0.57021765506E+02  0.00000000000E+00 0. -1.
</event>
<event>
 7    1  0.8653652E-006  0.7950465E+02  0.7561462E-02  0.1330463E+00
          2   -1    0    0  501    0  0.00000000000E+00  0.00000000000E+00  0.12289511434E+03  0.12289511434E+03  0.00000000000E+00 0.  1.
         -2   -1    0    0    0  501 -0.00000000000E+00 -0.00000000000E+00 -0.10089694484E+03  0.10089694484E+03  0.00000000000E+00 0. -1.
         23    2    1    2    0    0 -0.21072472841E+02 -0.58606565934E+01  0.49367673752E+00  0.12698956297E+03  0.12509080294E+03 0.  0.
          5    1    3    3  502    0  0.28498670814E+02 -0.28877267371E+02 -0.41311518409E+02  0.58053292433E+02  0.41800000000E+01 0.  1.
         -5    1    3    3    0  502 -0.49571143655E+02  0.23016610778E+02  0.41805195147E+02  0.68936270542E+02  0.41800000000E+01 0.  1.
        -11    1    1    2    0    0 -0.17935985529E+02 -0.10860553803E+02  0.44019991024E+02  0.48758699896E+02  0.00000000000E+00 0.  1.
         11    1    1    2    0    0  0.39008458370E+02  0.16721210397E+02 -0.22515498269E+02  0.48043796310E+02  0.00000000000E+00 0. -1.
</event>
<event>
 7    1  0.8653652E-006  0.1012568E+03  0.7561462E-02  0.1277675E+00
         -2   -1    0    0    0  501 -0.00000000000E+00  0.00000000000E+00  0.14254303977E+03  0.14254303977E+03  0.00000000000E+00 0.  1.
          2   -1    0    0  501    0  0.00000000000E+00 -0.00000000000E+00 -0.10335972734E+03  0.10335972734E+03  0.00000000000E+00 0. -1.
         23    2    1    2    0    0 -0.38517466448E+02  0.42238066809E+01  0.76460014662E+02  0.13947629073E+03  0.11002756959E+03 0.  0.
          5    1    3    3  502    0 -0.24875724146E+02 -0.51924106439E+02  0.29087661492E+02  0.64641155098E+02  0.41800000000E+01 0. -1.
         -5    1    3    3    0  502 -0.13641742301E+02  0.56147913120E+02  0.47372353170E+02  0.74835135636E+02  0.41800000000E+01 0.  1.
        -11    1    1    2    0    0 -0.12583042083E+02 -0.27846756764E+02 -0.39675101565E+02  0.50078822815E+02  0.00000000000E+00 0. -1.
         11    1    1    2    0    0  0.51100508531E+02  0.23622950083E+02  0.23983993294E+01  0.56347653563E+02  0.00000000000E+00 0.  1.
</event>
<event>
 7    1  0.8653652E-006  0.1448507E+03  0.7561462E-02  0.1206947E+00
         -1   -1    0    0    0  501 -0.00000000000E+00  0.00000000000E+00  0.60122960560E+02  0.60122960560E+02  0.00000000000E+00 0.  1.
          1   -1    0    0  501    0  0.00000000000E+00 -0.00000000000E+00 -0.44724450565E+03  0.44724450565E+03  0.00000000000E+00 0. -1.
         23    2    1    2    0    0  0.11792878100E+03  0.21987705650E+01 -0.15564172736E+03  0.23191459949E+03  0.12509197489E+03 0.  0.
          5    1    3    3  502    0  0.14412469367E+03  0.78249353969E+01 -0.12488600059E+03  0.19091134718E+03  0.41800000000E+01 0. -1.
         -5    1    3    3    0  502 -0.26195912667E+02 -0.56261648319E+01 -0.30755726766E+02  0.41003252311E+02  0.41800000000E+01 0. -1.
        -11    1    1    2    0    0 -0.79442531509E+02  0.20318947315E+01 -0.59783136244E+02  0.99444797691E+02  0.00000000000E+00 0.  1.
         11    1    1    2    0    0 -0.38486249490E+02 -0.42306652966E+01 -0.17169668149E+03  0.17600806903E+03  0.00000000000E+00 0. -1.
</event>
<event>
 7    1  0.8653652E-006  0.7183523E+02  0.7561462E-02  0.1353961E+00
          2   -1    0    0  501    0  0.00000000000E+00  0.00000000000E+00  0.35270385883E+03  0.35270385883E+03  0.00000000000E+00 0. -1.
         -2   -1    0    0    0  501 -0.00000000000E+00 -0.00000000000E+00 -0.48145112452E+02  0.48145112452E+02  0.00000000000E+00 0.  1.
         23    2    1    2    0    0  0.22213517337E+02  0.45055102241E+02  0.88196534137E+02  0.16130962603E+03  0.12537449591E+03 0.  0.
          5    1    3    3  502    0 -0.84396589018E+00  0.16822542974E+01  0.10806205609E+03  0.10815924659E+03  0.41800000000E+01 0. -1.
         -5    1    3    3    0  502  0.23057483227E+02  0.43372847944E+02 -0.19865521950E+02  0.53150379433E+02  0.41800000000E+01 0.  1.
        -11    1    1    2    0    0 -0.10518455228E+02  0.20583667447E+02  0.15323368214E+02  0.27733208963E+02  0.00000000000E+00 0.  1.
         11    1    1    2    0    0 -0.11695062109E+02 -0.65638769688E+02  0.20103884402E+03  0.21180613629E+03  0.00000000000E+00 0. -1.
</event>
<event>
 7    1  0.8653652E-006  0.1741048E+03  0.7561462E-02  0.1173634E+00
          1   -1    0    0  501    0  0.00000000000E+00  0.00000000000E+00  0.29205546899E+02  0.29205546899E+02  0.00000000000E+00 0. -1.
         -1   -1    0    0    0  501 -0.00000000000E+00 -0.00000000000E+00 -0.12512427100E+04  0.12512427100E+04  0.00000000000E+00 0.  1.
         23    2    1    2    0    0  0.26600183571E+02 -0.15484935213E+03 -0.65967212057E+03  0.68956633129E+03  0.12509407245E+03 0.  0.
          5    1    3    3  502    0 -0.42178507348E+01  0.15928634267E+02 -0.17706836685E+02  0.24546203776E+02  0.41800000000E+01 0. -1.
         -5    1    3    3    0  502  0.30818034306E+02 -0.17077798640E+03 -0.64196528389E+03  0.66502012751E+03  0.41800000000E+01 0. -1.
        -11    1    1    2    0    0 -0.12937174279E+02  0.10947161684E+03 -0.50291778948E+03  0.51485697854E+03  0.00000000000E+00 0.  1.
         11    1    1    2    0    0 -0.13663009292E+02  0.45377735294E+02 -0.59447253057E+02  0.76024947086E+02  0.00000000000E+00 0. -1.
</event>
<event>
 7    1  0.8653652E-006  0.1512115E+03  0.7561462E-02  0.1198992E+00
         -2   -1    0    0    0  501 -0.00000000000E+00  0.00000000000E+00  0.24574166889E+02  0.24574166889E+02  0.00000000000E+00 0.  1.
          2   -1    0    0  501    0  0.00000000000E+00 -0.00000000000E+00 -0.11267161833E+04  0.11267161833E+04  0.00000000000E+00 0. -1.
         23    2    1    2    0    0  0.11777098573E+03  0.36394992114E+02 -0.50141247908E+03  0.53128200681E+03  0.12510593934E+03 0.  0.
          5    1    3    3  502    0  0.13023620832E+03  0.25347254428E+02 -0.28733346014E+03  0.31651531239E+03  0.41800000000E+01 0. -1.
         -5    1    3    3    0  502 -0.12465222586E+02  0.11047737686E+02 -0.21407901894E+03  0.21476669442E+03  0.41800000000E+01 0. -1.
        -11    1    1    2    0    0 -0.56000128267E+01 -0.39887897743E+02 -0.19002147724E+03  0.19424357477E+03  0.00000000000E+00 0. -1.
         11    1    1    2    0    0 -0.11217097290E+03  0.34929056291E+01 -0.41070806005E+03  0.42576476855E+03  0.00000000000E+00 0.  1.
</event>
<event>
 7    1  0.8653652E-006  0.1001890E+03  0.7561462E-02  0.1279899E+00
          1   -1    0    0  501    0  0.00000000000E+00  0.00000000000E+00  0.35740902879E+03  0.35740902879E+03  0.00000000000E+00 0. -1.
         -1   -1    0    0    0  501 -0.00000000000E+00 -0.00000000000E+00 -0.36341295194E+02  0.36341295194E+02  0.00000000000E+00 0.  1.
         23    2    1    2    0    0  0.13221105867E+02 -0.21440757803E+02  0.14131850586E+03  0.19040775016E+03  0.12509871098E+03 0.  0.
          5    1    3    3  502    0  0.10767674390E+02 -0.62964588020E+02  0.28462825067E+02  0.70057740237E+02  0.41800000000E+01 0.  1.
         -5    1    3    3    0  502  0.24534314770E+01  0.41523830217E+02  0.11285568079E+03  0.12035000992E+03  0.41800000000E+01 0.  1.
        -11    1    1    2    0    0  0.30153899572E+02 -0.18680596567E+02  0.57449256312E+02  0.67517696927E+02  0.00000000000E+00 0. -1.
         11    1    1    2    0    0 -0.43375005438E+02  0.40121354370E+02  0.12229997143E+03  0.13582487690E+03  0.00000000000E+00 0.  1.
</event>
<event>
 7    1  0.8653652E-006  0.1223365E+03  0.7561462E-02  0.1239292E+00
         -1   -1    0    0    0  501 -0.00000000000E+00  0.00000000000E+00  0.25653348137E+02  0.25653348137E+02  0.00000000000E+00 0.  1.
          1   -1    0    0  501    0  0.00000000000E+00 -0.00000000000E+00 -0.77149590748E+03  0.77149590748E+03  0.00000000000E+00 0. -1.
         23    2    1    2    0    0  0.64644252304E+02  0.69726816738E+02 -0.40847622735E+03  0.43765418250E+03  0.12509055450E+03 0.  0.
          5    1    3    3  502    0  0.89543903310E+02  0.17547321131E+02 -0.31206444189E+03  0.32515797298E+03  0.41800000000E+01 0. -1.
         -5    1    3    3    0  502 -0.24899651006E+02  0.52179495606E+02 -0.96411785455E+02  0.11249620952E+03  0.41800000000E+01 0. -1.
        -11    1    1    2    0    0 -0.43962268966E+02 -0.42256355163E+02 -0.30888341873E+03  0.31484479829E+03  0.00000000000E+00 0. -1.
         11    1    1    2    0    0 -0.20681983339E+02 -0.27470461575E+02 -0.28482913266E+02  0.44650274826E+02  0.00000000000E+00 0.  1.
</event>
<event>
 6    1  0.8653652E-006  0.6475299E+03  0.7561462E-02  0.9811425E-01
          1   -1    0    0  501    0  0.00000000000E+00  0.00000000000E+00  0.24066369599E+04  0.24066369599E+04  0.00000000000E+00 0. -1.
         -1   -1    0    0    0  501 -0.00000000000E+00 -0.00000000000E+00 -0.19507692570E+03  0.19507692570E+03  0.00000000000E+00 0.  1.
          5    1    1    2  502    0  0.51216437514E+03  0.12935132427E+03  0.52922825081E+03  0.74775940389E+03  0.41800000000E+01 0. -1.
         -5    1    1    2    0  502 -0.58632885799E+03 -0.21929380962E+03  0.12720402405E+04  0.14177359241E+04  0.41800000000E+01 0.  1.
        -11    1    1    2    0    0  0.62641015074E+02  0.14275179807E+02  0.25662753805E+03  0.26454748310E+03  0.00000000000E+00 0. -1.
         11    1    1    2    0    0  0.11523467775E+02  0.75667305537E+02  0.15366400476E+03  0.17167107443E+03  0.00000000000E+00 0.  1.
</event>
<event>
 7    1  0.9288363E-006  0.1758388E+03  0.7561462E-02  0.1171892E+00
          1   -1    0    0  501    0  0.00000000000E+00  0.00000000000E+00  0.80545192281E+02  0.80545192281E+02  0.00000000000E+00 0. -1.
         -1   -1    0    0    0  501 -0.00000000000E+00 -0.00000000000E+00 -0.41198127947E+03  0.41198127947E+03  0.00000000000E+00 0.  1.
         23    2    1    2    0    0 -0.12376151513E+03  0.75509497160E+02 -0.19952491104E+03  0.27654345496E+03  0.12508994991E+03 0.  0.
          5    1    3    3  502    0 -0.52129426666E+01  0.72462904517E+02 -0.72724353651E+02  0.10288027661E+03  0.41800000000E+01 0. -1.
         -5    1    3    3    0  502 -0.11854857247E+03  0.30465926431E+01 -0.12680055739E+03  0.17366317835E+03  0.41800000000E+01 0. -1.
        -11    1    1    2    0    0  0.13960779587E+02 -0.43780762325E+02 -0.75842693120E+02  0.88677915042E+02  0.00000000000E+00 0.  1.
         11    1    1    2    0    0  0.10980073555E+03 -0.31728734835E+02 -0.56068483025E+02  0.12730510174E+03  0.00000000000E+00 0. -1.
</event>
<event>
 7    1  0.8653652E-006  0.1290599E+03  0.7561462E-02  0.1228857E+00
          1   -1    0    0  501    0  0.00000000000E+00  0.00000000000E+00  0.69631491494E+03  0.69631491494E+03  0.00000000000E+00 0. -1.
         -1   -1    0    0    0  501 -0.00000000000E+00 -0.00000000000E+00 -0.37284844777E+02  0.37284844777E+02  0.00000000000E+00 0.  1.
         23    2    1    2    0    0  0.10825059757E+03  0.23076401106E+02  0.27291026990E+03  0.31996827505E+03  0.12509584111E+03 0.  0.
          5    1    3    3  502    0  0.59727170926E+02 -0.28461994317E+02  0.22456503971E+03  0.23414600045E+03  0.41800000000E+01 0. -1.
         -5    1    3    3    0  502  0.48523426644E+02  0.51538395423E+02  0.48345230186E+02  0.85822274601E+02  0.41800000000E+01 0. -1.
        -11    1    1    2    0    0 -0.48067529869E+02 -0.35131519661E+02  0.71323415932E+02  0.92907162057E+02  0.00000000000E+00 0.  1.
         11    1    1    2    0    0 -0.60183067701E+02  0.12055118554E+02  0.31479638433E+03  0.32072432261E+03  0.00000000000E+00 0. -1.
</event>
<event>
 7    1  0.8653652E-006  0.9855091E+02  0.7561462E-02  0.1283373E+00
         -2   -1    0    0    0  501 -0.00000000000E+00  0.00000000000E+00  0.10043711227E+03  0.10043711227E+03  0.00000000000E+00 0.  1.
          2   -1    0    0  501    0  0.00000000000E+00 -0.00000000000E+00 -0.12562485746E+03  0.12562485746E+03  0.00000000000E+00 0. -1.
         23    2    1    2    0    0  0.14851686030E+02  0.27121512715E+02 -0.74507925102E+00  0.12885578458E+03  0.12508840492E+03 0.  0.
          5    1    3    3  502    0  0.63179943905E+02  0.35847596674E+02 -0.20751557283E+02  0.75662771750E+02  0.41800000000E+01 0.  1.
         -5    1    3    3    0  502 -0.48328257875E+02 -0.87260839587E+01  0.20006478032E+02  0.53193012828E+02  0.41800000000E+01 0.  1.
        -11    1    1    2    0    0 -0.21424381178E+02 -0.48321267434E+02 -0.43106719259E+02  0.68206585024E+02  0.00000000000E+00 0. -1.
         11    1    1    2    0    0  0.65726951488E+01  0.21199754719E+02  0.18664053315E+02  0.28999600132E+02  0.00000000000E+00 0.  1.
</event>
<event>
 7    1  0.8653652E-006  0.1061077E+03  0.7561462E-02  0.1267953E+00
         -1   -1    0    0    0  501 -0.00000000000E+00  0.00000000000E+00  0.15027438779E+03  0.15027438779E+03  0.00000000000E+00 0.  1.
          1   -1    0    0  501    0  0.00000000000E+00 -0.00000000000E+00 -0.12065025968E+03  0.12065025968E+03  0.00000000000E+00 0. -1.
         23    2    1    2    0    0  0.35292732475E+02 -0.49852348499E+02  0.81945307309E+02  0.15054780515E+03  0.11053856626E+03 0.  0.
          5    1    3    3  502    0  0.66971628878E+02 -0.51053326198E+02  0.29891830760E+02  0.89457448749E+02  0.41800000000E+01 0. -1.
         -5    1    3    3    0  502 -0.31678896403E+02  0.12009776985E+01  0.52053476549E+02  0.61090356404E+02  0.41800000000E+01 0.  1.
        -11    1    1    2    0    0  0.47248519980E+01 -0.17200293742E+02 -0.36612028001E+02  0.40726096370E+02  0.00000000000E+00 0. -1.
         11    1    1    2    0    0 -0.40017584473E+02  0.67052642241E+02 -0.15709151194E+02  0.79650745946E+02  0.00000000000E+00 0.  1.
</event>
<event>
 7    1  0.8653652E-006  0.1476130E+03  0.7561462E-02  0.1203437E+00
          1   -1    0    0  501    0  0.00000000000E+00  0.00000000000E+00  0.17423903505E+03  0.17423903505E+03  0.00000000000E+00 0. -1.
         -1   -1    0    0    0  501 -0.00000000000E+00 -0.00000000000E+00 -0.21930331152E+03  0.21930331152E+03  0.00000000000E+00 0.  1.
         23    2    1    2    0    0  0.11584601628E+03  0.40967495467E+02 -0.12994343705E+03  0.21824790356E+03  0.12509282716E+03 0.  0.
          5    1    3    3  502    0  0.14058828110E+03  0.26938331691E+02 -0.12274460496E+03  0.18861190032E+03  0.41800000000E+01 0.  1.
         -5    1    3    3    0  502 -0.24742264820E+02  0.14029163776E+02 -0.71988320855E+01  0.29636003241E+02  0.41800000000E+01 0.  1.
        -11    1    1    2    0    0 -0.22155057096E+02 -0.12042320512E+02 -0.19653405491E+02  0.31970617536E+02  0.00000000000E+00 0.  1.
         11    1    1    2    0    0 -0.93690959182E+02 -0.28925174955E+02  0.10453256607E+03  0.14332382547E+03  0.00000000000E+00 0. -1.
</event>
<event>
 7    1  0.8653652E-006  0.1047718E+03  0.7561462E-02  0.1270570E+00
          4   -1    0    0  501    0  0.00000000000E+00  0.00000000000E+00  0.42855117207E+03  0.42855117207E+03  0.00000000000E+00 0. -1.
         -4   -1    0    0    0  501 -0.00000000000E+00 -0.00000000000E+00 -0.36554657853E+02  0.36554657853E+02  0.00000000000E+00 0.  1.
         23    2    1    2    0    0 -0.11651364586E+02 -0.34213274888E+02  0.12391035699E+03  0.17974424869E+03  0.12509162999E+03 0.  0.
          5    1    3    3  502    0 -0.55673475100E+02 -0.41867571752E+02  0.30592036561E+02  0.76195633045E+02  0.41800000000E+01 0.  1.
         -5    1    3    3    0  502  0.44022110514E+02  0.76542968634E+01  0.93318320430E+02  0.10354861565E+03  0.41800000000E+01 0.  1.
        -11    1    1    2    0    0  0.43441016727E+02 -0.57458860604E+01  0.90016403271E+02  0.10011538343E+03  0.00000000000E+00 0. -1.
         11    1    1    2    0    0 -0.31789652141E+02  0.39959160949E+02  0.17806975395E+03  0.18524619780E+03  0.00000000000E+00 0.  1.
</event>
<event>
 7    1  0.8653652E-006  0.1144209E+03  0.7561462E-02  0.1252595E+00
         -3   -1    0    0    0  501 -0.00000000000E+00  0.00000000000E+00  0.38207718232E+02  0.38207718232E+02  0.00000000000E+00 0.  1.
          3   -1    0    0  501    0  0.00000000000E+00 -0.00000000000E+00 -0.51793278637E+03  0.51793278637E+03  0.00000000000E+00 0. -1.
         23    2    1    2    0    0 -0.64901042415E+02  0.50079866590E+02 -0.18953064713E+03  0.24143223239E+03  0.12509004073E+03 0.  0.
          5    1    3    3  502    0 -0.29203220050E+01  0.44398376308E+02 -0.30496287011E+01  0.44794159604E+02  0.41800000000E+01 0.  1.
         -5    1    3    3    0  502 -0.61980720410E+02  0.56814902820E+01 -0.18648101843E+03  0.19663807278E+03  0.41800000000E+01 0.  1.
        -11    1    1    2    0    0  0.82766433894E+02 -0.59154559468E+02 -0.24184538872E+03  0.26237137140E+03  0.00000000000E+00 0.  1.
         11    1    1    2    0    0 -0.17865391478E+02  0.90746928782E+01 -0.48349032289E+02  0.52336900814E+02  0.00000000000E+00 0. -1.
</event>
<event>
 7    1  0.8653652E-006  0.9278656E+02  0.7561462E-02  0.1296241E+00
          4   -1    0    0  501    0  0.00000000000E+00  0.00000000000E+00  0.22471507695E+03  0.22471507695E+03  0.00000000000E+00 0. -1.
         -4   -1    0    0    0  501 -0.00000000000E+00 -0.00000000000E+00 -0.11496546419E+03  0.11496546419E+03  0.00000000000E+00 0.  1.
         23    2    1    2    0    0 -0.30023208207E+02  0.15151683111E+02 -0.63248824218E+02  0.14414549413E+03  0.12508614304E+03 0.  0.
          5    1    3    3  502    0 -0.50774450052E+02 -0.23930069239E+02 -0.78991207727E+02  0.96993692011E+02  0.41800000000E+01 0. -1.
         -5    1    3    3    0  502  0.20751241845E+02  0.39081752350E+02  0.15742383509E+02  0.47151802122E+02  0.41800000000E+01 0. -1.
        -11    1    1    2    0    0 -0.21636598261E+02 -0.24125994734E+02  0.33973725931E+02  0.46951251952E+02  0.00000000000E+00 0.  1.
         11    1    1    2    0    0  0.51659806467E+02  0.89743116235E+01  0.13902471104E+03  0.14858379506E+03  0.00000000000E+00 0. -1.
</event>
<event>
 7    1  0.8653652E-006  0.8627107E+02  0.7561462E-02  0.1312142E+00
         -1   -1    0    0    0  501 -0.00000000000E+00  0.00000000000E+00  0.68940360390E+02  0.68940360390E+02  0.00000000000E+00 0.  1.
          1   -1    0    0  501    0  0.00000000000E+00 -0.00000000000E+00 -0.16859351700E+03  0.16859351700E+03  0.00000000000E+00 0. -1.
         23    2    1    2    0    0 -0.23145226804E+01  0.45320674568E+01 -0.55457869858E+02  0.13692449288E+03  0.12508734856E+03 0.  0.
          5    1    3    3  502    0 -0.66518419803E+01  0.64298441188E+02 -0.33844646573E+02  0.73085354501E+02  0.41800000000E+01 0.  1.
         -5    1    3    3    0  502  0.43373192999E+01 -0.59766373731E+02 -0.21613223285E+02  0.63839138375E+02  0.41800000000E+01 0.  1.
        -11    1    1    2    0    0 -0.61277134464E+01 -0.24902763997E+02 -0.65257498365E+02  0.70115887070E+02  0.00000000000E+00 0. -1.
         11    1    1    2    0    0  0.84422361268E+01  0.20370696540E+02  0.21062211613E+02  0.30493497444E+02  0.00000000000E+00 0.  1.
</event>
<event>
 7    1  0.8653652E-006  0.7674369E+02  0.7561462E-02  0.1338555E+00
          4   -1    0    0  501    0  0.00000000000E+00  0.00000000000E+00  0.32375403099E+02  0.32375403099E+02  0.00000000000E+00 0. -1.
         -4   -1    0    0    0  501 -0.00000000000E+00 -0.00000000000E+00 -0.39192965873E+03  0.39192965873E+03  0.00000000000E+00 0.  1.
         23    2    1    2    0    0 -0.30214346621E+01 -0.18349963436E+02 -0.24574141412E+03  0.27637404762E+03  0.12509165184E+03 0.  0.
          5    1    3    3  502    0 -0.26057014370E+02  0.12419764626E+02 -0.23422160603E+03  0.23603061599E+03  0.41800000000E+01 0.  1.
         -5    1    3    3    0  502  0.23035579708E+02 -0.30769728062E+02 -0.11519808084E+02  0.40343431631E+02  0.41800000000E+01 0.  1.
        -11    1    1    2    0    0 -0.16009543789E+02  0.47902453987E+02 -0.34463407952E+02  0.61144722404E+02  0.00000000000E+00 0. -1.
         11    1    1    2    0    0  0.19030978451E+02 -0.29552490551E+02 -0.79349433561E+02  0.86786291803E+02  0.00000000000E+00 0.  1.
</event>
<event>
 7    1  0.8653652E-006  0.1502573E+03  0.7561462E-02  0.1200157E+00
         -1   -1    0    0    0  501 -0.00000000000E+00  0.00000000000E+00  0.72424200925E+02  0.72424200925E+02  0.00000000000E+00 0.  1.
          1   -1    0    0  501    0  0.00000000000E+00 -0.00000000000E+00 -0.41883822228E+03  0.41883822228E+03  0.00000000000E+00 0. -1.
         23    2    1    2    0    0 -0.23108834060E+02 -0.11959887408E+03 -0.98640937767E+02  0.20053661809E+03  0.12508793586E+03 0.  0.
          5    1    3    3  502    0  0.17822746839E+02  0.14541150117E+02 -0.44266234810E+02  0.50060636191E+02  0.41800000000E+01 0. -1.
         -5    1    3    3    0  502 -0.40931580898E+02 -0.13414002420E+03 -0.54374702957E+02  0.15047598190E+03  0.41800000000E+01 0. -1.
        -11    1    1    2    0    0  0.40251200767E+02  0.45398443451E+02 -0.17567009143E+03  0.18585251909E+03  0.00000000000E+00 0.  1.
         11    1    1    2    0    0 -0.17142366707E+02  0.74200430631E+02 -0.72102992156E+02  0.10487328602E+03  0.00000000000E+00 0. -1.
</event>
<event>
 7    1  0.8653652E-006  0.4184327E+03  0.7561462E-02  0.1037578E+00
         -2   -1    0    0    0  501 -0.00000000000E+00  0.00000000000E+00  0.23322968337E+03  0.23322968337E+03  0.00000000000E+00 0.  1.
          2   -1    0    0  501    0  0.00000000000E+00 -0.00000000000E+00 -0.81982907209E+03  0.81982907209E+03  0.00000000000E+00 0. -1.
         23    2    1    2    0    0  0.30009488548E+03 -0.28225342458E+03 -0.17867810605E+03  0.46613247399E+03  0.12501872561E+03 0.  0.
          5    1    3    3  502    0  0.23795009433E+03 -0.15730702129E+03 -0.83788710306E+02  0.29732770929E+03  0.41800000000E+01 0.  1.
         -5    1    3    3    0  502  0.62144791154E+02 -0.12494640329E+03 -0.94889395740E+02  0.16880476471E+03  0.41800000000E+01 0.  1.
        -11    1    1    2    0    0 -0.18066486048E+03  0.16906545619E+03 -0.30540507776E+03  0.39305875109E+03  0.00000000000E+00 0.  1.
         11    1    1    2    0    0 -0.11943002501E+03  0.11318796839E+03 -0.10251620492E+03  0.19386753037E+03  0.00000000000E+00 0. -1.
</event>
<event>
 7    1  0.8653652E-006  0.1061818E+03  0.7561462E-02  0.1267808E+00
          2   -1    0    0  501    0  0.00000000000E+00  0.00000000000E+00  0.72767299243E+02  0.72767299243E+02  0.00000000000E+00 0. -1.
         -2   -1    0    0    0  501 -0.00000000000E+00 -0.00000000000E+00 -0.25080582042E+03  0.25080582042E+03  0.00000000000E+00 0.  1.
         23    2    1    2    0    0  0.78681889063E+02 -0.16697713962E+02 -0.12057165757E+03  0.19145575327E+03  0.12509247592E+03 0.  0.
          5    1    3    3  502    0  0.62840203381E+02 -0.46464999177E+02 -0.13378715312E+03  0.15499794208E+03  0.41800000000E+01 0.  1.
         -5    1    3    3    0  502  0.15841685682E+02  0.29767285214E+02  0.13215495544E+02  0.36457811190E+02  0.41800000000E+01 0.  1.
        -11    1    1    2    0    0 -0.17938696124E+02 -0.21779812019E+02 -0.53038129777E+02  0.60076619749E+02  0.00000000000E+00 0.  1.
         11    1    1    2    0    0 -0.60743192939E+02  0.38477525982E+02 -0.44287338281E+01  0.72040746647E+02  0.00000000000E+00 0. -1.
</event>
<event>
 7    1  0.1067240E-005  0.1478329E+03  0.7561462E-02  0.1203161E+00
         -2   -1    0    0    0  501 -0.00000000000E+00  0.00000000000E+00  0.40433940304E+02  0.40433940304E+02  0.00000000000E+00 0. -1.
          2   -1    0    0  501    0  0.00000000000E+00 -0.00000000000E+00 -0.71130078309E+03  0.71130078309E+03  0.00000000000E+00 0.  1.
         23    2    1    2    0    0 -0.91375395339E+02 -0.89123120722E+02 -0.30420783070E+03  0.35282029417E+03  0.12508941682E+03 0.  0.
          5    1    3    3  502    0 -0.16736829781E+02 -0.68629476137E+02 -0.24574649937E+03  0.25573216617E+03  0.41800000000E+01 0. -1.
         -5    1    3    3    0  502 -0.74638565557E+02 -0.20493644584E+02 -0.58461331333E+02  0.97088127997E+02  0.41800000000E+01 0. -1.
        -11    1    1    2    0    0  0.36687633692E+02  0.84958699264E+02 -0.29173783421E+03  0.30606359953E+03  0.00000000000E+00 0.  1.
         11    1    1    2    0    0  0.54687761647E+02  0.41644214576E+01 -0.74921177877E+02  0.92850829692E+02  0.00000000000E+00 0. -1.
</event>
<event>
 7    1  0.8653652E-006  0.1434871E+03  0.7561462E-02  0.1208712E+00
         -2   -1    0    0    0  501 -0.00000000000E+00  0.00000000000E+00  0.12195305157E+03  0.12195305157E+03  0.00000000000E+00 0.  1.
          2   -1    0    0  501    0  0.00000000000E+00 -0.00000000000E+00 -0.19383945064E+03  0.19383945064E+03  0.00000000000E+00 0. -1.
         23    2    1    2    0    0  0.93770388546E+02  0.37949054319E+02 -0.34358487743E+02  0.16450143875E+03  0.12508877320E+03 0.  0.
          5    1    3    3  502    0 -0.30903728733E+02  0.87170031581E+01 -0.11454729822E+02  0.34346904212E+02  0.41800000000E+01 0.  1.
         -5    1    3    3    0  502  0.12467411728E+03  0.29232051161E+02 -0.22903757921E+02  0.13015453454E+03  0.41800000000E+01 0.  1.
        -11    1    1    2    0    0 -0.76222968490E+02  0.86161421304E+01  0.15835766717E+02  0.78325923794E+02  0.00000000000E+00 0.  1.
         11    1    1    2    0    0 -0.17547420057E+02 -0.46565196450E+02 -0.53363678048E+02  0.72965139662E+02  0.00000000000E+00 0. -1.
</event>
<event>
 7    1  0.8653652E-006  0.1065983E+03  0.7561462E-02  0.1267002E+00
         -2   -1    0    0    0  501 -0.00000000000E+00  0.00000000000E+00  0.14373361907E+02  0.14373361907E+02  0.00000000000E+00 0.  1.
          2   -1    0    0  501    0  0.00000000000E+00 -0.00000000000E+00 -0.86765298215E+03  0.86765298215E+03  0.00000000000E+00 0. -1.
         23    2    1    2    0    0  0.17904407565E+02  0.58819244429E+01 -0.40704133014E+03  0.42624617948E+03  0.12509195113E+03 0.  0.
          5    1    3    3  502    0  0.64930411015E+02  0.26312339276E+02 -0.17454789394E+03  0.18812957544E+03  0.41800000000E+01 0.  1.
         -5    1    3    3    0  502 -0.47026003450E+02 -0.20430414833E+02 -0.23249343619E+03  0.23811660405E+03  0.41800000000E+01 0.  1.
        -11    1    1    2    0    0 -0.40074932307E+02  0.29537603575E+02 -0.27855433212E+03  0.28296817165E+03  0.00000000000E+00 0. -1.
         11    1    1    2    0    0  0.22170524741E+02 -0.35419528018E+02 -0.16768395799E+03  0.17281199293E+03  0.00000000000E+00 0.  1.
</event>
<event>
 7    1  0.8653652E-006  0.1018027E+03  0.7561462E-02  0.1276550E+00
          2   -1    0    0  501    0  0.00000000000E+00  0.00000000000E+00  0.37940946757E+02  0.37940946757E+02  0.00000000000E+00 0. -1.
         -2   -1    0    0    0  501 -0.00000000000E+00 -0.00000000000E+00 -0.34382526824E+03  0.34382526824E+03  0.00000000000E+00 0.  1.
         23    2    1    2    0    0 -0.32022917402E+02 -0.12474991585E+02 -0.19467246353E+03  0.23393446668E+03  0.12508746537E+03 0.  0.
          5    1    3    3  502    0  0.24341605396E+02 -0.48929928253E+02 -0.12795568995E+03  0.13920051229E+03  0.41800000000E+01 0. -1.
         -5    1    3    3    0  502 -0.56364522798E+02  0.36454936668E+02 -0.66716773582E+02  0.94733954393E+02  0.41800000000E+01 0. -1.
        -11    1    1    2    0    0 -0.23932047284E+01 -0.28175168666E+02 -0.45903379131E+01  0.28646793195E+02  0.00000000000E+00 0. -1.
         11    1    1    2    0    0  0.34416122131E+02  0.40650160251E+02 -0.10662152004E+03  0.11918495512E+03  0.00000000000E+00 0.  1.
</event>
<event>
 7    1  0.8653652E-006  0.1048983E+03  0.7561462E-02  0.1270320E+00
          2   -1    0    0  501    0  0.00000000000E+00  0.00000000000E+00  0.27836565536E+02  0.27836565536E+02  0.00000000000E+00 0. -1.
         -2   -1    0    0    0  501 -0.00000000000E+00 -0.00000000000E+00 -0.10575834916E+04  0.10575834916E+04  0.00000000000E+00 0.  1.
         23    2    1    2    0    0  0.27424722015E+02  0.16640029224E+02 -0.94885750879E+03  0.95760482999E+03  0.12508969773E+03 0.  0.
          5    1    3    3  502    0  0.35973313920E+02  0.67584694625E+02 -0.51872738642E+03  0.52436375169E+03  0.41800000000E+01 0.  1.
         -5    1    3    3    0  502 -0.85485919053E+01 -0.50944665401E+02 -0.43013012237E+03  0.43324107830E+03  0.41800000000E+01 0.  1.
        -11    1    1    2    0    0 -0.12838047995E+02  0.29890775855E+02  0.95496716088E+00  0.32545136654E+02  0.00000000000E+00 0. -1.
         11    1    1    2    0    0 -0.14586674020E+02 -0.46530805079E+02 -0.81844384467E+02  0.95270090527E+02  0.00000000000E+00 0.  1.
</event>
<event>
 7    1  0.8653652E-006  0.9188331E+02  0.7561462E-02  0.1298354E+00
         -3   -1    0    0    0  501 -0.00000000000E+00  0.00000000000E+00  0.49786566639E+02  0.49786566639E+02  0.00000000000E+00 0.  1.
          3   -1    0    0  501    0  0.00000000000E+00 -0.00000000000E+00 -0.31975285695E+03  0.31975285695E+03  0.00000000000E+00 0. -1.
         23    2    1    2    0    0 -0.33588981986E+02 -0.45184802419E+02 -0.10544465074E+03  0.17302017227E+03  0.12509004582E+03 0.  0.
          5    1    3    3  502    0 -0.39383684146E+02  0.71189007689E+01 -0.11276127882E+03  0.11972606953E+03  0.41800000000E+01 0. -1.
         -5    1    3    3    0  502  0.57947021601E+01 -0.52303703188E+02  0.73166280796E+01  0.53294102739E+02  0.41800000000E+01 0. -1.
        -11    1    1    2    0    0 -0.21317731877E+02  0.23433849017E+02 -0.13640115879E+02  0.34491212407E+02  0.00000000000E+00 0.  1.
         11    1    1    2    0    0  0.54906713864E+02  0.21750953402E+02 -0.15088152369E+03  0.16202803891E+03  0.00000000000E+00 0. -1.
</event>
<event>
 7    1  0.8653652E-006  0.1891456E+03  0.7561462E-02  0.1159234E+00
          2   -1    0    0  501    0  0.00000000000E+00  0.00000000000E+00  0.35580892795E+03  0.35580892795E+03  0.00000000000E+00 0.  1.
         -2   -1    0    0    0  501 -0.00000000000E+00 -0.00000000000E+00 -0.14499008997E+03  0.14499008997E+03  0.00000000000E+00 0. -1.
         23    2    1    2    0    0 -0.55889650831E+02 -0.17924952781E+03  0.35452640039E+02  0.22838041534E+03  0.12508668248E+03 0.  0.
          5    1    3    3  502    0 -0.48951605267E+02 -0.16397224186E+03  0.73730421574E+02  0.18637811896E+03  0.41800000000E+01 0. -1.
         -5    1    3    3    0  502 -0.69380455646E+01 -0.15277285948E+02 -0.38277781535E+02  0.42002296383E+02  0.41800000000E+01 0. -1.
        -11    1    1    2    0    0 -0.20387663733E+01  0.24566963438E+02  0.75451068329E+02  0.79376041554E+02  0.00000000000E+00 0.  1.
         11    1    1    2    0    0  0.57928417205E+02  0.15468256437E+03  0.99915129613E+02  0.19304256102E+03  0.00000000000E+00 0. -1.
</event>
<event>
 7    1  0.8653652E-006  0.1349539E+03  0.7561462E-02  0.1220285E+00
          1   -1    0    0  501    0  0.00000000000E+00  0.00000000000E+00  0.15418449517E+03  0.15418449517E+03  0.00000000000E+00 0. -1.
         -1   -1    0    0    0  501 -0.00000000000E+00 -0.00000000000E+00 -0.12243646184E+03  0.12243646184E+03  0.00000000000E+00 0.  1.
         23    2    1    2    0    0  0.56271689952E+02  0.59988898910E+02  0.28164063233E+02  0.15233543579E+03  0.12509076487E+03 0.  0.
          5    1    3    3  502    0  0.93481866210E+01  0.90188857456E+02  0.25773656086E+01  0.90804921759E+02  0.41800000000E+01 0.  1.
         -5    1    3    3    0  502  0.46923503331E+02 -0.30199958546E+02  0.25586697624E+02  0.61530514026E+02  0.41800000000E+01 0.  1.
        -11    1    1    2    0    0 -0.80997601694E+02 -0.35683108457E+02  0.98369411665E+01  0.89054259420E+02  0.00000000000E+00 0. -1.
         11    1    1    2    0    0  0.24725911742E+02 -0.24305790453E+02 -0.62529710735E+01  0.35231261804E+02  0.00000000000E+00 0.  1.
</event>
<event>
 7    1  0.8653652E-006  0.2432844E+03  0.7561462E-02  0.1117624E+00
         -2   -1    0    0    0  501 -0.00000000000E+00  0.00000000000E+00  0.22409671563E+03  0.22409671563E+03  0.00000000000E+00 0.  1.
          2   -1    0    0  501    0  0.00000000000E+00 -0.00000000000E+00 -0.30359016857E+03  0.30359016857E+03  0.00000000000E+00 0. -1.
         23    2    1    2    0    0 -0.20962897768E+03 -0.86555647060E+02  0.26448002084E+02  0.26035253296E+03  0.12509099201E+03 0.  0.
          5    1    3    3  502    0 -0.36018657541E+02  0.27930229450E+02  0.25403537404E+02  0.52347430891E+02  0.41800000000E+01 0. -1.
         -5    1    3    3    0  502 -0.17361032014E+03 -0.11448587651E+03  0.10444646800E+01  0.20800510207E+03  0.41800000000E+01 0. -1.
        -11    1    1    2    0    0  0.79982938794E+02  0.61019933660E+01  0.23179530787E+01  0.80248848762E+02  0.00000000000E+00 0.  1.
         11    1    1    2    0    0  0.12964603889E+03  0.80453653694E+02 -0.10825940810E+03  0.18708550247E+03  0.00000000000E+00 0. -1.
</event>
<event>
 7    1  0.8653652E-006  0.1067635E+03  0.7561462E-02  0.1266684E+00
         -2   -1    0    0    0  501 -0.00000000000E+00  0.00000000000E+00  0.51800921839E+03  0.51800921839E+03  0.00000000000E+00 0.  1.
          2   -1    0    0  501    0  0.00000000000E+00 -0.00000000000E+00 -0.27192084953E+02  0.27192084953E+02  0.00000000000E+00 0. -1.
         23    2    1    2    0    0  0.13377334767E+02 -0.16907012426E+02  0.37422463844E+03  0.39516687051E+03  0.12509186776E+03 0.  0.
          5    1    3    3  502    0 -0.39505355900E+02 -0.49204084809E+02  0.15757815005E+03  0.16979417210E+03  0.41800000000E+01 0. -1.
         -5    1    3    3    0  502  0.52882690668E+02  0.32297072383E+02  0.21664648839E+03  0.22537269841E+03  0.41800000000E+01 0. -1.
        -11    1    1    2    0    0 -0.16758150301E+02 -0.33607713858E+02  0.24188151108E+02  0.44669684197E+02  0.00000000000E+00 0. -1.
         11    1    1    2    0    0  0.33808155332E+01  0.50514726284E+02  0.92404343894E+02  0.10536474864E+03  0.00000000000E+00 0.  1.
</event>
<event>
 7    1  0.8653652E-006  0.1451056E+03  0.7561462E-02  0.1206620E+00
         -2   -1    0    0    0  501 -0.00000000000E+00  0.00000000000E+00  0.29149466702E+02  0.29149466702E+02  0.00000000000E+00 0.  1.
          2   -1    0    0  501    0  0.00000000000E+00 -0.00000000000E+00 -0.10843430949E+04  0.10843430949E+04  0.00000000000E+00 0. -1.
         23    2    1    2    0    0 -0.52699544342E+02 -0.12845712883E+03 -0.66540003973E+03  0.69114694228E+03  0.12509359311E+03 0.  0.
          5    1    3    3  502    0 -0.51000897225E+02 -0.58227410086E+02 -0.55388230117E+03  0.55928042944E+03  0.41800000000E+01 0.  1.
         -5    1    3    3    0  502 -0.16986471177E+01 -0.70229718743E+02 -0.11151773856E+03  0.13186651284E+03  0.41800000000E+01 0.  1.
        -11    1    1    2    0    0  0.22706081004E+02  0.93689608062E+02 -0.15079479149E+03  0.17897591434E+03  0.00000000000E+00 0.  1.
         11    1    1    2    0    0  0.29993463338E+02  0.34767520767E+02 -0.23899879695E+03  0.24336970495E+03  0.00000000000E+00 0. -1.
</event>
<event>
 7    1  0.8653652E-006  0.1058764E+03  0.7561462E-02  0.1268402E+00
          1   -1    0    0  501    0  0.00000000000E+00  0.00000000000E+00  0.41396309608E+03  0.41396309608E+03  0.00000000000E+00 0. -1.
         -1   -1    0    0    0  501 -0.00000000000E+00 -0.00000000000E+00 -0.40921097715E+02  0.40921097715E+02  0.00000000000E+00 0.  1.
         23    2    1    2    0    0 -0.79419014699E+02  0.13689623327E+02  0.15847799711E+03  0.21349644779E+03  0.11819759713E+03 0.  0.
          5    1    3    3  502    0 -0.11001583328E+02  0.29078787932E+02 -0.83652548527E+01  0.32466299944E+02  0.41800000000E+01 0. -1.
         -5    1    3    3    0  502 -0.68417431370E+02 -0.15389164605E+02  0.16684325196E+03  0.18103014784E+03  0.41800000000E+01 0.  1.
        -11    1    1    2    0    0  0.77050082216E+02 -0.37857209190E+02  0.15762716835E+03  0.17948873965E+03  0.00000000000E+00 0. -1.
         11    1    1    2    0    0  0.23689324824E+01  0.24167585863E+02  0.56936832906E+02  0.61899006364E+02  0.00000000000E+00 0.  1.
</event>
<event>
 7    1  0.8653652E-006  0.1327827E+03  0.7561462E-02  0.1223384E+00
         -1   -1    0    0    0  501 -0.00000000000E+00  0.00000000000E+00  0.22311555679E+02  0.22311555679E+02  0.00000000000E+00 0.  1.
          1   -1    0    0  501    0  0.00000000000E+00 -0.00000000000E+00 -0.85762872320E+03  0.85762872320E+03  0.00000000000E+00 0. -1.
         23    2    1    2    0    0  0.10990971469E+02 -0.77917761032E+02 -0.36010335445E+03  0.38924977060E+03  0.12509587958E+03 0.  0.
          5    1    3    3  502    0 -0.48010234080E+02 -0.69105114953E+02 -0.25196601639E+03  0.26567808586E+03  0.41800000000E+01 0. -1.
         -5    1    3    3    0  502  0.59001205549E+02 -0.88126460792E+01 -0.10813733806E+03  0.12357168474E+03  0.41800000000E+01 0. -1.
        -11    1    1    2    0    0  0.35344830996E+02  0.64036969121E+02 -0.25884430341E+03  0.26898022957E+03  0.00000000000E+00 0.  1.
         11    1    1    2    0    0 -0.46335802466E+02  0.13880791911E+02 -0.21636950966E+03  0.22171027870E+03  0.00000000000E+00 0. -1.
</event>
<event>
 7    1  0.8653652E-006  0.7292372E+02  0.7561462E-02  0.1350424E+00
          3   -1    0    0  501    0  0.00000000000E+00  0.00000000000E+00  0.51505032841E+03  0.51505032841E+03  0.00000000000E+00 0. -1.
         -3   -1    0    0    0  501 -0.00000000000E+00 -0.00000000000E+00 -0.23699377627E+02  0.23699377627E+02  0.00000000000E+00 0.  1.
         23    2    1    2    0    0 -0.87259128385E+01 -0.24450208589E+02  0.29232224470E+03  0.31901877553E+03  0.12508689037E+03 0.  0.
          5    1    3    3  502    0  0.69206150129E+01  0.22002789421E+02  0.25793196488E+03  0.25899495856E+03  0.41800000000E+01 0. -1.
         -5    1    3    3    0  502 -0.15646527851E+02 -0.46452998010E+02  0.34390279819E+02  0.60023816972E+02  0.41800000000E+01 0. -1.
        -11    1    1    2    0    0 -0.84453075299E+01 -0.22065869632E+02  0.12510765227E+02  0.26734716540E+02  0.00000000000E+00 0.  1.
         11    1    1    2    0    0  0.17171220368E+02  0.46516078221E+02  0.18651794086E+03  0.19299621396E+03  0.00000000000E+00 0. -1.
</event>
<event>
 7    1  0.8653652E-006  0.1100452E+03  0.7561462E-02  0.1260486E+00
          2   -1    0    0  501    0  0.00000000000E+00  0.00000000000E+00  0.28749960938E+03  0.28749960938E+03  0.00000000000E+00 0. -1.
         -2   -1    0    0    0  501 -0.00000000000E+00 -0.00000000000E+00 -0.58716895381E+02  0.58716895381E+02  0.00000000000E+00 0.  1.
         23    2    1    2    0    0  0.49426880695E+02  0.59913785107E+02  0.15014737925E+03  0.21029813234E+03  0.12509352816E+03 0.  0.
          5    1    3    3  502    0 -0.13327627185E+02  0.42288744988E+02 -0.21475969114E+01  0.44587533813E+02  0.41800000000E+01 0. -1.
         -5    1    3    3    0  502  0.62754507880E+02  0.17625040118E+02  0.15229497616E+03  0.16571059852E+03  0.41800000000E+01 0. -1.
        -11    1    1    2    0    0 -0.28377715617E+02  0.15226971126E+02  0.16602866057E+02  0.36232727673E+02  0.00000000000E+00 0.  1.
         11    1    1    2    0    0 -0.21049165078E+02 -0.75140756233E+02  0.62032468693E+02  0.99685644753E+02  0.00000000000E+00 0. -1.
</event>
<event>
 7    1  0.8653652E-006  0.1004178E+03  0.7561462E-02  0.1279420E+00
          1   -1    0    0  501    0  0.00000000000E+00  0.00000000000E+00  0.20883846319E+03  0.20883846319E+03  0.00000000000E+00 0. -1.
         -1   -1    0    0    0  501 -0.00000000000E+00 -0.00000000000E+00 -0.57055823114E+02  0.57055823114E+02  0.00000000000E+00 0.  1.
         23    2    1    2    0    0  0.10600854210E+02 -0.18675138541E+02  0.60518802362E+02  0.14060850115E+03  0.12508831379E+03 0.  0.
          5    1    3    3  502    0 -0.57589158485E+01  0.52295887239E+02  0.34970594194E+02  0.63312240460E+02  0.41800000000E+01 0.  1.
         -5    1    3    3    0  502  0.16359770058E+02 -0.70971025780E+02  0.25548208168E+02  0.77296260694E+02  0.41800000000E+01 0.  1.
        -11    1    1    2    0    0 -0.33418163274E+02 -0.13178759789E+02  0.13812035494E+02  0.38486694723E+02  0.00000000000E+00 0.  1.
         11    1    1    2    0    0  0.22817309065E+02  0.31853898331E+02  0.77451802219E+02  0.86799090426E+02  0.00000000000E+00 0. -1.
</event>
<event>
 7    1  0.8653652E-006  0.7908717E+02  0.7561462E-02  0.1331662E+00
          1   -1    0    0  501    0  0.00000000000E+00  0.00000000000E+00  0.85140608050E+02  0.85140608050E+02  0.00000000000E+00 0. -1.
         -1   -1    0    0    0  501 -0.00000000000E+00 -0.00000000000E+00 -0.18311072108E+03  0.18311072108E+03  0.00000000000E+00 0.  1.
         23    2    1    2    0    0  0.43903853547E+02  0.34779078643E+02 -0.84155454473E+02  0.16083090077E+03  0.12508919001E+03 0.  0.
          5    1    3    3  502    0 -0.18669933026E+01 -0.52163019712E+00 -0.10050891270E+03  0.10061447060E+03  0.41800000000E+01 0. -1.
         -5    1    3    3    0  502  0.45770846850E+02  0.35300708841E+02  0.16353458230E+02  0.60216430167E+02  0.41800000000E+01 0. -1.
        -11    1    1    2    0    0 -0.33885880181E+02 -0.59759972157E+02 -0.31123914871E+02  0.75420191095E+02  0.00000000000E+00 0.  1.
         11    1    1    2    0    0 -0.10017973366E+02  0.24980893513E+02  0.17309256313E+02  0.32000237268E+02  0.00000000000E+00 0. -1.
</event>
<event>
 7    1  0.8653652E-006  0.1708309E+03  0.7561462E-02  0.1176984E+00
          1   -1    0    0  501    0  0.00000000000E+00  0.00000000000E+00  0.11113264766E+04  0.11113264766E+04  0.00000000000E+00 0. -1.
         -1   -1    0    0    0  501 -0.00000000000E+00 -0.00000000000E+00 -0.41674861215E+02  0.41674861215E+02  0.00000000000E+00 0.  1.
         23    2    1    2    0    0 -0.15048404920E+03  0.56078433639E+02  0.29943689051E+03  0.36207732005E+03  0.12508914627E+03 0.  0.
          5    1    3    3  502    0 -0.56480056164E+01  0.75981223265E+01 -0.11595641158E+02  0.15542288255E+02  0.41800000000E+01 0.  1.
         -5    1    3    3    0  502 -0.14483604359E+03  0.48480311313E+02  0.31103253167E+03  0.34653503179E+03  0.41800000000E+01 0.  1.
        -11    1    1    2    0    0  0.10439711493E+03 -0.75161878467E+02  0.59500632914E+03  0.60875331399E+03  0.00000000000E+00 0. -1.
         11    1    1    2    0    0  0.46086934268E+02  0.19083444828E+02  0.17520839577E+03  0.18217070380E+03  0.00000000000E+00 0.  1.
</event>
<event>
 7    1  0.1572389E-005  0.2429110E+03  0.7561462E-02  0.1117869E+00
          2   -1    0    0  501    0  0.00000000000E+00  0.00000000000E+00  0.14198112644E+04  0.14198112644E+04  0.00000000000E+00 0. -1.
         -2   -1    0    0    0  501 -0.00000000000E+00 -0.00000000000E+00 -0.45609621598E+02  0.45609621598E+02  0.00000000000E+00 0.  1.
         23    2    1    2    0    0 -0.55578334006E+02  0.22177611686E+03  0.62550722788E+03  0.67762864577E+03  0.12509073594E+03 0.  0.
          5    1    3    3  502    0 -0.80303121647E+02  0.20977093185E+03  0.59671950380E+03  0.63760808795E+03  0.41800000000E+01 0.  1.
         -5    1    3    3    0  502  0.24724787641E+02  0.12005185010E+02  0.28787724077E+02  0.40020557824E+02  0.41800000000E+01 0.  1.
        -11    1    1    2    0    0  0.25846804700E+02 -0.18135568952E+03  0.66891217758E+03  0.69354267695E+03  0.00000000000E+00 0. -1.
         11    1    1    2    0    0  0.29731529305E+02 -0.40420427345E+02  0.79782237305E+02  0.94249563241E+02  0.00000000000E+00 0.  1.
</event>
<event>
 7    1  0.8653652E-006  0.9833107E+02  0.7561462E-02  0.1283845E+00
         -1   -1    0    0    0  501 -0.00000000000E+00  0.00000000000E+00  0.40558030066E+03  0.40558030066E+03  0.00000000000E+00 0.  1.
          1   -1    0    0  501    0  0.00000000000E+00 -0.00000000000E+00 -0.30630829911E+02  0.30630829911E+02  0.00000000000E+00 0. -1.
         23    2    1    2    0    0  0.64006806951E+01 -0.77339061158E+01  0.26259376541E+03  0.29103772744E+03  0.12508673448E+03 0.  0.
          5    1    3    3  502    0 -0.15764262931E+02 -0.59641855931E+02  0.88384026207E+02  0.10786506132E+03  0.41800000000E+01 0.  1.
         -5    1    3    3    0  502  0.22164943626E+02  0.51907949815E+02  0.17420973920E+03  0.18317266612E+03  0.41800000000E+01 0.  1.
        -11    1    1    2    0    0  0.33264479260E+02  0.17209605923E+02  0.92542327828E+02  0.99833754594E+02  0.00000000000E+00 0.  1.
         11    1    1    2    0    0 -0.39665159956E+02 -0.94756998072E+01  0.19813377508E+02  0.45339648537E+02  0.00000000000E+00 0. -1.
</event>
<event>
 7    1  0.8653652E-006  0.9381373E+02  0.7561462E-02  0.1293870E+00
          1   -1    0    0  501    0  0.00000000000E+00  0.00000000000E+00  0.97278354746E+02  0.97278354746E+02  0.00000000000E+00 0. -1.
         -1   -1    0    0    0  501 -0.00000000000E+00 -0.00000000000E+00 -0.18232426179E+03  0.18232426179E+03  0.00000000000E+00 0.  1.
         23    2    1    2    0    0 -0.31247412251E+02  0.46805890772E+02 -0.10200578987E+03  0.17094030547E+03  0.12509282427E+03 0.  0.
          5    1    3    3  502    0  0.42201436166E+02  0.33501957485E+02 -0.72821165167E+02  0.90684821585E+02  0.41800000000E+01 0.  1.
         -5    1    3    3    0  502 -0.73448848417E+02  0.13303933287E+02 -0.29184624706E+02  0.80255483887E+02  0.41800000000E+01 0.  1.
        -11    1    1    2    0    0  0.27741205404E+02 -0.27011586490E+02  0.54042436474E+02  0.66481465252E+02  0.00000000000E+00 0. -1.
         11    1    1    2    0    0  0.35062068470E+01 -0.19794304282E+02 -0.37082553641E+02  0.42180845808E+02  0.00000000000E+00 0.  1.
</event>
<event>
 7    1  0.8653652E-006  0.9762656E+02  0.7561462E-02  0.1285368E+00
         -4   -1    0    0    0  501 -0.00000000000E+00  0.00000000000E+00  0.18595312016E+03  0.18595312016E+03  0.00000000000E+00 0.  1.
          4   -1    0    0  501    0  0.00000000000E+00 -0.00000000000E+00 -0.66458495143E+02  0.66458495143E+02  0.00000000000E+00 0. -1.
         23    2    1    2    0    0  0.10925115760E+02  0.14469072006E+02  0.50665057510E+02  0.13617247683E+03  0.12508910102E+03 0.  0.
          5    1    3    3  502    0  0.55094612346E+02  0.14903569085E+02 -0.12890742088E+02  0.58661540319E+02  0.41800000000E+01 0.  1.
         -5    1    3    3    0  502 -0.44169496585E+02 -0.43449707818E+00  0.63555799597E+02  0.77510936511E+02  0.41800000000E+01 0.  1.
        -11    1    1    2    0    0 -0.33060260416E+02  0.29578012267E+02  0.33579404044E+02  0.55636462904E+02  0.00000000000E+00 0.  1.
         11    1    1    2    0    0  0.22135144656E+02 -0.44047084274E+02  0.35250163460E+02  0.60602675567E+02  0.00000000000E+00 0. -1.
</event>
<event>
 7    1  0.8653652E-006  0.1562851E+03  0.7561462E-02  0.1192956E+00
         -1   -1    0    0    0  501 -0.00000000000E+00  0.00000000000E+00  0.85416440780E+03  0.85416440780E+03  0.00000000000E+00 0.  1.
          1   -1    0    0  501    0  0.00000000000E+00 -0.00000000000E+00 -0.32403658162E+02  0.32403658162E+02  0.00000000000E+00 0. -1.
         23    2    1    2    0    0  0.22909603823E+02  0.11817901420E+03  0.53828264851E+03  0.56558492986E+03  0.12508786453E+03 0.  0.
          5    1    3    3  502    0  0.33995302204E+02 -0.81339511315E+01  0.22254333239E+03  0.22531056106E+03  0.41800000000E+01 0.  1.
         -5    1    3    3    0  502 -0.11085698381E+02  0.12631296533E+03  0.31573931612E+03  0.34027436880E+03  0.41800000000E+01 0.  1.
        -11    1    1    2    0    0  0.24764733247E+02 -0.93680183960E+02  0.17786771890E+03  0.20254923921E+03  0.00000000000E+00 0. -1.
         11    1    1    2    0    0 -0.47674337070E+02 -0.24498830236E+02  0.10561038223E+03  0.11843389689E+03  0.00000000000E+00 0.  1.
</event>
<event>
 7    1  0.8653652E-006  0.2539581E+03  0.7561462E-02  0.1110829E+00
          2   -1    0    0  501    0  0.00000000000E+00  0.00000000000E+00  0.24689568091E+03  0.24689568091E+03  0.00000000000E+00 0. -1.
         -2   -1    0    0    0  501 -0.00000000000E+00 -0.00000000000E+00 -0.32552016912E+03  0.32552016912E+03  0.00000000000E+00 0.  1.
         23    2    1    2    0    0 -0.13331103738E+03  0.19996239350E+03 -0.14504946274E+03  0.30731681038E+03  0.12508990287E+03 0.  0.
          5    1    3    3  502    0 -0.13587161874E+03  0.21095015932E+03 -0.11718809714E+03  0.27696857043E+03  0.41800000000E+01 0. -1.
         -5    1    3    3    0  502  0.25605813601E+01 -0.10987765824E+02 -0.27861365599E+02  0.30348239945E+02  0.41800000000E+01 0. -1.
        -11    1    1    2    0    0  0.42270518593E+02 -0.29077764186E+02 -0.17306968354E+02  0.54146507420E+02  0.00000000000E+00 0.  1.
         11    1    1    2    0    0  0.91040518783E+02 -0.17088462931E+03  0.83731942893E+02  0.21095253223E+03  0.00000000000E+00 0. -1.
</event>
<event>
 7    1  0.8653652E-006  0.1106743E+03  0.7561462E-02  0.1259326E+00
         -2   -1    0    0    0  501 -0.00000000000E+00  0.00000000000E+00  0.16993098228E+02  0.16993098228E+02  0.00000000000E+00 0.  1.
          2   -1    0    0  501    0  0.00000000000E+00 -0.00000000000E+00 -0.76871195626E+03  0.76871195626E+03  0.00000000000E+00 0. -1.
         23    2    1    2    0    0 -0.45652244606E+01  0.43431269021E+02 -0.41366197018E+03  0.43251573684E+03  0.11851801818E+03 0.  0.
          5    1    3    3  502    0 -0.61222197467E+02  0.24108836113E+02 -0.19998183641E+03  0.21056970517E+03  0.41800000000E+01 0. -1.
         -5    1    3    3    0  502  0.56656973006E+02  0.19322432908E+02 -0.21368013377E+03  0.22194603167E+03  0.41800000000E+01 0.  1.
        -11    1    1    2    0    0  0.11048799488E+02  0.24654537985E+02 -0.47067394947E+02  0.54270267002E+02  0.00000000000E+00 0.  1.
         11    1    1    2    0    0 -0.64835750271E+01 -0.68085807007E+02 -0.29098949291E+03  0.29891905065E+03  0.00000000000E+00 0. -1.
</event>
<event>
 7    1  0.8653652E-006  0.1962365E+03  0.7561462E-02  0.1152954E+00
          3   -1    0    0  501    0  0.00000000000E+00  0.00000000000E+00  0.43524973666E+02  0.43524973666E+02  0.00000000000E+00 0. -1.
         -3   -1    0    0    0  501 -0.00000000000E+00 -0.00000000000E+00 -0.94674927879E+03  0.94674927879E+03  0.00000000000E+00 0.  1.
         23    2    1    2    0    0  0.29956264594E+02  0.16387772323E+03 -0.57980314891E+03  0.61609432971E+03  0.12508895095E+03 0.  0.
          5    1    3    3  502    0 -0.36260846836E+02  0.11755168702E+02 -0.16333612805E+03  0.16777722173E+03  0.41800000000E+01 0.  1.
         -5    1    3    3    0  502  0.66217111430E+02  0.15212255452E+03 -0.41646702086E+03  0.44831710798E+03  0.41800000000E+01 0.  1.
        -11    1    1    2    0    0  0.31241078074E+02 -0.57507779492E+02 -0.11434307836E+03  0.13174782438E+03  0.00000000000E+00 0.  1.
         11    1    1    2    0    0 -0.61197342668E+02 -0.10636994373E+03 -0.20907807786E+03  0.24243209837E+03  0.00000000000E+00 0. -1.
</event>
<event>
 7    1  0.8653652E-006  0.1104009E+03  0.7561462E-02  0.1259829E+00
          2   -1    0    0  501    0  0.00000000000E+00  0.00000000000E+00  0.35577501541E+03  0.35577501541E+03  0.00000000000E+00 0. -1.
         -2   -1    0    0    0  501 -0.00000000000E+00 -0.00000000000E+00 -0.50412059984E+02  0.50412059984E+02  0.00000000000E+00 0.  1.
         23    2    1    2    0    0 -0.41401241463E+02  0.40868896113E+01  0.68539420516E+02  0.14857888925E+03  0.12508904310E+03 0.  0.
          5    1    3    3  502    0  0.31449124698E+02 -0.25486621973E+02 -0.48012823735E+01  0.40977311482E+02  0.41800000000E+01 0. -1.
         -5    1    3    3    0  502 -0.72850366161E+02  0.29573511584E+02  0.73340702890E+02  0.10760157777E+03  0.41800000000E+01 0. -1.
        -11    1    1    2    0    0 -0.12387891413E+02  0.33522497744E+02  0.82722039605E+02  0.90111894582E+02  0.00000000000E+00 0.  1.
         11    1    1    2    0    0  0.53789132876E+02 -0.37609387356E+02  0.15410149531E+03  0.16749629157E+03  0.00000000000E+00 0. -1.
</event>
<event>
 7    1  0.8653652E-006  0.9161823E+02  0.7561462E-02  0.1298980E+00
          2   -1    0    0  501    0  0.00000000000E+00  0.00000000000E+00  0.17274873628E+03  0.17274873628E+03  0.00000000000E+00 0.  1.
         -2   -1    0    0    0  501 -0.00000000000E+00 -0.00000000000E+00 -0.10620556430E+03  0.10620556430E+03  0.00000000000E+00 0. -1.
         23    2    1    2    0    0 -0.17208551151E+02  0.11986320574E+01 -0.43560604912E+02  0.13350160401E+03  0.12501032365E+03 0.  0.
          5    1    3    3  502    0 -0.40167496578E+02  0.34848555681E+02 -0.67527199698E+02  0.86053731549E+02  0.41800000000E+01 0. -1.
         -5    1    3    3    0  502  0.22958945427E+02 -0.33649923624E+02  0.23966594786E+02  0.47447872457E+02  0.41800000000E+01 0. -1.
        -11    1    1    2    0    0  0.47758304527E+01 -0.44059329378E+02  0.80519316847E+02  0.91909702683E+02  0.00000000000E+00 0.  1.
         11    1    1    2    0    0  0.12432720698E+02  0.42860697321E+02  0.29584460048E+02  0.53542993894E+02  0.00000000000E+00 0. -1.
</event>
<event>
 7    1  0.8653652E-006  0.2858692E+03  0.7561462E-02  0.1092526E+00
          1   -1    0    0  501    0  0.00000000000E+00  0.00000000000E+00  0.10742805587E+04  0.10742805587E+04  0.00000000000E+00 0. -1.
         -1   -1    0    0    0  501 -0.00000000000E+00 -0.00000000000E+00 -0.87304086373E+02  0.87304086373E+02  0.00000000000E+00 0.  1.
         23    2    1    2    0    0 -0.26871836874E+03  0.43921041767E+02  0.33695447971E+03  0.45091586939E+03  0.12509268668E+03 0.  0.
          5    1    3    3  502    0 -0.25552866601E+03  0.41532621382E+01  0.26975444729E+03  0.37161415873E+03  0.41800000000E+01 0. -1.
         -5    1    3    3    0  502 -0.13189702726E+02  0.39767779628E+02  0.67200032429E+02  0.79301710656E+02  0.41800000000E+01 0. -1.
        -11    1    1    2    0    0  0.19539746801E+03 -0.17822770191E+02  0.54989978719E+03  0.58385580206E+03  0.00000000000E+00 0. -1.
         11    1    1    2    0    0  0.73320900728E+02 -0.26098271576E+02  0.10012220543E+03  0.12681297364E+03  0.00000000000E+00 0.  1.
</event>
<event>
 7    1  0.8653652E-006  0.7246059E+02  0.7561462E-02  0.1351920E+00
         -2   -1    0    0    0  501 -0.00000000000E+00  0.00000000000E+00  0.26816114711E+02  0.26816114711E+02  0.00000000000E+00 0.  1.
          2   -1    0    0  501    0  0.00000000000E+00 -0.00000000000E+00 -0.61962159674E+03  0.61962159674E+03  0.00000000000E+00 0. -1.
         23    2    1    2    0    0  0.16875126939E+02  0.37912711412E+02 -0.18939530658E+03  0.23073741805E+03  0.12508809031E+03 0.  0.
          5    1    3    3  502    0  0.21046385154E+02  0.36110626522E+02 -0.20744811442E+03  0.21165802666E+03  0.41800000000E+01 0.  1.
         -5    1    3    3    0  502 -0.41712582150E+01  0.18020848910E+01  0.18052807835E+02  0.19079391389E+02  0.41800000000E+01 0.  1.
        -11    1    1    2    0    0  0.26877865628E+02  0.12794813257E+02 -0.78398390488E+02  0.83859612080E+02  0.00000000000E+00 0.  1.
         11    1    1    2    0    0 -0.43752992567E+02 -0.50707524670E+02 -0.32501178496E+03  0.33184068132E+03  0.00000000000E+00 0. -1.
</event>
<event>
 7    1  0.8653652E-006  0.9206434E+02  0.7561462E-02  0.1297928E+00
         -2   -1    0    0    0  501 -0.00000000000E+00  0.00000000000E+00  0.51788274037E+03  0.51788274037E+03  0.00000000000E+00 0.  1.
          2   -1    0    0  501    0  0.00000000000E+00 -0.00000000000E+00 -0.30591390867E+02  0.30591390867E+02  0.00000000000E+00 0. -1.
         23    2    1    2    0    0  0.20165080231E+02 -0.59374232249E+02  0.29510387121E+03  0.32659062996E+03  0.12507283823E+03 0.  0.
          5    1    3    3  502    0  0.10908975131E+02  0.61821211669E+01  0.23996559828E+03  0.24032932638E+03  0.41800000000E+01 0.  1.
         -5    1    3    3    0  502  0.92561051006E+01 -0.65556353416E+02  0.55138272929E+02  0.86261303587E+02  0.41800000000E+01 0.  1.
        -11    1    1    2    0    0 -0.21862659390E+02  0.80481213377E+02  0.17749189922E+03  0.19610858184E+03  0.00000000000E+00 0.  1.
         11    1    1    2    0    0  0.16975791589E+01 -0.21106981128E+02  0.14695579074E+02  0.25774919431E+02  0.00000000000E+00 0. -1.
</event>
<event>
 7    1  0.8653652E-006  0.9233098E+02  0.7561462E-02  0.1297303E+00
          2   -1    0    0  501    0  0.00000000000E+00  0.00000000000E+00  0.27167338838E+03  0.27167338838E+03  0.00000000000E+00 0. -1.
         -2   -1    0    0    0  501 -0.00000000000E+00 -0.00000000000E+00 -0.45809473431E+02  0.45809473431E+02  0.00000000000E+00 0.  1.
         23    2    1    2    0    0 -0.46293873261E+02 -0.10893346548E+02  0.11024995178E+03  0.16285362446E+03  0.11002028646E+03 0.  0.
          5    1    3    3  502    0  0.29500206169E+02  0.75852640050E+01  0.66615478628E+02  0.73368200107E+02  0.41800000000E+01 0. -1.
         -5    1    3    3    0  502 -0.75794079429E+02 -0.18478610553E+02  0.43634473152E+02  0.89485424354E+02  0.41800000000E+01 0.  1.
        -11    1    1    2    0    0  0.44151546194E+02 -0.17370559137E+02  0.11699620559E+03  0.12625057417E+03  0.00000000000E+00 0. -1.
         11    1    1    2    0    0  0.21423270668E+01  0.28263905685E+02 -0.13822424206E+01  0.28378663181E+02  0.00000000000E+00 0.  1.
</event>
<event>
 7    1  0.8653652E-006  0.9504693E+02  0.7561462E-02  0.1291070E+00
         -3   -1    0    0    0  501 -0.00000000000E+00  0.00000000000E+00  0.78921067559E+02  0.78921067559E+02  0.00000000000E+00 0.  1.
          3   -1    0    0  501    0  0.00000000000E+00 -0.00000000000E+00 -0.21389650049E+03  0.21389650049E+03  0.00000000000E+00 0. -1.
         23    2    1    2    0    0  0.31328471633E+02  0.23897097280E+02  0.53410921005E+00  0.13115083803E+03  0.12509081761E+03 0.  0.
          5    1    3    3  502    0 -0.51491421603E+00 -0.50185607658E+02 -0.14271564836E+01  0.50382234253E+02  0.41800000000E+01 0.  1.
         -5    1    3    3    0  502  0.31843385849E+02  0.74082704938E+02  0.19612656936E+01  0.80768603779E+02  0.41800000000E+01 0.  1.
        -11    1    1    2    0    0 -0.37960065427E+02 -0.41858672815E+01 -0.13559415674E+03  0.14086966811E+03  0.00000000000E+00 0. -1.
         11    1    1    2    0    0  0.66315937943E+01 -0.19711229998E+02  0.84614598563E-01  0.20797061906E+02  0.00000000000E+00 0.  1.
</event>
<event>
 7    1  0.8653652E-006  0.1111106E+03  0.7561462E-02  0.1258527E+00
         -2   -1    0    0    0  501 -0.00000000000E+00  0.00000000000E+00  0.87124787255E+02  0.87124787255E+02  0.00000000000E+00 0. -1.
          2   -1    0    0  501    0  0.00000000000E+00 -0.00000000000E+00 -0.19296186483E+03  0.19296186483E+03  0.00000000000E+00 0.  1.
         23    2    1    2    0    0 -0.71359944720E+02 -0.39313797488E+01 -0.66575518555E+02  0.15870248382E+03  0.12508589546E+03 0.  0.
          5    1    3    3  502    0  0.80645444341E+01 -0.50886934018E+02 -0.22956360525E+02  0.56559559928E+02  0.41800000000E+01 0.  1.
         -5    1    3    3    0  502 -0.79424489154E+02  0.46955554269E+02 -0.43619158029E+02  0.10214292389E+03  0.41800000000E+01 0.  1.
        -11    1    1    2    0    0  0.29962947890E+02 -0.13979094663E+02  0.25993322822E+02  0.42057652873E+02  0.00000000000E+00 0. -1.
         11    1    1    2    0    0  0.41396996829E+02  0.17910474412E+02 -0.65254881842E+02  0.79326515393E+02  0.00000000000E+00 0.  1.
</event>
<event>
 7    1  0.8653652E-006  0.1672393E+03  0.7561462E-02  0.1180758E+00
          1   -1    0    0  501    0  0.00000000000E+00  0.00000000000E+00  0.40542845069E+03  0.40542845069E+03  0.00000000000E+00 0. -1.
         -1   -1    0    0    0  501 -0.00000000000E+00 -0.00000000000E+00 -0.91413459106E+02  0.91413459106E+02  0.00000000000E+00 0.  1.
         23    2    1    2    0    0  0.44471639897E+02  0.15019947177E+03  0.13076538394E+03  0.23934440905E+03  0.12509417426E+03 0.  0.
          5    1    3    3  502    0  0.47072136679E+02  0.83579296473E+02  0.14219127961E+03  0.17157248395E+03  0.41800000000E+01 0.  1.
         -5    1    3    3    0  502 -0.26004967821E+01  0.66620175297E+02 -0.11425895675E+02  0.67771925103E+02  0.41800000000E+01 0.  1.
        -11    1    1    2    0    0 -0.57104086095E+02 -0.14826637490E+03  0.18579612521E+03  0.24446675586E+03  0.00000000000E+00 0. -1.
         11    1    1    2    0    0  0.12632446198E+02 -0.19330968694E+01 -0.25465175724E+01  0.13030744883E+02  0.00000000000E+00 0.  1.
</event>
<event>
 7    1  0.8653652E-006  0.6494881E+02  0.7561462E-02  0.1378164E+00
         -3   -1    0    0    0  501 -0.00000000000E+00  0.00000000000E+00  0.19781366186E+03  0.19781366186E+03  0.00000000000E+00 0.  1.
          3   -1    0    0  501    0  0.00000000000E+00 -0.00000000000E+00 -0.62784122503E+02  0.62784122503E+02  0.00000000000E+00 0. -1.
         23    2    1    2    0    0  0.23928225830E+02  0.48713153091E+01  0.78486354203E+02  0.14967824608E+03  0.12508868793E+03 0.  0.
          5    1    3    3  502    0 -0.26447596401E+02 -0.27238384031E+02 -0.12989534312E+02  0.40343590837E+02  0.41800000000E+01 0.  1.
         -5    1    3    3    0  502  0.50375822231E+02  0.32109699340E+02  0.91475888515E+02  0.10933465524E+03  0.41800000000E+01 0.  1.
        -11    1    1    2    0    0 -0.17103187884E+02 -0.12794896184E+02  0.81292346805E+02  0.84051615411E+02  0.00000000000E+00 0.  1.
         11    1    1    2    0    0 -0.68250379452E+01  0.79235808754E+01 -0.24749161654E+02  0.26867922871E+02  0.00000000000E+00 0. -1.
</event>
<event>
 7    1  0.8653652E-006  0.1186149E+03  0.7561462E-02  0.1245400E+00
         -2   -1    0    0    0  501 -0.00000000000E+00  0.00000000000E+00  0.61826215739E+02  0.61826215739E+02  0.00000000000E+00 0. -1.
          2   -1    0    0  501    0  0.00000000000E+00 -0.00000000000E+00 -0.33006973486E+03  0.33006973486E+03  0.00000000000E+00 0.  1.
         23    2    1    2    0    0 -0.12988388157E+02 -0.90124948089E+02 -0.13761638655E+03  0.20706712130E+03  0.12508924167E+03 0.  0.
          5    1    3    3  502    0 -0.58414049486E+02 -0.69835172170E+02 -0.44530803467E+02  0.10143775090E+03  0.41800000000E+01 0.  1.
         -5    1    3    3    0  502  0.45425661329E+02 -0.20289775919E+02 -0.93085583083E+02  0.10562937040E+03  0.41800000000E+01 0.  1.
        -11    1    1    2    0    0 -0.10076763116E+02  0.21028743271E+02  0.10835238307E+02  0.25712868133E+02  0.00000000000E+00 0. -1.
         11    1    1    2    0    0  0.23065151274E+02  0.69096204818E+02 -0.14146237088E+03  0.15911596117E+03  0.00000000000E+00 0.  1.
</event>
<event>
 7    1  0.8653652E-006  0.1665808E+03  0.7561462E-02  0.1181461E+00
          1   -1    0    0  501    0  0.00000000000E+00  0.00000000000E+00  0.12495334960E+03  0.12495334960E+03  0.00000000000E+00 0. -1.
         -1   -1    0    0    0  501 -0.00000000000E+00 -0.00000000000E+00 -0.29416923739E+03  0.29416923739E+03  0.00000000000E+00 0.  1.
         23    2    1    2    0    0  0.15002720032E+03 -0.25816957991E+02 -0.13441750227E+03  0.23851769349E+03  0.12509176246E+03 0.  0.
          5    1    3    3  502    0  0.11346577695E+03 -0.59564068516E+02 -0.44597921666E+02  0.13575274515E+03  0.41800000000E+01 0. -1.
         -5    1    3    3    0  502  0.36561423362E+02  0.33747110526E+02 -0.89819580606E+02  0.10276494834E+03  0.41800000000E+01 0. -1.
        -11    1    1    2    0    0 -0.52326118987E+02 -0.50061257012E+01 -0.55114251135E+02  0.76162094909E+02  0.00000000000E+00 0.  1.
         11    1    1    2    0    0 -0.97701081329E+02  0.30823083692E+02  0.20315865620E+02  0.10444279859E+03  0.00000000000E+00 0. -1.
</event>
<event>
 7    1  0.8653652E-006  0.1469754E+03  0.7561462E-02  0.1204240E+00
         -1   -1    0    0    0  501 -0.00000000000E+00  0.00000000000E+00  0.39248014567E+02  0.39248014567E+02  0.00000000000E+00 0.  1.
          1   -1    0    0  501    0  0.00000000000E+00 -0.00000000000E+00 -0.87753591483E+03  0.87753591483E+03  0.00000000000E+00 0. -1.
         23    2    1    2    0    0 -0.17604783951E+02 -0.13261019708E+03 -0.27165796607E+03  0.32762974329E+03  0.12509118822E+03 0.  0.
          5    1    3    3  502    0  0.47533408509E+01 -0.14898181881E+02  0.11686607922E+02  0.19964951223E+02  0.41800000000E+01 0.  1.
         -5    1    3    3    0  502 -0.22358124801E+02 -0.11771201520E+03 -0.28334457399E+03  0.30766479207E+03  0.41800000000E+01 0.  1.
        -11    1    1    2    0    0 -0.32800539920E+02  0.71455139616E+02 -0.34303388716E+03  0.35192891347E+03  0.00000000000E+00 0.  1.
         11    1    1    2    0    0  0.50405323870E+02  0.61155057465E+02 -0.22359604703E+03  0.23722527263E+03  0.00000000000E+00 0. -1.
</event>
<event>
 7    1  0.8653652E-006  0.1197845E+03  0.7561462E-02  0.1243453E+00
          1   -1    0    0  501    0  0.00000000000E+00  0.00000000000E+00  0.21388719938E+03  0.21388719938E+03  0.00000000000E+00 0. -1.
         -1   -1    0    0    0  501 -0.00000000000E+00 -0.00000000000E+00 -0.83752633803E+02  0.83752633803E+02  0.00000000000E+00 0.  1.
         23    2    1    2    0    0  0.28567271501E+01  0.64636848569E+02  0.29331460923E+02  0.14385484156E+03  0.12509115779E+03 0.  0.
          5    1    3    3  502    0  0.45583127850E+02 -0.20068485034E+01  0.43668031154E+02  0.63294694330E+02  0.41800000000E+01 0.  1.
         -5    1    3    3    0  502 -0.42726400700E+02  0.66643697072E+02 -0.14336570231E+02  0.80560147233E+02  0.41800000000E+01 0.  1.
        -11    1    1    2    0    0  0.29739602825E+02 -0.74667114508E+02  0.58297195770E+02  0.99288393077E+02  0.00000000000E+00 0.  1.
         11    1    1    2    0    0 -0.32596329975E+02  0.10030265939E+02  0.42505908882E+02  0.54496598541E+02  0.00000000000E+00 0. -1.
</event>
<event>
 7    1  0.8653652E-006  0.1130692E+03  0.7561462E-02  0.1254989E+00
          2   -1    0    0  501    0  0.00000000000E+00  0.00000000000E+00  0.12746881680E+03  0.12746881680E+03  0.00000000000E+00 0. -1.
         -2   -1    0    0    0  501 -0.00000000000E+00 -0.00000000000E+00 -0.19422489676E+03  0.19422489676E+03  0.00000000000E+00 0.  1.
         23    2    1    2    0    0  0.32923114526E+02 -0.33084978668E+02 -0.14140328257E+03  0.19447529943E+03  0.12508879439E+03 0.  0.
          5    1    3    3  502    0  0.40930140815E+02 -0.77279680128E+02 -0.82612570988E+02  0.12037331379E+03  0.41800000000E+01 0. -1.
         -5    1    3    3    0  502 -0.80070262896E+01  0.44194701460E+02 -0.58790711580E+02  0.74101985636E+02  0.41800000000E+01 0. -1.
        -11    1    1    2    0    0  0.98770852081E+01  0.47347520855E+02  0.11678743149E+02  0.49756784310E+02  0.00000000000E+00 0.  1.
         11    1    1    2    0    0 -0.42800199734E+02 -0.14262542186E+02  0.62968459464E+02  0.77461629818E+02  0.00000000000E+00 0. -1.
</event>
<event>
 7    1  0.8653652E-006  0.1094745E+03  0.7561462E-02  0.1261546E+00
         -2   -1    0    0    0  501 -0.00000000000E+00  0.00000000000E+00  0.27603284200E+02  0.27603284200E+02  0.00000000000E+00 0.  1.
          2   -1    0    0  501    0  0.00000000000E+00 -0.00000000000E+00 -0.59338230574E+03  0.59338230574E+03  0.00000000000E+00 0. -1.
         23    2    1    2    0    0  0.98853414121E+01 -0.64662713276E+02 -0.27592212209E+03  0.30993605156E+03  0.12509337366E+03 0.  0.
          5    1    3    3  502    0 -0.93511208557E+01  0.30864359333E+02 -0.13291240106E+03  0.13683285750E+03  0.41800000000E+01 0. -1.
         -5    1    3    3    0  502  0.19236462268E+02 -0.95527072609E+02 -0.14300972104E+03  0.17310319406E+03  0.41800000000E+01 0. -1.
        -11    1    1    2    0    0 -0.28167739670E+02  0.78908004334E+01 -0.21917632827E+02  0.36552276514E+02  0.00000000000E+00 0.  1.
         11    1    1    2    0    0  0.18282398258E+02  0.56771912843E+02 -0.26793926662E+03  0.27449726187E+03  0.00000000000E+00 0. -1.
</event>
<event>
 7    1  0.8653652E-006  0.1198233E+03  0.7561462E-02  0.1243389E+00
          1   -1    0    0  501    0  0.00000000000E+00  0.00000000000E+00  0.29231879707E+03  0.29231879707E+03  0.00000000000E+00 0. -1.
         -1   -1    0    0    0  501 -0.00000000000E+00 -0.00000000000E+00 -0.63849998083E+02  0.63849998083E+02  0.00000000000E+00 0.  1.
         23    2    1    2    0    0  0.72168725281E+02  0.20573513312E+02  0.78796724945E+02  0.16579853001E+03  0.12509450161E+03 0.  0.
          5    1    3    3  502    0  0.24758131006E+02  0.71526313575E+02  0.35317714542E+02  0.83628894199E+02  0.41800000000E+01 0. -1.
         -5    1    3    3    0  502  0.47410594275E+02 -0.50952800262E+02  0.43479010403E+02  0.82169635814E+02  0.41800000000E+01 0. -1.
        -11    1    1    2    0    0 -0.74510037273E+02 -0.11149342891E+01  0.52286782113E+02  0.91032391579E+02  0.00000000000E+00 0.  1.
         11    1    1    2    0    0  0.23413119923E+01 -0.19458579023E+02  0.97385291929E+02  0.99337873561E+02  0.00000000000E+00 0. -1.
</event>
<event>
 7    1  0.8653652E-006  0.1105202E+03  0.7561462E-02  0.1259610E+00
         -1   -1    0    0    0  501 -0.00000000000E+00  0.00000000000E+00  0.28090680120E+02  0.28090680120E+02  0.00000000000E+00 0.  1.
          1   -1    0    0  501    0  0.00000000000E+00 -0.00000000000E+00 -0.66604050284E+03  0.66604050284E+03  0.00000000000E+00 0. -1.
         23    2    1    2    0    0  0.25168465992E+02  0.90716204426E+02 -0.30641010977E+03  0.34409006628E+03  0.12509171401E+03 0.  0.
          5    1    3    3  502    0  0.42263508958E+02  0.64970304297E+02 -0.30292342372E+03  0.31270979784E+03  0.41800000000E+01 0. -1.
         -5    1    3    3    0  502 -0.17095042966E+02  0.25745900129E+02 -0.34866860560E+01  0.31380268436E+02  0.41800000000E+01 0. -1.
        -11    1    1    2    0    0 -0.35904353324E+02 -0.20789718954E+02 -0.12814329200E+03  0.13469238392E+03  0.00000000000E+00 0.  1.
         11    1    1    2    0    0  0.10735887332E+02 -0.69926485472E+02 -0.20339642095E+03  0.21534873276E+03  0.00000000000E+00 0. -1.
</event>
<event>
 7    1  0.8653652E-006  0.1297920E+03  0.7561462E-02  0.1227765E+00
          1   -1    0    0  501    0  0.00000000000E+00  0.00000000000E+00  0.12729155529E+03  0.12729155529E+03  0.00000000000E+00 0. -1.
         -1   -1    0    0    0  501 -0.00000000000E+00 -0.00000000000E+00 -0.16754133675E+03  0.16754133675E+03  0.00000000000E+00 0.  1.
         23    2    1    2    0    0 -0.41977441676E+02 -0.73032667014E+02 -0.70388323745E+02  0.16642818675E+03  0.12509176297E+03 0.  0.
          5    1    3    3  502    0  0.25430451921E+02  0.15603394959E+02 -0.41549306185E+02  0.51322422620E+02  0.41800000000E+01 0. -1.
         -5    1    3    3    0  502 -0.67407893596E+02 -0.88636061973E+02 -0.28839017559E+02  0.11510576413E+03  0.41800000000E+01 0. -1.
        -11    1    1    2    0    0  0.54830832853E+02  0.12629266426E+02 -0.64320235813E+01  0.56632936787E+02  0.00000000000E+00 0.  1.
         11    1    1    2    0    0 -0.12853391177E+02  0.60403400588E+02  0.36570565859E+02  0.71771768507E+02  0.00000000000E+00 0. -1.
</event>
<event>
 7    1  0.8653652E-006  0.1252612E+03  0.7561462E-02  0.1234662E+00
          2   -1    0    0  501    0  0.00000000000E+00  0.00000000000E+00  0.51125284430E+03  0.51125284430E+03  0.00000000000E+00 0.  1.
         -2   -1    0    0    0  501 -0.00000000000E+00 -0.00000000000E+00 -0.31710850253E+02  0.31710850253E+02  0.00000000000E+00 0. -1.
         23    2    1    2    0    0  0.61235328204E+02  0.24092566714E+02  0.24335289247E+03  0.28142584341E+03  0.12509859263E+03 0.  0.
          5    1    3    3  502    0  0.11046605108E+02  0.69451757900E+02  0.94512705171E+02  0.11788001526E+03  0.41800000000E+01 0. -1.
         -5    1    3    3    0  502  0.50188723096E+02 -0.45359191185E+02  0.14884018730E+03  0.16354582815E+03  0.41800000000E+01 0. -1.
        -11    1    1    2    0    0 -0.99271804779E+01  0.33630801725E+02  0.76515087689E+02  0.84167323713E+02  0.00000000000E+00 0.  1.
         11    1    1    2    0    0 -0.51308147726E+02 -0.57723368440E+02  0.15967401389E+03  0.17737052742E+03  0.00000000000E+00 0. -1.
</event>
<event>
 7    1  0.8653652E-006  0.6259957E+02  0.7561462E-02  0.1387235E+00
          2   -1    0    0  501    0  0.00000000000E+00  0.00000000000E+00  0.69968801613E+02  0.69968801613E+02  0.00000000000E+00 0. -1.
         -2   -1    0    0    0  501 -0.00000000000E+00 -0.00000000000E+00 -0.22759395096E+03  0.22759395096E+03  0.00000000000E+00 0.  1.
         23    2    1    2    0    0  0.24598939482E+02 -0.28946467226E+02 -0.14933201488E+03  0.19846856408E+03  0.12508682773E+03 0.  0.
          5    1    3    3  502    0  0.11444083529E+02 -0.35786965163E+01  0.21631351862E+02  0.25083099887E+02  0.41800000000E+01 0.  1.
         -5    1    3    3    0  502  0.13154855952E+02 -0.25367770710E+02 -0.17096336675E+03  0.17338546420E+03  0.41800000000E+01 0.  1.
        -11    1    1    2    0    0 -0.46225124402E+02  0.38327324505E+02 -0.29932666300E+02  0.67094786992E+02  0.00000000000E+00 0.  1.
         11    1    1    2    0    0  0.21626184921E+02 -0.93808572788E+01  0.21639531842E+02  0.31999401492E+02  0.00000000000E+00 0. -1.
</event>
<event>
 7    1  0.8653652E-006  0.1054215E+03  0.7561462E-02  0.1269291E+00
          1   -1    0    0  501    0  0.00000000000E+00  0.00000000000E+00  0.34985788526E+03  0.34985788526E+03  0.00000000000E+00 0. -1.
         -1   -1    0    0    0  501 -0.00000000000E+00 -0.00000000000E+00 -0.62300243673E+02  0.62300243673E+02  0.00000000000E+00 0.  1.
         23    2    1    2    0    0 -0.58333123595E+02  0.58549515161E+02  0.83528979183E+02  0.17162407191E+03  0.12508769988E+03 0.  0.
          5    1    3    3  502    0 -0.23964238732E+02  0.56593849050E+01  0.10259954828E+03  0.10559570580E+03  0.41800000000E+01 0.  1.
         -5    1    3    3    0  502 -0.34368884864E+02  0.52890130256E+02 -0.19070569099E+02  0.66028366109E+02  0.41800000000E+01 0.  1.
        -11    1    1    2    0    0 -0.22090776669E+02  0.17117814596E+01  0.15986280847E+02  0.27322038447E+02  0.00000000000E+00 0.  1.
         11    1    1    2    0    0  0.80423900265E+02 -0.60261296620E+02  0.18804238155E+03  0.21321201857E+03  0.00000000000E+00 0. -1.
</event>
<event>
 7    1  0.8653652E-006  0.1047532E+03  0.7561462E-02  0.1270607E+00
         -3   -1    0    0    0  501 -0.00000000000E+00  0.00000000000E+00  0.12877797856E+03  0.12877797856E+03  0.00000000000E+00 0.  1.
          3   -1    0    0  501    0  0.00000000000E+00 -0.00000000000E+00 -0.21511280014E+03  0.21511280014E+03  0.00000000000E+00 0. -1.
         23    2    1    2    0    0 -0.10391668177E+02 -0.61901747938E+02  0.67880642279E+02  0.15554502178E+03  0.12508660615E+03 0.  0.
          5    1    3    3  502    0  0.55557507668E+02 -0.34667653337E+02  0.16925279387E+02  0.67767398715E+02  0.41800000000E+01 0. -1.
         -5    1    3    3    0  502 -0.65949175845E+02 -0.27234094601E+02  0.50955362892E+02  0.87777623064E+02  0.41800000000E+01 0. -1.
        -11    1    1    2    0    0 -0.11299482526E+02  0.40089283850E+02 -0.15188871640E+03  0.15749606711E+03  0.00000000000E+00 0. -1.
         11    1    1    2    0    0  0.21691150702E+02  0.21812464088E+02 -0.23267474631E+01  0.30849689823E+02  0.00000000000E+00 0.  1.
</event>
<event>
 7    1  0.8653652E-006  0.1310185E+03  0.7561462E-02  0.1225952E+00
          2   -1    0    0  501    0  0.00000000000E+00  0.00000000000E+00  0.23590474022E+02  0.23590474022E+02  0.00000000000E+00 0. -1.
         -2   -1    0    0    0  501 -0.00000000000E+00 -0.00000000000E+00 -0.82934827906E+03  0.82934827906E+03  0.00000000000E+00 0.  1.
         23    2    1    2    0    0 -0.74029348866E+02  0.54575538059E+01 -0.57706083185E+03  0.59511177545E+03  0.12509473303E+03 0.  0.
          5    1    3    3  502    0  0.12350218849E+02 -0.42308885043E+02 -0.23199149376E+03  0.23617810067E+03  0.41800000000E+01 0.  1.
         -5    1    3    3    0  502 -0.86379567714E+02  0.47766438849E+02 -0.34506933809E+03  0.35893367477E+03  0.41800000000E+01 0.  1.
        -11    1    1    2    0    0 -0.26530733261E+01  0.33053274010E+02 -0.68020744602E+02  0.75672844648E+02  0.00000000000E+00 0.  1.
         11    1    1    2    0    0  0.76682422192E+02 -0.38510827816E+02 -0.16067622859E+03  0.18215413299E+03  0.00000000000E+00 0. -1.
</event>
<event>
 6    1  0.8653652E-006  0.1177539E+03  0.7561462E-02  0.1246849E+00
          1   -1    0    0  501    0  0.00000000000E+00  0.00000000000E+00  0.11462863444E+03  0.11462863444E+03  0.00000000000E+00 0. -1.
         -1   -1    0    0    0  501 -0.00000000000E+00 -0.00000000000E+00 -0.14334076887E+03  0.14334076887E+03  0.00000000000E+00 0.  1.
          5    1    1    2  502    0  0.46288006988E+02 -0.30905858361E+02  0.13433701607E+01  0.55830356575E+02  0.41800000000E+01 0. -1.
         -5    1    1    2    0  502 -0.81108674805E+02  0.50791484844E+02 -0.38744953368E+02  0.10332974341E+03  0.41800000000E+01 0.  1.
        -11    1    1    2    0    0 -0.23217865010E+02 -0.87122000853E+01  0.27263955832E+02  0.36855053568E+02  0.00000000000E+00 0.  1.
         11    1    1    2    0    0  0.58038532826E+02 -0.11173426398E+02 -0.18574507056E+02  0.61954249753E+02  0.00000000000E+00 0. -1.
</event>
<event>
 7    1  0.8653652E-006  0.1233031E+03  0.7561462E-02  0.1237745E+00
         -1   -1    0    0    0  501 -0.00000000000E+00  0.00000000000E+00  0.55427123897E+03  0.55427123897E+03  0.00000000000E+00 0.  1.
          1   -1    0    0  501    0  0.00000000000E+00 -0.00000000000E+00 -0.28162457106E+02  0.28162457106E+02  0.00000000000E+00 0. -1.
         23    2    1    2    0    0 -0.25168262169E+02 -0.49392691602E+02  0.29551089399E+03  0.32564827391E+03  0.12508809068E+03 0.  0.
          5    1    3    3  502    0 -0.65143821415E+02  0.56259406250E+01  0.11018082776E+03  0.12818992114E+03  0.41800000000E+01 0. -1.
         -5    1    3    3    0  502  0.39975559246E+02 -0.55018632227E+02  0.18533006623E+03  0.19745835277E+03  0.41800000000E+01 0. -1.
        -11    1    1    2    0    0 -0.18581295962E+01 -0.29498942983E+02  0.62749155370E+02  0.69362070199E+02  0.00000000000E+00 0.  1.
         11    1    1    2    0    0  0.27026391765E+02  0.78891634585E+02  0.16784873251E+03  0.18742335197E+03  0.00000000000E+00 0. -1.
</event>
<event>
 7    1  0.8653652E-006  0.6989447E+02  0.7561462E-02  0.1360452E+00
          1   -1    0    0  501    0  0.00000000000E+00  0.00000000000E+00  0.20248246862E+03  0.20248246862E+03  0.00000000000E+00 0. -1.
         -1   -1    0    0    0  501 -0.00000000000E+00 -0.00000000000E+00 -0.69630421148E+02  0.69630421148E+02  0.00000000000E+00 0.  1.
         23    2    1    2    0    0 -0.19768928585E+02 -0.66373052429E+01  0.26836856341E+02  0.12960277125E+03  0.12506717035E+03 0.  0.
          5    1    3    3  502    0  0.12410719434E+01  0.15764172546E+02  0.72550774025E+02  0.74371611569E+02  0.41800000000E+01 0.  1.
         -5    1    3    3    0  502 -0.21010000529E+02 -0.22401477789E+02 -0.45713917685E+02  0.55231159678E+02  0.41800000000E+01 0.  1.
        -11    1    1    2    0    0 -0.32951047608E+02  0.19341670795E+02  0.27449690220E+02  0.47046331002E+02  0.00000000000E+00 0.  1.
         11    1    1    2    0    0  0.52719976193E+02 -0.12704365552E+02  0.78565500908E+02  0.95463787516E+02  0.00000000000E+00 0. -1.
</event>
<event>
 7    1  0.8653652E-006  0.1116674E+03  0.7561462E-02  0.1257513E+00
          2   -1    0    0  501    0  0.00000000000E+00  0.00000000000E+00  0.50891290540E+03  0.50891290540E+03  0.00000000000E+00 0. -1.
         -2   -1    0    0    0  501 -0.00000000000E+00 -0.00000000000E+00 -0.34317800421E+02  0.34317800421E+02  0.00000000000E+00 0.  1.
         23    2    1    2    0    0 -0.50519210799E+02  0.52767861831E+02  0.21928982546E+03  0.26281612517E+03  0.12509056798E+03 0.  0.
          5    1    3    3  502    0 -0.38659588146E+02  0.73750291854E+02  0.22299864497E+03  0.23807464662E+03  0.41800000000E+01 0. -1.
         -5    1    3    3    0  502 -0.11859622653E+02 -0.20982430024E+02 -0.37088195020E+01  0.24741478559E+02  0.41800000000E+01 0. -1.
        -11    1    1    2    0    0  0.65735917849E+02 -0.56417538868E+01  0.15832074122E+03  0.17151821298E+03  0.00000000000E+00 0.  1.
         11    1    1    2    0    0 -0.15216707050E+02 -0.47126107944E+02  0.96984538290E+02  0.10889636767E+03  0.00000000000E+00 0. -1.
</event>
<event>
 7    1  0.8653652E-006  0.9906999E+02  0.7561462E-02  0.1282264E+00
         -2   -1    0    0    0  501 -0.00000000000E+00  0.00000000000E+00  0.43095564054E+03  0.43095564054E+03  0.00000000000E+00 0.  1.
          2   -1    0    0  501    0  0.00000000000E+00 -0.00000000000E+00 -0.36049493398E+02  0.36049493398E+02  0.00000000000E+00 0. -1.
         23    2    1    2    0    0  0.38420702626E+02 -0.41079108999E+02  0.28543998469E+03  0.31667898403E+03  0.12508377385E+03 0.  0.
          5    1    3    3  502    0 -0.28807160517E+02 -0.49590847440E+01  0.10542190518E+02  0.31353711095E+02  0.41800000000E+01 0.  1.
         -5    1    3    3    0  502  0.67227863143E+02 -0.36120024255E+02  0.27489779417E+03  0.28532527294E+03  0.41800000000E+01 0.  1.
        -11    1    1    2    0    0 -0.16958588900E+02  0.60746954434E+02  0.39176709223E+02  0.74246890548E+02  0.00000000000E+00 0. -1.
         11    1    1    2    0    0 -0.21462113725E+02 -0.19667845435E+02  0.70289453232E+02  0.76079259363E+02  0.00000000000E+00 0.  1.
</event>
<event>
 7    1  0.8653652E-006  0.1301847E+03  0.7561462E-02  0.1227182E+00
          1   -1    0    0  501    0  0.00000000000E+00  0.00000000000E+00  0.32841764503E+03  0.32841764503E+03  0.00000000000E+00 0. -1.
         -1   -1    0    0    0  501 -0.00000000000E+00 -0.00000000000E+00 -0.68785382505E+02  0.68785382505E+02  0.00000000000E+00 0.  1.
         23    2    1    2    0    0  0.17987135574E+02 -0.97989876344E+02  0.10642093357E+03  0.19209523996E+03  0.12509841405E+03 0.  0.
          5    1    3    3  502    0 -0.42767338897E+02 -0.81069285790E+02  0.39052326748E+02  0.99718759515E+02  0.41800000000E+01 0.  1.
         -5    1    3    3    0  502  0.60754474471E+02 -0.16920590554E+02  0.67368606825E+02  0.92376480440E+02  0.41800000000E+01 0.  1.
        -11    1    1    2    0    0 -0.35714142766E+01  0.87522734562E+02  0.16280477028E+03  0.18487394973E+03  0.00000000000E+00 0. -1.
         11    1    1    2    0    0 -0.14415721297E+02  0.10467141782E+02 -0.95934413232E+01  0.20233837847E+02  0.00000000000E+00 0.  1.
</event>
<event>
 7    1  0.8653652E-006  0.1082939E+03  0.7561462E-02  0.1263762E+00
         -2   -1    0    0    0  501 -0.00000000000E+00  0.00000000000E+00  0.23992706141E+02  0.23992706141E+02  0.00000000000E+00 0.  1.
          2   -1    0    0  501    0  0.00000000000E+00 -0.00000000000E+00 -0.60864518742E+03  0.60864518742E+03  0.00000000000E+00 0. -1.
         23    2    1    2    0    0 -0.47697102570E+02 -0.10052871462E+02 -0.28702499756E+03  0.31687098606E+03  0.12509116181E+03 0.  0.
          5    1    3    3  502    0  0.12196367774E+02  0.48214869966E+02 -0.92206055384E+02  0.10484681265E+03  0.41800000000E+01 0.  1.
         -5    1    3    3    0  502 -0.59893470344E+02 -0.58267741428E+02 -0.19481894217E+03  0.21202417341E+03  0.41800000000E+01 0.  1.
        -11    1    1    2    0    0 -0.15747804389E+01 -0.23403788070E+02 -0.17205892869E+02  0.29090547930E+02  0.00000000000E+00 0.  1.
         11    1    1    2    0    0  0.49271883009E+02  0.33456659531E+02 -0.28042159085E+03  0.28667635957E+03  0.00000000000E+00 0. -1.
</event>
<event>
 7    1  0.8653652E-006  0.1347832E+03  0.7561462E-02  0.1220526E+00
         -3   -1    0    0    0  501 -0.00000000000E+00  0.00000000000E+00  0.29637149513E+03  0.29637149513E+03  0.00000000000E+00 0.  1.
          3   -1    0    0  501    0  0.00000000000E+00 -0.00000000000E+00 -0.66929165329E+02  0.66929165329E+02  0.00000000000E+00 0. -1.
         23    2    1    2    0    0 -0.36814180306E+02  0.74109660136E+02  0.15466232217E+03  0.21544234920E+03  0.12508975311E+03 0.  0.
          5    1    3    3  502    0 -0.49053133792E+02 -0.21263224813E+02  0.51402012211E+02  0.74283066197E+02  0.41800000000E+01 0. -1.
         -5    1    3    3    0  502  0.12238953486E+02  0.95372884949E+02  0.10326030996E+03  0.14115928300E+03  0.41800000000E+01 0. -1.
        -11    1    1    2    0    0  0.52774512978E+02 -0.10109730700E+02  0.59459746823E+02  0.80142481664E+02  0.00000000000E+00 0.  1.
         11    1    1    2    0    0 -0.15960332672E+02 -0.63999929436E+02  0.15320260815E+02  0.67715829599E+02  0.00000000000E+00 0. -1.
</event>
<event>
 7    1  0.8653652E-006  0.9063418E+02  0.7561462E-02  0.1301323E+00
          2   -1    0    0  501    0  0.00000000000E+00  0.00000000000E+00  0.27530789619E+03  0.27530789619E+03  0.00000000000E+00 0. -1.
         -2   -1    0    0    0  501 -0.00000000000E+00 -0.00000000000E+00 -0.48842097604E+02  0.48842097604E+02  0.00000000000E+00 0.  1.
         23    2    1    2    0    0 -0.15636682648E+02  0.37874784191E+02  0.11994644924E+03  0.17808383112E+03  0.12509074746E+03 0.  0.
          5    1    3    3  502    0  0.12568120804E+02 -0.16026640480E+02  0.11504527281E+03  0.11690893064E+03  0.41800000000E+01 0. -1.
         -5    1    3    3    0  502 -0.28204803453E+02  0.53901424671E+02  0.49011764267E+01  0.61174900488E+02  0.41800000000E+01 0. -1.
        -11    1    1    2    0    0 -0.22748313011E+01 -0.66062440359E+02  0.77122641324E+02  0.10157422256E+03  0.00000000000E+00 0. -1.
         11    1    1    2    0    0  0.17911513950E+02  0.28187656168E+02  0.29396708019E+02  0.44491940108E+02  0.00000000000E+00 0.  1.
</event>
<event>
 7    1  0.8653652E-006  0.1030542E+03  0.7561462E-02  0.1274001E+00
          2   -1    0    0  501    0  0.00000000000E+00  0.00000000000E+00  0.29251240419E+03  0.29251240419E+03  0.00000000000E+00 0. -1.
         -2   -1    0    0    0  501 -0.00000000000E+00 -0.00000000000E+00 -0.42418228969E+02  0.42418228969E+02  0.00000000000E+00 0.  1.
         23    2    1    2    0    0 -0.30093978403E+02 -0.30052905283E+02  0.10650702830E+03  0.16014984729E+03  0.11178283346E+03 0.  0.
          5    1    3    3  502    0 -0.12317960089E+02  0.42616283410E+02  0.36354342005E+02  0.57506437336E+02  0.41800000000E+01 0. -1.
         -5    1    3    3    0  502 -0.17776018314E+02 -0.72669188693E+02  0.70152686295E+02  0.10264340995E+03  0.41800000000E+01 0.  1.
        -11    1    1    2    0    0 -0.14865798821E+00  0.50253718581E+02  0.12327381788E+03  0.13312359861E+03  0.00000000000E+00 0. -1.
         11    1    1    2    0    0  0.30242636391E+02 -0.20200813298E+02  0.20313329033E+02  0.41657187257E+02  0.00000000000E+00 0.  1.
</event>
<event>
 7    1  0.8653652E-006  0.1010269E+03  0.7561462E-02  0.1278151E+00
          2   -1    0    0  501    0  0.00000000000E+00  0.00000000000E+00  0.50114755626E+03  0.50114755626E+03  0.00000000000E+00 0. -1.
         -2   -1    0    0    0  501 -0.00000000000E+00 -0.00000000000E+00 -0.32234368985E+02  0.32234368985E+02  0.00000000000E+00 0.  1.
         23    2    1    2    0    0 -0.28907809151E+02 -0.39223954852E+02  0.16920693181E+03  0.21599841134E+03  0.12510055101E+03 0.  0.
          5    1    3    3  502    0 -0.39247737419E+02  0.15904308645E+02  0.55106400533E+01  0.42908874138E+02  0.41800000000E+01 0.  1.
         -5    1    3    3    0  502  0.10339928268E+02 -0.55128263496E+02  0.16369629176E+03  0.17308953720E+03  0.41800000000E+01 0.  1.
        -11    1    1    2    0    0 -0.11100188736E+02  0.58005517202E+02  0.14730492061E+03  0.15870284765E+03  0.00000000000E+00 0.  1.
         11    1    1    2    0    0  0.40007997887E+02 -0.18781562350E+02  0.15240133485E+03  0.15868066626E+03  0.00000000000E+00 0. -1.
</event>
<event>
 7    1  0.8653652E-006  0.1095603E+03  0.7561462E-02  0.1261386E+00
         -1   -1    0    0    0  501 -0.00000000000E+00  0.00000000000E+00  0.30608235418E+02  0.30608235418E+02  0.00000000000E+00 0.  1.
          1   -1    0    0  501    0  0.00000000000E+00 -0.00000000000E+00 -0.63013944721E+03  0.63013944721E+03  0.00000000000E+00 0. -1.
         23    2    1    2    0    0  0.24171666768E+02  0.82890162252E+02 -0.33094161521E+03  0.36417707463E+03  0.12509012966E+03 0.  0.
          5    1    3    3  502    0  0.37102676467E+02  0.25063177881E+02 -0.22907928671E+02  0.50467980765E+02  0.41800000000E+01 0. -1.
         -5    1    3    3    0  502 -0.12931009699E+02  0.57826984371E+02 -0.30803368654E+03  0.31370909387E+03  0.41800000000E+01 0. -1.
        -11    1    1    2    0    0 -0.13226127610E+02 -0.96433044086E+02 -0.16534390991E+03  0.19186680533E+03  0.00000000000E+00 0.  1.
         11    1    1    2    0    0 -0.10945539158E+02  0.13542881834E+02 -0.10324568668E+03  0.10470380267E+03  0.00000000000E+00 0. -1.
</event>
<event>
 7    1  0.8653652E-006  0.1354170E+03  0.7561462E-02  0.1219632E+00
          2   -1    0    0  501    0  0.00000000000E+00  0.00000000000E+00  0.25169348227E+03  0.25169348227E+03  0.00000000000E+00 0. -1.
         -2   -1    0    0    0  501 -0.00000000000E+00 -0.00000000000E+00 -0.81973569119E+02  0.81973569119E+02  0.00000000000E+00 0.  1.
         23    2    1    2    0    0  0.86775988772E+02 -0.24236622911E+02  0.58000212948E+02  0.16470574095E+03  0.12508585165E+03 0.  0.
          5    1    3    3  502    0 -0.26559699453E+02 -0.15448786990E+02 -0.95023891868E+01  0.32432244060E+02  0.41800000000E+01 0.  1.
         -5    1    3    3    0  502  0.11333568823E+03 -0.87878359214E+01  0.67502602135E+02  0.13227349689E+03  0.41800000000E+01 0.  1.
        -11    1    1    2    0    0 -0.36496198000E+02 -0.33479938537E+02  0.35466748621E+02  0.60916081708E+02  0.00000000000E+00 0. -1.
         11    1    1    2    0    0 -0.50279790772E+02  0.57716561449E+02  0.76252951578E+02  0.10804522872E+03  0.00000000000E+00 0.  1.
</event>
<event>
 7    1  0.8653652E-006  0.1240926E+03  0.7561462E-02  0.1236494E+00
          1   -1    0    0  501    0  0.00000000000E+00  0.00000000000E+00  0.36710198089E+03  0.36710198089E+03  0.00000000000E+00 0. -1.
         -1   -1    0    0    0  501 -0.00000000000E+00 -0.00000000000E+00 -0.13797676659E+03  0.13797676659E+03  0.00000000000E+00 0.  1.
         23    2    1    2    0    0 -0.88345585073E+02 -0.28032472740E+02 -0.78466483243E+02  0.17051135327E+03  0.11969281796E+03 0.  0.
          5    1    3    3  502    0 -0.38895408622E+02 -0.51784391397E+02  0.10662113456E+02  0.65769514728E+02  0.41800000000E+01 0. -1.
         -5    1    3    3    0  502 -0.49450176451E+02  0.23751918657E+02 -0.89128596699E+02  0.10474183854E+03  0.41800000000E+01 0.  1.
        -11    1    1    2    0    0  0.27432805336E+02 -0.32406538000E+02  0.13982534810E+03  0.14612963589E+03  0.00000000000E+00 0.  1.
         11    1    1    2    0    0  0.60912779737E+02  0.60439010739E+02  0.16776634945E+03  0.18843775832E+03  0.00000000000E+00 0. -1.
</event>
<event>
 7    1  0.8653652E-006  0.1512738E+03  0.7561462E-02  0.1198916E+00
          2   -1    0    0  501    0  0.00000000000E+00  0.00000000000E+00  0.63338243529E+03  0.63338243529E+03  0.00000000000E+00 0. -1.
         -2   -1    0    0    0  501 -0.00000000000E+00 -0.00000000000E+00 -0.53975043534E+02  0.53975043534E+02  0.00000000000E+00 0.  1.
         23    2    1    2    0    0  0.14274835161E+02 -0.12634917270E+03  0.15951163760E+03  0.23929667110E+03  0.12510415625E+03 0.  0.
          5    1    3    3  502    0 -0.31920638491E+02 -0.10093822282E+02  0.90015776563E+02  0.96130769477E+02  0.41800000000E+01 0. -1.
         -5    1    3    3    0  502  0.46195473652E+02 -0.11625535042E+03  0.69495861033E+02  0.14316590162E+03  0.41800000000E+01 0. -1.
        -11    1    1    2    0    0 -0.86182426677E+01 -0.64235727877E+01  0.40330934959E+01  0.11480515545E+02  0.00000000000E+00 0.  1.
         11    1    1    2    0    0 -0.56565924932E+01  0.13277274549E+03  0.41586266066E+03  0.43658029218E+03  0.00000000000E+00 0. -1.
</event>
<event>
 6    1  0.8653652E-006  0.1215000E+03  0.7561462E-02  0.1240643E+00
          2   -1    0    0  501    0  0.00000000000E+00  0.00000000000E+00  0.86843535618E+03  0.86843535618E+03  0.00000000000E+00 0. -1.
         -2   -1    0    0    0  501 -0.00000000000E+00 -0.00000000000E+00 -0.32202939503E+02  0.32202939503E+02  0.00000000000E+00 0.  1.
          5    1    1    2  502    0  0.18816300989E+02 -0.71407556669E+02  0.21228153057E+03  0.22479771563E+03  0.41800000000E+01 0. -1.
         -5    1    1    2    0  502  0.44419053694E+02  0.19486984977E+02  0.93603533655E+01  0.49577046400E+02  0.41800000000E+01 0.  1.
        -11    1    1    2    0    0 -0.26142269954E+02  0.73102503794E+02  0.39705196748E+03  0.40457095696E+03  0.00000000000E+00 0.  1.
         11    1    1    2    0    0 -0.37093084729E+02 -0.21181932102E+02  0.21753856527E+03  0.22169257669E+03  0.00000000000E+00 0. -1.
</event>
<event>
 7    1  0.8653652E-006  0.2178592E+03  0.7561462E-02  0.1135489E+00
          1   -1    0    0  501    0  0.00000000000E+00  0.00000000000E+00  0.20663427258E+03  0.20663427258E+03  0.00000000000E+00 0. -1.
         -1   -1    0    0    0  501 -0.00000000000E+00 -0.00000000000E+00 -0.28201272451E+03  0.28201272451E+03  0.00000000000E+00 0.  1.
         23    2    1    2    0    0 -0.20764263444E+03 -0.49943397018E+02 -0.25636112420E+02  0.24882523297E+03  0.12508788816E+03 0.  0.
          5    1    3    3  502    0 -0.83802199764E+02 -0.37664607432E+02  0.48430245483E+02  0.10394417933E+03  0.41800000000E+01 0.  1.
         -5    1    3    3    0  502 -0.12384043467E+03 -0.12278789586E+02 -0.74066357903E+02  0.14488105365E+03  0.41800000000E+01 0.  1.
        -11    1    1    2    0    0  0.17847818035E+03  0.60131381345E+02 -0.72124098060E+02  0.20167332348E+03  0.00000000000E+00 0.  1.
         11    1    1    2    0    0  0.29164454087E+02 -0.10187984327E+02  0.22381758546E+02  0.38148440629E+02  0.00000000000E+00 0. -1.
</event>
<event>
 7    1  0.8653652E-006  0.9738134E+02  0.7561462E-02  0.1285901E+00
          3   -1    0    0  501    0  0.00000000000E+00  0.00000000000E+00  0.48977558732E+02  0.48977558732E+02  0.00000000000E+00 0. -1.
         -3   -1    0    0    0  501 -0.00000000000E+00 -0.00000000000E+00 -0.26030289494E+03  0.26030289494E+03  0.00000000000E+00 0.  1.
         23    2    1    2    0    0 -0.16600364949E+02  0.80979558874E+01 -0.16889268009E+03  0.20611443607E+03  0.11669307761E+03 0.  0.
          5    1    3    3  502    0 -0.36864045996E+02  0.54688725378E+02 -0.81344128455E+02  0.10480531573E+03  0.41800000000E+01 0. -1.
         -5    1    3    3    0  502  0.20263681048E+02 -0.46590769491E+02 -0.87548551637E+02  0.10130912035E+03  0.41800000000E+01 0.  1.
        -11    1    1    2    0    0 -0.28931536570E+02  0.69320932922E+01 -0.46329822518E+02  0.55059424082E+02  0.00000000000E+00 0.  1.
         11    1    1    2    0    0  0.45531901518E+02 -0.15030049180E+02  0.38971663986E+01  0.48106593521E+02  0.00000000000E+00 0. -1.
</event>
<event>
 7    1  0.8653652E-006  0.2509405E+03  0.7561462E-02  0.1112712E+00
          1   -1    0    0  501    0  0.00000000000E+00  0.00000000000E+00  0.42505781286E+03  0.42505781286E+03  0.00000000000E+00 0. -1.
         -1   -1    0    0    0  501 -0.00000000000E+00 -0.00000000000E+00 -0.19846341502E+03  0.19846341502E+03  0.00000000000E+00 0.  1.
         23    2    1    2    0    0  0.14287989562E+03  0.19925946806E+03 -0.39546914547E+01  0.27528562064E+03  0.12509010019E+03 0.  0.
          5    1    3    3  502    0  0.27827118600E+02  0.71204050330E+02  0.53893479321E+02  0.93628760679E+02  0.41800000000E+01 0. -1.
         -5    1    3    3    0  502  0.11505277702E+03  0.12805541773E+03 -0.57848170776E+02  0.18165685996E+03  0.41800000000E+01 0. -1.
        -11    1    1    2    0    0 -0.56873782707E+02 -0.13267143686E+03  0.88473772621E+02  0.16930429929E+03  0.00000000000E+00 0.  1.
         11    1    1    2    0    0 -0.86006112910E+02 -0.66588031195E+02  0.14207531668E+03  0.17893130795E+03  0.00000000000E+00 0. -1.
</event>
<event>
 7    1  0.8653652E-006  0.1033393E+03  0.7561462E-02  0.1273427E+00
         -4   -1    0    0    0  501 -0.00000000000E+00  0.00000000000E+00  0.10693057683E+03  0.10693057683E+03  0.00000000000E+00 0.  1.
          4   -1    0    0  501    0  0.00000000000E+00 -0.00000000000E+00 -0.11486159538E+03  0.11486159538E+03  0.00000000000E+00 0. -1.
         23    2    1    2    0    0  0.22130104523E+02  0.88520300175E+01  0.24243627716E+01  0.12736151755E+03  0.12508788373E+03 0.  0.
          5    1    3    3  502    0 -0.35417209464E+02  0.45502938973E+02 -0.74698271345E+01  0.58293798116E+02  0.41800000000E+01 0. -1.
         -5    1    3    3    0  502  0.57547313987E+02 -0.36650908955E+02  0.98941899061E+01  0.69067719437E+02  0.41800000000E+01 0. -1.
        -11    1    1    2    0    0  0.25482024012E+02 -0.19052900851E+02  0.19496607079E+02  0.37315737514E+02  0.00000000000E+00 0.  1.
         11    1    1    2    0    0 -0.47612128535E+02  0.10200870834E+02 -0.29851988400E+02  0.57114917148E+02  0.00000000000E+00 0. -1.
</event>
<event>
 7    1  0.8653652E-006  0.8947039E+02  0.7561462E-02  0.1304139E+00
         -2   -1    0    0    0  501 -0.00000000000E+00  0.00000000000E+00  0.26908424525E+02  0.26908424525E+02  0.00000000000E+00 0. -1.
          2   -1    0    0  501    0  0.00000000000E+00 -0.00000000000E+00 -0.51954716050E+03  0.51954716050E+03  0.00000000000E+00 0.  1.
         23    2    1    2    0    0 -0.27260748440E+02 -0.34810652711E+02 -0.22440046559E+03  0.26068746367E+03  0.12508978700E+03 0.  0.
          5    1    3    3  502    0 -0.51277109502E+02 -0.48015119203E+02 -0.55766047203E+02  0.89789298091E+02  0.41800000000E+01 0. -1.
         -5    1    3    3    0  502  0.24016361062E+02  0.13204466493E+02 -0.16863441838E+03  0.17089816558E+03  0.41800000000E+01 0. -1.
        -11    1    1    2    0    0  0.31932472563E+02 -0.11768211721E+02 -0.38831926349E+02  0.51634214578E+02  0.00000000000E+00 0.  1.
         11    1    1    2    0    0 -0.46717241229E+01  0.46578864432E+02 -0.22940634404E+03  0.23413390678E+03  0.00000000000E+00 0. -1.
</event>
<event>
 7    1  0.8653652E-006  0.1048580E+03  0.7561462E-02  0.1270400E+00
          3   -1    0    0  501    0  0.00000000000E+00  0.00000000000E+00  0.70849733132E+02  0.70849733132E+02  0.00000000000E+00 0. -1.
         -3   -1    0    0    0  501 -0.00000000000E+00 -0.00000000000E+00 -0.22764994349E+03  0.22764994349E+03  0.00000000000E+00 0.  1.
         23    2    1    2    0    0 -0.27020544853E+02 -0.31437062840E+02 -0.14949067216E+03  0.19928214172E+03  0.12509001632E+03 0.  0.
          5    1    3    3  502    0 -0.64554612372E+02  0.21142006337E+00 -0.13199421871E+03  0.14699417964E+03  0.41800000000E+01 0.  1.
         -5    1    3    3    0  502  0.37534067520E+02 -0.31648482904E+02 -0.17496453450E+02  0.52287962075E+02  0.41800000000E+01 0.  1.
        -11    1    1    2    0    0  0.58365767051E+02  0.14569875784E+02 -0.16647424147E+02  0.62417792131E+02  0.00000000000E+00 0.  1.
         11    1    1    2    0    0 -0.31345222198E+02  0.16867187056E+02  0.93378859482E+01  0.36799742769E+02  0.00000000000E+00 0. -1.
</event>
<event>
 7    1  0.8653652E-006  0.1164695E+03  0.7561462E-02  0.1249038E+00
         -2   -1    0    0    0  501 -0.00000000000E+00  0.00000000000E+00  0.13632240072E+03  0.13632240072E+03  0.00000000000E+00 0.  1.
          2   -1    0    0  501    0  0.00000000000E+00 -0.00000000000E+00 -0.16488544101E+03  0.16488544101E+03  0.00000000000E+00 0. -1.
         23    2    1    2    0    0 -0.44394915838E+02 -0.71658621012E+02  0.44352800561E+02  0.15722646502E+03  0.12508846417E+03 0.  0.
          5    1    3    3  502    0 -0.72374522167E+02 -0.88214063018E+02  0.48754101694E+02  0.12415404627E+03  0.41800000000E+01 0. -1.
         -5    1    3    3    0  502  0.27979606329E+02  0.16555442006E+02 -0.44013011328E+01  0.33072418750E+02  0.41800000000E+01 0. -1.
        -11    1    1    2    0    0  0.15239855475E+02  0.40672667967E+02 -0.88570326372E+02  0.98646955494E+02  0.00000000000E+00 0. -1.
         11    1    1    2    0    0  0.29155060362E+02  0.30985953045E+02  0.15654485519E+02  0.45334421224E+02  0.00000000000E+00 0.  1.
</event>
<event>
 7    1  0.8653652E-006  0.1163290E+03  0.7561462E-02  0.1249279E+00
          1   -1    0    0  501    0  0.00000000000E+00  0.00000000000E+00  0.80531680516E+03  0.80531680516E+03  0.00000000000E+00 0. -1.
         -1   -1    0    0    0  501 -0.00000000000E+00 -0.00000000000E+00 -0.26990021081E+02  0.26990021081E+02  0.00000000000E+00 0.  1.
         23    2    1    2    0    0 -0.29649846601E+02  0.78124297458E+02  0.25488924555E+03  0.29596571427E+03  0.12507860438E+03 0.  0.
          5    1    3    3  502    0 -0.50657049509E+02  0.79406287092E+02  0.25762481794E+03  0.27433467574E+03  0.41800000000E+01 0. -1.
         -5    1    3    3    0  502  0.21007202908E+02 -0.12819896339E+01 -0.27355723994E+01  0.21631038528E+02  0.41800000000E+01 0. -1.
        -11    1    1    2    0    0  0.16917000064E+02  0.15192625397E+02  0.10583707545E+03  0.10825196210E+03  0.00000000000E+00 0.  1.
         11    1    1    2    0    0  0.12732846537E+02 -0.93316922854E+02  0.41760046309E+03  0.42808914988E+03  0.00000000000E+00 0. -1.
</event>
<event>
 7    1  0.8653652E-006  0.8413228E+02  0.7561462E-02  0.1317717E+00
         -2   -1    0    0    0  501 -0.00000000000E+00  0.00000000000E+00  0.23947136916E+03  0.23947136916E+03  0.00000000000E+00 0.  1.
          2   -1    0    0  501    0  0.00000000000E+00 -0.00000000000E+00 -0.64695158174E+02  0.64695158174E+02  0.00000000000E+00 0. -1.
         23    2    1    2    0    0 -0.89637408671E+01  0.42368823791E+02  0.14931994614E+03  0.19954846089E+03  0.12509067132E+03 0.  0.
          5    1    3    3  502    0  0.18994468152E+02 -0.35548739110E+02  0.86581629311E+02  0.95594736292E+02  0.41800000000E+01 0. -1.
         -5    1    3    3    0  502 -0.27958209019E+02  0.77917562901E+02  0.62738316827E+02  0.10395372460E+03  0.41800000000E+01 0. -1.
        -11    1    1    2    0    0 -0.15562333573E+01 -0.20804060920E+02  0.59452923071E+02  0.63006990681E+02  0.00000000000E+00 0.  1.
         11    1    1    2    0    0  0.10519974224E+02 -0.21564762871E+02 -0.33996658224E+02  0.41611075758E+02  0.00000000000E+00 0. -1.
</event>
<event>
 7    1  0.8653652E-006  0.9580802E+02  0.7561462E-02  0.1289367E+00
          1   -1    0    0  501    0  0.00000000000E+00  0.00000000000E+00  0.15899445762E+03  0.15899445762E+03  0.00000000000E+00 0. -1.
         -1   -1    0    0    0  501 -0.00000000000E+00 -0.00000000000E+00 -0.90944859106E+02  0.90944859106E+02  0.00000000000E+00 0.  1.
         23    2    1    2    0    0  0.24313839301E+01 -0.28383900797E+02 -0.83280510450E+01  0.12856640128E+03  0.12509358757E+03 0.  0.
          5    1    3    3  502    0  0.24249326986E+02  0.44729660500E+02  0.38146410640E+01  0.51193713229E+02  0.41800000000E+01 0.  1.
         -5    1    3    3    0  502 -0.21817943056E+02 -0.73113561297E+02 -0.12142692109E+02  0.77372688052E+02  0.41800000000E+01 0.  1.
        -11    1    1    2    0    0  0.27216230529E+02  0.87373918881E+01 -0.81030958468E+01  0.29710694767E+02  0.00000000000E+00 0.  1.
         11    1    1    2    0    0 -0.29647614459E+02  0.19646508909E+02  0.84480745404E+02  0.91662220677E+02  0.00000000000E+00 0. -1.
</event>
<event>
 7    1  0.8653652E-006  0.1360811E+03  0.7561462E-02  0.1218702E+00
          2   -1    0    0  501    0  0.00000000000E+00  0.00000000000E+00  0.46458040800E+03  0.46458040800E+03  0.00000000000E+00 0. -1.
         -2   -1    0    0    0  501 -0.00000000000E+00 -0.00000000000E+00 -0.52961631691E+02  0.52961631691E+02  0.00000000000E+00 0.  1.
         23    2    1    2    0    0 -0.17036952353E+02 -0.10675081860E+03  0.17498651987E+03  0.24073467539E+03  0.12508759642E+03 0.  0.
          5    1    3    3  502    0  0.17005750511E+02  0.68621940002E+01 -0.97325313724E+01  0.21177342229E+02  0.41800000000E+01 0.  1.
         -5    1    3    3    0  502 -0.34042702864E+02 -0.11361301260E+03  0.18471905125E+03  0.21955733316E+03  0.41800000000E+01 0.  1.
        -11    1    1    2    0    0  0.26900495864E+02 -0.56682954915E+00  0.95589022229E+02  0.99303671353E+02  0.00000000000E+00 0. -1.
         11    1    1    2    0    0 -0.98635435112E+01  0.10731764815E+03  0.14104323420E+03  0.17750369295E+03  0.00000000000E+00 0.  1.
</event>
<event>
 7    1  0.8653652E-006  0.8986981E+02  0.7561462E-02  0.1303167E+00
          1   -1    0    0  501    0  0.00000000000E+00  0.00000000000E+00  0.30992742742E+02  0.30992742742E+02  0.00000000000E+00 0. -1.
         -1   -1    0    0    0  501 -0.00000000000E+00 -0.00000000000E+00 -0.44254894278E+03  0.44254894278E+03  0.00000000000E+00 0.  1.
         23    2    1    2    0    0 -0.52016518045E+01 -0.64257132254E+00 -0.33860587745E+03  0.35762816101E+03  0.11496299936E+03 0.  0.
          5    1    3    3  502    0  0.24887111541E+02 -0.35870981748E+02 -0.55557207367E+02  0.70782563833E+02  0.41800000000E+01 0. -1.
         -5    1    3    3    0  502 -0.30088763346E+02  0.35228410426E+02 -0.28304867009E+03  0.28684559717E+03  0.41800000000E+01 0.  1.
        -11    1    1    2    0    0  0.40233290457E+02  0.24383610595E+02 -0.31096932435E+02  0.56394124991E+02  0.00000000000E+00 0.  1.
         11    1    1    2    0    0 -0.35031638653E+02 -0.23741039272E+02 -0.41853390147E+02  0.59519399520E+02  0.00000000000E+00 0. -1.
</event>
<event>
 7    1  0.8653652E-006  0.8576041E+02  0.7561462E-02  0.1313456E+00
          1   -1    0    0  501    0  0.00000000000E+00  0.00000000000E+00  0.57024085677E+02  0.57024085677E+02  0.00000000000E+00 0. -1.
         -1   -1    0    0    0  501 -0.00000000000E+00 -0.00000000000E+00 -0.25621620937E+03  0.25621620937E+03  0.00000000000E+00 0.  1.
         23    2    1    2    0    0  0.71100168356E+01  0.33927584019E+02 -0.16531048836E+03  0.21018150138E+03  0.12508825951E+03 0.  0.
          5    1    3    3  502    0  0.67204458935E+01  0.66052357905E+02 -0.33568590883E+02  0.74514435324E+02  0.41800000000E+01 0. -1.
         -5    1    3    3    0  502  0.38957094216E+00 -0.32124773886E+02 -0.13174189748E+03  0.13566706606E+03  0.41800000000E+01 0. -1.
        -11    1    1    2    0    0  0.27641930894E+02 -0.23594388120E+02 -0.51273897785E+02  0.62847307726E+02  0.00000000000E+00 0.  1.
         11    1    1    2    0    0 -0.34751947730E+02 -0.10333195899E+02  0.17392262448E+02  0.40211485940E+02  0.00000000000E+00 0. -1.
</event>
<event>
 7    1  0.8653652E-006  0.1459069E+03  0.7561462E-02  0.1205595E+00
         -4   -1    0    0    0  501 -0.00000000000E+00  0.00000000000E+00  0.41242135498E+02  0.41242135498E+02  0.00000000000E+00 0.  1.
          4   -1    0    0  501    0  0.00000000000E+00 -0.00000000000E+00 -0.55203085892E+03  0.55203085892E+03  0.00000000000E+00 0. -1.
         23    2    1    2    0    0  0.28999522164E+02 -0.96148483736E+02 -0.21519392591E+03  0.26840641740E+03  0.12509226971E+03 0.  0.
          5    1    3    3  502    0 -0.81901178208E+01 -0.11663436597E+03 -0.14568153050E+03  0.18684548184E+03  0.41800000000E+01 0.  1.
         -5    1    3    3    0  502  0.37189639985E+02  0.20485882238E+02 -0.69512395404E+02  0.81560935552E+02  0.41800000000E+01 0.  1.
        -11    1    1    2    0    0 -0.43703848834E+02  0.10097228915E+02 -0.13236296853E+03  0.13975670242E+03  0.00000000000E+00 0.  1.
         11    1    1    2    0    0  0.14704326670E+02  0.86051254820E+02 -0.16323182898E+03  0.18510987460E+03  0.00000000000E+00 0. -1.
</event>
<event>
 7    1  0.8653652E-006  0.9448207E+02  0.7561462E-02  0.1292347E+00
         -1   -1    0    0    0  501 -0.00000000000E+00  0.00000000000E+00  0.58216556381E+02  0.58216556381E+02  0.00000000000E+00 0.  1.
          1   -1    0    0  501    0  0.00000000000E+00 -0.00000000000E+00 -0.26463252460E+03  0.26463252460E+03  0.00000000000E+00 0. -1.
         23    2    1    2    0    0 -0.50102314501E+01 -0.33968315973E+02 -0.49231679781E+02  0.13874900436E+03  0.12509428048E+03 0.  0.
          5    1    3    3  502    0  0.44817172966E+02 -0.37463341318E+02 -0.63748683232E+02  0.86564703830E+02  0.41800000000E+01 0.  1.
         -5    1    3    3    0  502 -0.49827404416E+02  0.34950253457E+01  0.14517003450E+02  0.52184300534E+02  0.41800000000E+01 0.  1.
        -11    1    1    2    0    0 -0.32481054140E+02  0.49245099591E+01 -0.18880814329E+02  0.37891355559E+02  0.00000000000E+00 0.  1.
         11    1    1    2    0    0  0.37491285590E+02  0.29043806013E+02 -0.13830347410E+03  0.14620872105E+03  0.00000000000E+00 0. -1.
</event>
<event>
 7    1  0.8653652E-006  0.1425000E+03  0.7561462E-02  0.1210004E+00
         -2   -1    0    0    0  501 -0.00000000000E+00  0.00000000000E+00  0.90313518252E+03  0.90313518252E+03  0.00000000000E+00 0.  1.
          2   -1    0    0  501    0  0.00000000000E+00 -0.00000000000E+00 -0.34856397658E+02  0.34856397658E+02  0.00000000000E+00 0. -1.
         23    2    1    2    0    0  0.11500123502E+03 -0.44718089594E+02  0.62730353728E+03  0.65144506202E+03  0.12508376934E+03 0.  0.
          5    1    3    3  502    0  0.96737484869E+01 -0.44028803349E+02  0.37897349985E+03  0.38166805331E+03  0.41800000000E+01 0. -1.
         -5    1    3    3    0  502  0.10532748653E+03 -0.68928624531E+00  0.24833003744E+03  0.26977700871E+03  0.41800000000E+01 0. -1.
        -11    1    1    2    0    0 -0.10944030575E+03  0.22914497891E+02  0.23911722065E+03  0.26396836922E+03  0.00000000000E+00 0.  1.
         11    1    1    2    0    0 -0.55609292677E+01  0.21803591703E+02  0.18580269342E+01  0.22578148940E+02  0.00000000000E+00 0. -1.
</event>
<event>
 7    1  0.8653652E-006  0.1757897E+03  0.7561462E-02  0.1171941E+00
         -1   -1    0    0    0  501 -0.00000000000E+00  0.00000000000E+00  0.18217020859E+03  0.18217020859E+03  0.00000000000E+00 0.  1.
          1   -1    0    0  501    0  0.00000000000E+00 -0.00000000000E+00 -0.21335680507E+03  0.21335680507E+03  0.00000000000E+00 0. -1.
         23    2    1    2    0    0  0.13989556725E+03 -0.76719462720E+02 -0.53154319953E+02  0.20959943388E+03  0.12509954138E+03 0.  0.
          5    1    3    3  502    0  0.12028860656E+03 -0.85963396837E+02  0.43832651255E+01  0.14797209155E+03  0.41800000000E+01 0.  1.
         -5    1    3    3    0  502  0.19606960688E+02  0.92439341164E+01 -0.57537585079E+02  0.61627342325E+02  0.41800000000E+01 0.  1.
        -11    1    1    2    0    0 -0.13936776909E+03  0.40167886434E+02  0.37620759293E+01  0.14508958397E+03  0.00000000000E+00 0.  1.
         11    1    1    2    0    0 -0.52779816478E+00  0.36551576286E+02  0.18205647548E+02  0.40837995819E+02  0.00000000000E+00 0. -1.
</event>
<event>
 7    1  0.8653652E-006  0.1955274E+03  0.7561462E-02  0.1153568E+00
          2   -1    0    0  501    0  0.00000000000E+00  0.00000000000E+00  0.10057856245E+04  0.10057856245E+04  0.00000000000E+00 0. -1.
         -2   -1    0    0    0  501 -0.00000000000E+00 -0.00000000000E+00 -0.53782117202E+02  0.53782117202E+02  0.00000000000E+00 0.  1.
         23    2    1    2    0    0 -0.16754944188E+03 -0.93712617477E+02  0.32601071906E+03  0.39847838623E+03  0.12508862937E+03 0.  0.
          5    1    3    3  502    0 -0.13368547875E+02 -0.10283183710E+02  0.14652053604E+03  0.14754728673E+03  0.41800000000E+01 0.  1.
         -5    1    3    3    0  502 -0.15418089401E+03 -0.83429433767E+02  0.17949018303E+03  0.25093109951E+03  0.41800000000E+01 0.  1.
        -11    1    1    2    0    0  0.30679953720E+02  0.41994846864E+02  0.76890249113E+02  0.92827458934E+02  0.00000000000E+00 0.  1.
         11    1    1    2    0    0  0.13686948816E+03  0.51717770613E+02  0.54910253909E+03  0.56826189651E+03  0.00000000000E+00 0. -1.
</event>
<event>
 7    1  0.8653652E-006  0.1361897E+03  0.7561462E-02  0.1218550E+00
         -2   -1    0    0    0  501 -0.00000000000E+00  0.00000000000E+00  0.48157907249E+02  0.48157907249E+02  0.00000000000E+00 0.  1.
          2   -1    0    0  501    0  0.00000000000E+00 -0.00000000000E+00 -0.46774962058E+03  0.46774962058E+03  0.00000000000E+00 0. -1.
         23    2    1    2    0    0  0.76681966747E+02  0.49553376449E+02 -0.14680691032E+03  0.21338969268E+03  0.12508889192E+03 0.  0.
          5    1    3    3  502    0 -0.21200041800E+02 -0.13341783289E+02 -0.68569759246E+02  0.73121332296E+02  0.41800000000E+01 0. -1.
         -5    1    3    3    0  502  0.97882008547E+02  0.62895159738E+02 -0.78237151073E+02  0.14026836038E+03  0.41800000000E+01 0. -1.
        -11    1    1    2    0    0 -0.67661067206E+02 -0.76509777223E+02 -0.22047349566E+03  0.24298215637E+03  0.00000000000E+00 0.  1.
         11    1    1    2    0    0 -0.90208995414E+01  0.26956400774E+02 -0.52311307346E+02  0.59535678777E+02  0.00000000000E+00 0. -1.
</event>
<event>
 7    1  0.8653652E-006  0.1040593E+03  0.7561462E-02  0.1271984E+00
         -3   -1    0    0    0  501 -0.00000000000E+00  0.00000000000E+00  0.18583030747E+03  0.18583030747E+03  0.00000000000E+00 0.  1.
          3   -1    0    0  501    0  0.00000000000E+00 -0.00000000000E+00 -0.85021886736E+02  0.85021886736E+02  0.00000000000E+00 0. -1.
         23    2    1    2    0    0  0.67203939429E+01  0.36167262586E+02  0.11042275242E+03  0.17086361165E+03  0.12509178613E+03 0.  0.
          5    1    3    3  502    0 -0.43634740771E+02 -0.14486769695E+02  0.81549513257E+02  0.93710472258E+02  0.41800000000E+01 0. -1.
         -5    1    3    3    0  502  0.50355134713E+02  0.50654032281E+02  0.28873239162E+02  0.77153139392E+02  0.41800000000E+01 0. -1.
        -11    1    1    2    0    0  0.36663102910E+02 -0.50342295622E+01 -0.24708734150E+02  0.44497731690E+02  0.00000000000E+00 0. -1.
         11    1    1    2    0    0 -0.43383496853E+02 -0.31133033023E+02  0.15094402470E+02  0.55490850870E+02  0.00000000000E+00 0.  1.
</event>
<event>
 7    1  0.8653652E-006  0.7530057E+02  0.7561462E-02  0.1342943E+00
         -1   -1    0    0    0  501 -0.00000000000E+00  0.00000000000E+00  0.10486920032E+03  0.10486920032E+03  0.00000000000E+00 0.  1.
          1   -1    0    0  501    0  0.00000000000E+00 -0.00000000000E+00 -0.11195878070E+03  0.11195878070E+03  0.00000000000E+00 0. -1.
         23    2    1    2    0    0  0.40911186338E+01  0.15394954562E+02 -0.59256723133E+01  0.12624084672E+03  0.12509155011E+03 0.  0.
          5    1    3    3  502    0 -0.59199246343E+02 -0.29523097255E+01 -0.92156371971E+01  0.60130418835E+02  0.41800000000E+01 0. -1.
         -5    1    3    3    0  502  0.63290364977E+02  0.18347264287E+02  0.32899648837E+01  0.66110427882E+02  0.41800000000E+01 0. -1.
        -11    1    1    2    0    0 -0.11975191214E+02 -0.85840499305E+01  0.42873208469E+02  0.45334348151E+02  0.00000000000E+00 0.  1.
         11    1    1    2    0    0  0.78840725802E+01 -0.68109046311E+01 -0.44037116532E+02  0.45252786156E+02  0.00000000000E+00 0. -1.
</event>
<event>
 7    1  0.8653652E-006  0.1005997E+03  0.7561462E-02  0.1279040E+00
          1   -1    0    0  501    0  0.00000000000E+00  0.00000000000E+00  0.82651615261E+02  0.82651615261E+02  0.00000000000E+00 0. -1.
         -1   -1    0    0    0  501 -0.00000000000E+00 -0.00000000000E+00 -0.22130916860E+03  0.22130916860E+03  0.00000000000E+00 0.  1.
         23    2    1    2    0    0 -0.59466398340E+01 -0.39719119745E+02 -0.15709244826E+03  0.20478744656E+03  0.12508752923E+03 0.  0.
          5    1    3    3  502    0 -0.37525904466E+02  0.33616301605E+02 -0.49634081009E+02  0.70846761657E+02  0.41800000000E+01 0. -1.
         -5    1    3    3    0  502  0.31579264632E+02 -0.73335421350E+02 -0.10745836725E+03  0.13394068490E+03  0.41800000000E+01 0. -1.
        -11    1    1    2    0    0 -0.24273122365E+02  0.30733531775E+02 -0.24283509766E+02  0.46080617305E+02  0.00000000000E+00 0.  1.
         11    1    1    2    0    0  0.30219762199E+02  0.89855879705E+01  0.42718404684E+02  0.53092720002E+02  0.00000000000E+00 0. -1.
</event>
<event>
 7    1  0.8653652E-006  0.2274299E+03  0.7561462E-02  0.1128462E+00
          3   -1    0    0  501    0  0.00000000000E+00  0.00000000000E+00  0.27100654406E+03  0.27100654406E+03  0.00000000000E+00 0. -1.
         -3   -1    0    0    0  501 -0.00000000000E+00 -0.00000000000E+00 -0.21789439077E+03  0.21789439077E+03  0.00000000000E+00 0.  1.
         23    2    1    2    0    0 -0.12700400148E+03 -0.17458874258E+03  0.43082199593E+01  0.24955691376E+03  0.12509535172E+03 0.  0.
          5    1    3    3  502    0 -0.96279207713E+02 -0.88356975925E+02 -0.53436791555E+02  0.14124306753E+03  0.41800000000E+01 0.  1.
         -5    1    3    3    0  502 -0.30724793763E+02 -0.86231766653E+02  0.57745011514E+02  0.10831384624E+03  0.41800000000E+01 0.  1.
        -11    1    1    2    0    0 -0.13251956456E+02  0.14957778737E+02 -0.40164491838E+01  0.20383359849E+02  0.00000000000E+00 0. -1.
         11    1    1    2    0    0  0.14025595793E+03  0.15963096384E+03  0.52820382517E+02  0.21896066122E+03  0.00000000000E+00 0.  1.
</event>
<event>
 7    1  0.8653652E-006  0.1026001E+03  0.7561462E-02  0.1274921E+00
          2   -1    0    0  501    0  0.00000000000E+00  0.00000000000E+00  0.40778643366E+02  0.40778643366E+02  0.00000000000E+00 0. -1.
         -2   -1    0    0    0  501 -0.00000000000E+00 -0.00000000000E+00 -0.34309469621E+03  0.34309469621E+03  0.00000000000E+00 0.  1.
         23    2    1    2    0    0 -0.24845861428E+02  0.79203524681E+01 -0.23620431524E+03  0.26855156842E+03  0.12508963807E+03 0.  0.
          5    1    3    3  502    0 -0.44189918897E+02 -0.49824127979E+02 -0.12494759141E+03  0.14164944638E+03  0.41800000000E+01 0.  1.
         -5    1    3    3    0  502  0.19344057469E+02  0.57744480447E+02 -0.11125672383E+03  0.12690212204E+03  0.41800000000E+01 0.  1.
        -11    1    1    2    0    0  0.92370947342E+01  0.32665458036E+02 -0.63200987877E+02  0.71740650516E+02  0.00000000000E+00 0.  1.
         11    1    1    2    0    0  0.15608766693E+02 -0.40585810504E+02 -0.29107497271E+01  0.43581120637E+02  0.00000000000E+00 0. -1.
</event>
<event>
 7    1  0.8653652E-006  0.1010468E+03  0.7561462E-02  0.1278110E+00
          1   -1    0    0  501    0  0.00000000000E+00  0.00000000000E+00  0.22887512412E+03  0.22887512412E+03  0.00000000000E+00 0. -1.
         -1   -1    0    0    0  501 -0.00000000000E+00 -0.00000000000E+00 -0.86775466609E+02  0.86775466609E+02  0.00000000000E+00 0.  1.
         23    2    1    2    0    0 -0.15971102976E+02  0.42562046213E+02 -0.98215320203E+01  0.13345816551E+03  0.12509202829E+03 0.  0.
          5    1    3    3  502    0  0.38283464812E+02  0.26339725166E+02 -0.46490392301E+02  0.65865269878E+02  0.41800000000E+01 0. -1.
         -5    1    3    3    0  502 -0.54254567788E+02  0.16222321047E+02  0.36668860281E+02  0.67592895635E+02  0.41800000000E+01 0. -1.
        -11    1    1    2    0    0 -0.17406061414E+02 -0.58953753540E+02  0.11111822965E+03  0.12698731035E+03  0.00000000000E+00 0.  1.
         11    1    1    2    0    0  0.33377164389E+02  0.16391707328E+02  0.40802959884E+02  0.55205114863E+02  0.00000000000E+00 0. -1.
</event>
<event>
 7    1  0.8653652E-006  0.1062922E+03  0.7561462E-02  0.1267594E+00
          1   -1    0    0  501    0  0.00000000000E+00  0.00000000000E+00  0.64368842922E+03  0.64368842922E+03  0.00000000000E+00 0. -1.
         -1   -1    0    0    0  501 -0.00000000000E+00 -0.00000000000E+00 -0.22603290213E+02  0.22603290213E+02  0.00000000000E+00 0.  1.
         23    2    1    2    0    0  0.31851225501E+02  0.38301459809E+02  0.30588762277E+03  0.33421034252E+03  0.12509121827E+03 0.  0.
          5    1    3    3  502    0  0.39629799707E+02  0.71863744615E+02  0.27738778510E+03  0.28930325704E+03  0.41800000000E+01 0. -1.
         -5    1    3    3    0  502 -0.77785742062E+01 -0.33562284806E+02  0.28499837677E+02  0.44907085474E+02  0.41800000000E+01 0. -1.
        -11    1    1    2    0    0 -0.49616433540E+02  0.40489955458E+01  0.22967304656E+03  0.23500615558E+03  0.00000000000E+00 0. -1.
         11    1    1    2    0    0  0.17765208039E+02 -0.42350455355E+02  0.85524469674E+02  0.97075221341E+02  0.00000000000E+00 0.  1.
</event>
<event>
 7    1  0.8653652E-006  0.1086634E+03  0.7561462E-02  0.1263065E+00
         -1   -1    0    0    0  501 -0.00000000000E+00  0.00000000000E+00  0.39183492703E+03  0.39183492703E+03  0.00000000000E+00 0.  1.
          1   -1    0    0  501    0  0.00000000000E+00 -0.00000000000E+00 -0.40627508327E+02  0.40627508327E+02  0.00000000000E+00 0. -1.
         23    2    1    2    0    0  0.56961670458E+02  0.16660950953E+02  0.23724711833E+03  0.27469206891E+03  0.12508924166E+03 0.  0.
          5    1    3    3  502    0 -0.99169912823E+01  0.38440229702E+02  0.17863516754E+03  0.18304096115E+03  0.41800000000E+01 0.  1.
         -5    1    3    3    0  502  0.66878661740E+02 -0.21779278749E+02  0.58611950793E+02  0.91651107766E+02  0.41800000000E+01 0.  1.
        -11    1    1    2    0    0 -0.67552655368E+02  0.18653237927E+02  0.88856186669E+02  0.11316680804E+03  0.00000000000E+00 0.  1.
         11    1    1    2    0    0  0.10590984910E+02 -0.35314188880E+02  0.25104113702E+02  0.44603558405E+02  0.00000000000E+00 0. -1.
</event>
<event>
 6    1  0.8653652E-006  0.1355201E+03  0.7561462E-02  0.1219487E+00
         -2   -1    0    0    0  501 -0.00000000000E+00  0.00000000000E+00  0.47016624132E+03  0.47016624132E+03  0.00000000000E+00 0.  1.
          2   -1    0    0  501    0  0.00000000000E+00 -0.00000000000E+00 -0.55518044134E+02  0.55518044134E+02  0.00000000000E+00 0. -1.
          5    1    1    2  502    0  0.75293149287E+02  0.85434893844E+02  0.13781655167E+03  0.17882688201E+03  0.41800000000E+01 0. -1.
         -5    1    1    2    0  502 -0.57742992203E+01 -0.30366369705E+02  0.19253306839E+03  0.19504336380E+03  0.41800000000E+01 0.  1.
        -11    1    1    2    0    0  0.20195421463E+00 -0.56163940941E+02  0.43367849175E+02  0.70959138873E+02  0.00000000000E+00 0. -1.
         11    1    1    2    0    0 -0.69720804281E+02  0.10954168019E+01  0.40930727953E+02  0.80854900769E+02  0.00000000000E+00 0.  1.
</event>
<event>
 6    1  0.8653652E-006  0.1057809E+03  0.7561462E-02  0.1268589E+00
          2   -1    0    0  501    0  0.00000000000E+00  0.00000000000E+00  0.82716218385E+03  0.82716218385E+03  0.00000000000E+00 0. -1.
         -2   -1    0    0    0  501 -0.00000000000E+00 -0.00000000000E+00 -0.19214601711E+02  0.19214601711E+02  0.00000000000E+00 0.  1.
          5    1    1    2  502    0  0.13911085350E+02  0.67123049740E+02  0.88453371495E+02  0.11198434458E+03  0.41800000000E+01 0. -1.
         -5    1    1    2    0  502  0.72121126454E+01 -0.47467253884E+02  0.31721624115E+03  0.32085630866E+03  0.41800000000E+01 0.  1.
        -11    1    1    2    0    0 -0.86015841205E-01 -0.54224533335E+02  0.26120201346E+03  0.26677106149E+03  0.00000000000E+00 0.  1.
         11    1    1    2    0    0 -0.21037182155E+02  0.34568737479E+02  0.14107595604E+03  0.14676507083E+03  0.00000000000E+00 0. -1.
</event>
<event>
 6    1  0.8653652E-006  0.2642354E+03  0.7561462E-02  0.1104625E+00
          2   -1    0    0  501    0  0.00000000000E+00  0.00000000000E+00  0.45681334971E+03  0.45681334971E+03  0.00000000000E+00 0. -1.
         -2   -1    0    0    0  501 -0.00000000000E+00 -0.00000000000E+00 -0.97346330827E+03  0.97346330827E+03  0.00000000000E+00 0.  1.
          5    1    1    2  502    0  0.13273256721E+02 -0.55914896420E+02  0.31428790846E+03  0.31952623803E+03  0.41800000000E+01 0. -1.
         -5    1    1    2    0  502 -0.42193870405E+02 -0.20334774870E+03 -0.80782355946E+03  0.83410251481E+03  0.41800000000E+01 0.  1.
        -11    1    1    2    0    0 -0.62916551006E+01  0.91226145881E+02 -0.47822289391E+02  0.10319285818E+03  0.00000000000E+00 0. -1.
         11    1    1    2    0    0  0.35212268784E+02  0.16803649924E+03  0.24707981820E+02  0.17345504696E+03  0.00000000000E+00 0.  1.
</event>
<event>
 7    1  0.8653652E-006  0.8825235E+02  0.7561462E-02  0.1307140E+00
         -2   -1    0    0    0  501 -0.00000000000E+00  0.00000000000E+00  0.91967363595E+02  0.91967363595E+02  0.00000000000E+00 0.  1.
          2   -1    0    0  501    0  0.00000000000E+00 -0.00000000000E+00 -0.15569534292E+03  0.15569534292E+03  0.00000000000E+00 0. -1.
         23    2    1    2    0    0  0.32132954291E+02 -0.24152050673E+02 -0.24400020456E+02  0.13363570157E+03  0.12508913395E+03 0.  0.
          5    1    3    3  502    0  0.17934289433E+02  0.24255854438E+02  0.40912742340E+02  0.51003040083E+02  0.41800000000E+01 0.  1.
         -5    1    3    3    0  502  0.14198664858E+02 -0.48407905111E+02 -0.65312762795E+02  0.82632661490E+02  0.41800000000E+01 0.  1.
        -11    1    1    2    0    0  0.29724859227E+02  0.13562176685E+02 -0.39509621476E+02  0.51268997276E+02  0.00000000000E+00 0. -1.
         11    1    1    2    0    0 -0.61857813518E+02  0.10589873989E+02  0.18166261044E+00  0.62758007661E+02  0.00000000000E+00 0.  1.
</event>
<event>
 7    1  0.8653652E-006  0.1042815E+03  0.7561462E-02  0.1271542E+00
         -2   -1    0    0    0  501 -0.00000000000E+00  0.00000000000E+00  0.57266674511E+02  0.57266674511E+02  0.00000000000E+00 0.  1.
          2   -1    0    0  501    0  0.00000000000E+00 -0.00000000000E+00 -0.40824820654E+03  0.40824820654E+03  0.00000000000E+00 0. -1.
         23    2    1    2    0    0  0.58849750966E+02  0.38712645861E+02 -0.65470951249E+02  0.15778371199E+03  0.12508913692E+03 0.  0.
          5    1    3    3  502    0  0.58019616236E+02 -0.30154515416E+02 -0.59535900230E+02  0.88530031539E+02  0.41800000000E+01 0. -1.
         -5    1    3    3    0  502  0.83013472964E+00  0.68867161277E+02 -0.59350510187E+01  0.69253680455E+02  0.41800000000E+01 0. -1.
        -11    1    1    2    0    0 -0.51861905898E+02 -0.22778429947E+02 -0.28473524812E+03  0.29031478722E+03  0.00000000000E+00 0. -1.
         11    1    1    2    0    0 -0.69878450674E+01 -0.15934215914E+02 -0.77533265483E+00  0.17416381835E+02  0.00000000000E+00 0.  1.
</event>
<event>
 7    1  0.8653652E-006  0.8202214E+02  0.7561462E-02  0.1323409E+00
          1   -1    0    0  501    0  0.00000000000E+00  0.00000000000E+00  0.78882279866E+02  0.78882279866E+02  0.00000000000E+00 0.  1.
         -1   -1    0    0    0  501 -0.00000000000E+00 -0.00000000000E+00 -0.16083457252E+03  0.16083457252E+03  0.00000000000E+00 0. -1.
         23    2    1    2    0    0  0.30240516742E+02 -0.41158407610E+01 -0.58226673979E+02  0.14131441452E+03  0.12509192297E+03 0.  0.
          5    1    3    3  502    0 -0.17045776813E+02  0.40399351523E+02  0.11917974438E+02  0.45630873599E+02  0.41800000000E+01 0. -1.
         -5    1    3    3    0  502  0.47286293555E+02 -0.44515192284E+02 -0.70144648418E+02  0.95683540925E+02  0.41800000000E+01 0. -1.
        -11    1    1    2    0    0 -0.14189626498E+02  0.24900066806E+02  0.28204473579E+02  0.40210087751E+02  0.00000000000E+00 0.  1.
         11    1    1    2    0    0 -0.16050890243E+02 -0.20784226045E+02 -0.51930092253E+02  0.58192350110E+02  0.00000000000E+00 0. -1.
</event>
<event>
 7    1  0.8653652E-006  0.2390803E+03  0.7561462E-02  0.1120407E+00
          1   -1    0    0  501    0  0.00000000000E+00  0.00000000000E+00  0.14992497798E+04  0.14992497798E+04  0.00000000000E+00 0. -1.
         -1   -1    0    0    0  501 -0.00000000000E+00 -0.00000000000E+00 -0.45341473094E+02  0.45341473094E+02  0.00000000000E+00 0.  1.
         23    2    1    2    0    0  0.11390127124E+03  0.18673049369E+03  0.47319818745E+03  0.53609782602E+03  0.12507029060E+03 0.  0.
          5    1    3    3  502    0  0.14065357337E+03  0.15917171529E+03  0.38311849741E+03  0.43808254714E+03  0.41800000000E+01 0. -1.
         -5    1    3    3    0  502 -0.26752302130E+02  0.27558778407E+02  0.90079690041E+02  0.98015278883E+02  0.41800000000E+01 0. -1.
        -11    1    1    2    0    0 -0.30805193376E+02 -0.10906437474E+03  0.62008596484E+03  0.63035751885E+03  0.00000000000E+00 0. -1.
         11    1    1    2    0    0 -0.83096077867E+02 -0.77666118950E+02  0.36062415442E+03  0.37813590803E+03  0.00000000000E+00 0.  1.
</event>
<event>
 7    1  0.8653652E-006  0.1513519E+03  0.7561462E-02  0.1198822E+00
          2   -1    0    0  501    0  0.00000000000E+00  0.00000000000E+00  0.10882328055E+04  0.10882328055E+04  0.00000000000E+00 0. -1.
         -2   -1    0    0    0  501 -0.00000000000E+00 -0.00000000000E+00 -0.27317882795E+02  0.27317882795E+02  0.00000000000E+00 0.  1.
         23    2    1    2    0    0  0.51434121824E+02 -0.12123607249E+03  0.50772709551E+03  0.53923865558E+03  0.12509144651E+03 0.  0.
          5    1    3    3  502    0 -0.16774167638E+02  0.21277847201E+01  0.65675841773E+01  0.18614664372E+02  0.41800000000E+01 0.  1.
         -5    1    3    3    0  502  0.68208289461E+02 -0.12336385721E+03  0.50115951133E+03  0.52062399120E+03  0.41800000000E+01 0.  1.
        -11    1    1    2    0    0 -0.44594638254E+02  0.32305522990E+02  0.97487107633E+02  0.11196456909E+03  0.00000000000E+00 0.  1.
         11    1    1    2    0    0 -0.68394835695E+01  0.88930549504E+02  0.45570071956E+03  0.46434746363E+03  0.00000000000E+00 0. -1.
</event>
<event>
 7    1  0.8653652E-006  0.7533234E+02  0.7561462E-02  0.1342845E+00
          2   -1    0    0  501    0  0.00000000000E+00  0.00000000000E+00  0.97156276403E+03  0.97156276403E+03  0.00000000000E+00 0. -1.
         -2   -1    0    0    0  501 -0.00000000000E+00 -0.00000000000E+00 -0.13157254530E+02  0.13157254530E+02  0.00000000000E+00 0.  1.
         23    2    1    2    0    0  0.16347901956E+02  0.29743486181E+02  0.53786693294E+03  0.55325958650E+03  0.12507359286E+03 0.  0.
          5    1    3    3  502    0  0.60856908530E+01  0.39718299562E+02  0.53679384657E+03  0.53831188456E+03  0.41800000000E+01 0. -1.
         -5    1    3    3    0  502  0.10262211103E+02 -0.99748133808E+01  0.10730863766E+01  0.14947701933E+02  0.41800000000E+01 0. -1.
        -11    1    1    2    0    0  0.35328156249E+02 -0.25374473428E+02  0.15977160149E+03  0.16558655492E+03  0.00000000000E+00 0.  1.
         11    1    1    2    0    0 -0.51676058205E+02 -0.43690127529E+01  0.26076697507E+03  0.26587387715E+03  0.00000000000E+00 0. -1.
</event>
<event>
 7    1  0.8653652E-006  0.1009281E+03  0.7561462E-02  0.1278356E+00
          1   -1    0    0  501    0  0.00000000000E+00  0.00000000000E+00  0.50796500331E+02  0.50796500331E+02  0.00000000000E+00 0. -1.
         -1   -1    0    0    0  501 -0.00000000000E+00 -0.00000000000E+00 -0.24607641999E+03  0.24607641999E+03  0.00000000000E+00 0.  1.
         23    2    1    2    0    0  0.35343779626E+01  0.46143799562E+01 -0.14083453096E+03  0.18840465171E+03  0.12501265275E+03 0.  0.
          5    1    3    3  502    0  0.48988686965E+02  0.30559763983E+02 -0.11742174164E+03  0.13091649413E+03  0.41800000000E+01 0.  1.
         -5    1    3    3    0  502 -0.45454309002E+02 -0.25945384027E+02 -0.23412789320E+02  0.57488157588E+02  0.41800000000E+01 0.  1.
        -11    1    1    2    0    0  0.14572369578E+02 -0.44947394559E+02 -0.40145322600E+02  0.62002170603E+02  0.00000000000E+00 0. -1.
         11    1    1    2    0    0 -0.18106747541E+02  0.40333014603E+02 -0.14300066108E+02  0.46466098009E+02  0.00000000000E+00 0.  1.
</event>
<event>
 7    1  0.8653652E-006  0.1139984E+03  0.7561462E-02  0.1253340E+00
          1   -1    0    0  501    0  0.00000000000E+00  0.00000000000E+00  0.79178781030E+03  0.79178781030E+03  0.00000000000E+00 0. -1.
         -1   -1    0    0    0  501 -0.00000000000E+00 -0.00000000000E+00 -0.25338231357E+02  0.25338231357E+02  0.00000000000E+00 0.  1.
         23    2    1    2    0    0 -0.21685107075E+02  0.84139613375E+02  0.31932385552E+03  0.35378702287E+03  0.12509122448E+03 0.  0.
          5    1    3    3  502    0 -0.41380211635E+02  0.25918306697E+02  0.27125991069E+03  0.27565103317E+03  0.41800000000E+01 0.  1.
         -5    1    3    3    0  502  0.19695104560E+02  0.58221306677E+02  0.48063944824E+02  0.78135989703E+02  0.41800000000E+01 0.  1.
        -11    1    1    2    0    0  0.47523235799E+02 -0.77163099894E+02  0.38792595657E+03  0.39837061853E+03  0.00000000000E+00 0. -1.
         11    1    1    2    0    0 -0.25838128724E+02 -0.69765134801E+01  0.59199766853E+02  0.64968400255E+02  0.00000000000E+00 0.  1.
</event>
<event>
 7    1  0.8653652E-006  0.8552679E+02  0.7561462E-02  0.1314061E+00
          2   -1    0    0  501    0  0.00000000000E+00  0.00000000000E+00  0.25448385794E+02  0.25448385794E+02  0.00000000000E+00 0. -1.
         -2   -1    0    0    0  501 -0.00000000000E+00 -0.00000000000E+00 -0.53673805469E+03  0.53673805469E+03  0.00000000000E+00 0.  1.
         23    2    1    2    0    0 -0.23923338168E+02  0.34891100118E+02 -0.32527569177E+03  0.35105719110E+03  0.12508861176E+03 0.  0.
          5    1    3    3  502    0 -0.46368266897E+02  0.35673825980E+02 -0.32279303889E+03  0.32807843024E+03  0.41800000000E+01 0.  1.
         -5    1    3    3    0  502  0.22444928729E+02 -0.78272586274E+00 -0.24826528814E+01  0.22978760862E+02  0.41800000000E+01 0.  1.
        -11    1    1    2    0    0  0.31289244789E+01 -0.58220877873E+02 -0.70622266190E+02  0.91580376012E+02  0.00000000000E+00 0. -1.
         11    1    1    2    0    0  0.20794413689E+02  0.23329777756E+02 -0.11539171094E+03  0.11954887337E+03  0.00000000000E+00 0.  1.
</event>
<event>
 7    1  0.8653652E-006  0.7623726E+02  0.7561462E-02  0.1340082E+00
          3   -1    0    0  501    0  0.00000000000E+00  0.00000000000E+00  0.22733751770E+02  0.22733751770E+02  0.00000000000E+00 0. -1.
         -3   -1    0    0    0  501 -0.00000000000E+00 -0.00000000000E+00 -0.45099620761E+03  0.45099620761E+03  0.00000000000E+00 0.  1.
         23    2    1    2    0    0 -0.33721268126E+01 -0.22940875487E+01 -0.32349747698E+03  0.34686560717E+03  0.12509395568E+03 0.  0.
          5    1    3    3  502    0 -0.26819489293E+02  0.30289541015E+02 -0.29832125445E+02  0.50439760204E+02  0.41800000000E+01 0.  1.
         -5    1    3    3    0  502  0.23447362480E+02 -0.32583628564E+02 -0.29366535153E+03  0.29642584696E+03  0.41800000000E+01 0.  1.
        -11    1    1    2    0    0  0.34784908906E+02  0.14573994620E+02 -0.51885107017E+02  0.64144021833E+02  0.00000000000E+00 0.  1.
         11    1    1    2    0    0 -0.31412782094E+02 -0.12279907071E+02 -0.52879871850E+02  0.62720330383E+02  0.00000000000E+00 0. -1.
</event>
<event>
 7    1  0.8653652E-006  0.2196095E+03  0.7561462E-02  0.1134175E+00
         -2   -1    0    0    0  501 -0.00000000000E+00  0.00000000000E+00  0.40451967043E+02  0.40451967043E+02  0.00000000000E+00 0.  1.
          2   -1    0    0  501    0  0.00000000000E+00 -0.00000000000E+00 -0.15381840196E+04  0.15381840196E+04  0.00000000000E+00 0. -1.
         23    2    1    2    0    0  0.18219558098E+03 -0.93953733725E+02 -0.48444697304E+03  0.54070287606E+03  0.12509275230E+03 0.  0.
          5    1    3    3  502    0  0.99570891798E+02 -0.91708987083E+02 -0.40067003846E+03  0.42294072034E+03  0.41800000000E+01 0. -1.
         -5    1    3    3    0  502  0.82624689187E+02 -0.22447466417E+01 -0.83776934583E+02  0.11776215572E+03  0.41800000000E+01 0. -1.
        -11    1    1    2    0    0 -0.12027612930E+03  0.15792396001E+02 -0.64938039360E+03  0.66061383777E+03  0.00000000000E+00 0. -1.
         11    1    1    2    0    0 -0.61919451683E+02  0.78161337723E+02 -0.36390468592E+03  0.37731927282E+03  0.00000000000E+00 0.  1.
</event>
<event>
 7    1  0.8653652E-006  0.1000142E+03  0.7561462E-02  0.1280266E+00
         -1   -1    0    0    0  501 -0.00000000000E+00  0.00000000000E+00  0.43018577660E+02  0.43018577660E+02  0.00000000000E+00 0. -1.
          1   -1    0    0  501    0  0.00000000000E+00 -0.00000000000E+00 -0.37938540018E+03  0.37938540018E+03  0.00000000000E+00 0.  1.
         23    2    1    2    0    0 -0.39605736208E+02  0.43882764612E+02 -0.13761392276E+03  0.19518440848E+03  0.12516009829E+03 0.  0.
          5    1    3    3  502    0 -0.82886417444E+01 -0.28553992292E+02  0.65954494002E+01  0.30740924036E+02  0.41800000000E+01 0. -1.
         -5    1    3    3    0  502 -0.31317094463E+02  0.72436756905E+02 -0.14420937216E+03  0.16444348444E+03  0.41800000000E+01 0. -1.
        -11    1    1    2    0    0  0.28338995346E+02 -0.62833738746E+02 -0.19225006971E+03  0.20423336331E+03  0.00000000000E+00 0.  1.
         11    1    1    2    0    0  0.11266740862E+02  0.18950974133E+02 -0.65028300435E+01  0.22986206056E+02  0.00000000000E+00 0. -1.
</event>
<event>
 7    1  0.8653652E-006  0.1119860E+03  0.7561462E-02  0.1256936E+00
         -1   -1    0    0    0  501 -0.00000000000E+00  0.00000000000E+00  0.19430960019E+02  0.19430960019E+02  0.00000000000E+00 0.  1.
          1   -1    0    0  501    0  0.00000000000E+00 -0.00000000000E+00 -0.69918300798E+03  0.69918300798E+03  0.00000000000E+00 0. -1.
         23    2    1    2    0    0  0.40066853080E+02 -0.10845900175E+02 -0.35405229538E+03  0.37775415671E+03  0.12498875461E+03 0.  0.
          5    1    3    3  502    0 -0.16616244448E+02 -0.53049672220E+02 -0.20960684295E+03  0.21689367974E+03  0.41800000000E+01 0. -1.
         -5    1    3    3    0  502  0.56683097528E+02  0.42203772045E+02 -0.14444545244E+03  0.16086047697E+03  0.41800000000E+01 0. -1.
        -11    1    1    2    0    0  0.31069508912E+01  0.43305293749E+02 -0.10449308580E+03  0.11315390665E+03  0.00000000000E+00 0. -1.
         11    1    1    2    0    0 -0.43173803971E+02 -0.32459393575E+02 -0.22120666677E+03  0.22770590464E+03  0.00000000000E+00 0.  1.
</event>
<event>
 7    1  0.8653652E-006  0.1571117E+03  0.7561462E-02  0.1191997E+00
          1   -1    0    0  501    0  0.00000000000E+00  0.00000000000E+00  0.73371948344E+03  0.73371948344E+03  0.00000000000E+00 0. -1.
         -1   -1    0    0    0  501 -0.00000000000E+00 -0.00000000000E+00 -0.34789245101E+02  0.34789245101E+02  0.00000000000E+00 0.  1.
         23    2    1    2    0    0 -0.51893312423E+02 -0.10426691000E+03  0.34220536375E+03  0.38251241822E+03  0.12508690865E+03 0.  0.
          5    1    3    3  502    0  0.32519760343E+02 -0.73175675135E+02  0.14432519826E+03  0.16510435941E+03  0.41800000000E+01 0.  1.
         -5    1    3    3    0  502 -0.84413072766E+02 -0.31091234863E+02  0.19788016549E+03  0.21740805880E+03  0.41800000000E+01 0.  1.
        -11    1    1    2    0    0 -0.66242317363E+00 -0.14287480076E+02  0.16180522039E+02  0.21595837211E+02  0.00000000000E+00 0.  1.
         11    1    1    2    0    0  0.52555735597E+02  0.11855439007E+03  0.34054435255E+03  0.36440047311E+03  0.00000000000E+00 0. -1.
</event>
<event>
 7    1  0.8653652E-006  0.6934485E+02  0.7561462E-02  0.1362335E+00
          1   -1    0    0  501    0  0.00000000000E+00  0.00000000000E+00  0.76329223089E+03  0.76329223089E+03  0.00000000000E+00 0. -1.
         -1   -1    0    0    0  501 -0.00000000000E+00 -0.00000000000E+00 -0.16069875202E+02  0.16069875202E+02  0.00000000000E+00 0.  1.
         23    2    1    2    0    0  0.17821263649E+02  0.13638577987E+01  0.45791467223E+03  0.47502858448E+03  0.12508737541E+03 0.  0.
          5    1    3    3  502    0 -0.14272907211E+02 -0.10015293957E+02  0.43113274026E+03  0.43150542768E+03  0.41800000000E+01 0. -1.
         -5    1    3    3    0  502  0.32094170860E+02  0.11379151756E+02  0.26781931966E+02  0.43523156798E+02  0.41800000000E+01 0. -1.
        -11    1    1    2    0    0 -0.20505813412E+02 -0.41466501640E+02  0.92020361017E+02  0.10299371818E+03  0.00000000000E+00 0.  1.
         11    1    1    2    0    0  0.26845497630E+01  0.40102643842E+02  0.19728732244E+03  0.20133980343E+03  0.00000000000E+00 0. -1.
</event>
<event>
 7    1  0.8653652E-006  0.1068693E+03  0.7561462E-02  0.1266480E+00
          1   -1    0    0  501    0  0.00000000000E+00  0.00000000000E+00  0.11155990633E+03  0.11155990633E+03  0.00000000000E+00 0. -1.
         -1   -1    0    0    0  501 -0.00000000000E+00 -0.00000000000E+00 -0.12786121723E+03  0.12786121723E+03  0.00000000000E+00 0.  1.
         23    2    1    2    0    0  0.11723006585E+02 -0.45315761519E+02 -0.25143622841E+02  0.13590559630E+03  0.12508869737E+03 0.  0.
          5    1    3    3  502    0  0.11796345784E+02  0.33110856439E+02  0.24449581537E+02  0.43020193227E+02  0.41800000000E+01 0.  1.
         -5    1    3    3    0  502 -0.73339199124E-01 -0.78426617958E+02 -0.49593204378E+02  0.92885403070E+02  0.41800000000E+01 0.  1.
        -11    1    1    2    0    0  0.19342867477E+02 -0.19785619761E+02 -0.92007743265E+01  0.29159415628E+02  0.00000000000E+00 0.  1.
         11    1    1    2    0    0 -0.31065874063E+02  0.65101381280E+02  0.18043086271E+02  0.74356111639E+02  0.00000000000E+00 0. -1.
</event>
<event>
 7    1  0.8653652E-006  0.1489303E+03  0.7561462E-02  0.1201794E+00
         -2   -1    0    0    0  501 -0.00000000000E+00  0.00000000000E+00  0.56788713833E+02  0.56788713833E+02  0.00000000000E+00 0. -1.
          2   -1    0    0  501    0  0.00000000000E+00 -0.00000000000E+00 -0.54950902199E+03  0.54950902199E+03  0.00000000000E+00 0.  1.
         23    2    1    2    0    0 -0.11954621018E+03 -0.11051402295E+02 -0.14003967654E+03  0.22287142823E+03  0.12508849929E+03 0.  0.
          5    1    3    3  502    0 -0.10872395678E+03 -0.58613009480E+02 -0.90147326922E+02  0.15297188176E+03  0.41800000000E+01 0. -1.
         -5    1    3    3    0  502 -0.10822253405E+02  0.47561607185E+02 -0.49892349618E+02  0.69899546473E+02  0.41800000000E+01 0. -1.
        -11    1    1    2    0    0  0.85229030084E+02 -0.87830018020E+01 -0.32227635111E+03  0.33347140084E+03  0.00000000000E+00 0.  1.
         11    1    1    2    0    0  0.34317180099E+02  0.19834404097E+02 -0.30404280506E+02  0.49954906756E+02  0.00000000000E+00 0. -1.
</event>
<event>
 7    1  0.8653652E-006  0.7180949E+02  0.7561462E-02  0.1354046E+00
         -2   -1    0    0    0  501 -0.00000000000E+00  0.00000000000E+00  0.28992317211E+03  0.28992317211E+03  0.00000000000E+00 0.  1.
          2   -1    0    0  501    0  0.00000000000E+00 -0.00000000000E+00 -0.40116185028E+02  0.40116185028E+02  0.00000000000E+00 0. -1.
         23    2    1    2    0    0 -0.34684349418E+02 -0.19311992582E+01  0.13812704364E+03  0.18133269644E+03  0.11223071320E+03 0.  0.
          5    1    3    3  502    0 -0.17390175863E+02 -0.29350949302E+02 -0.48099768624E+01  0.34705975262E+02  0.41800000000E+01 0. -1.
         -5    1    3    3    0  502 -0.17294173554E+02  0.27419750044E+02  0.14293702051E+03  0.14662672117E+03  0.41800000000E+01 0.  1.
        -11    1    1    2    0    0 -0.20873950869E+02 -0.12572255912E+01 -0.31069254577E+01  0.21141320367E+02  0.00000000000E+00 0.  1.
         11    1    1    2    0    0  0.55558300287E+02  0.31884248495E+01  0.11478686890E+03  0.12756534034E+03  0.00000000000E+00 0. -1.
</event>
<event>
 7    1  0.8653652E-006  0.1160135E+03  0.7561462E-02  0.1249822E+00
         -2   -1    0    0    0  501 -0.00000000000E+00  0.00000000000E+00  0.50094482854E+02  0.50094482854E+02  0.00000000000E+00 0.  1.
          2   -1    0    0  501    0  0.00000000000E+00 -0.00000000000E+00 -0.35001421881E+03  0.35001421881E+03  0.00000000000E+00 0. -1.
         23    2    1    2    0    0  0.47943999381E+02  0.19908929982E+02 -0.81692787215E+02  0.15815869343E+03  0.12508184623E+03 0.  0.
          5    1    3    3  502    0 -0.41848787807E+02  0.99361730881E+01 -0.38733977176E+02  0.58033110932E+02  0.41800000000E+01 0. -1.
         -5    1    3    3    0  502  0.89792787188E+02  0.99727568936E+01 -0.42958810039E+02  0.10012558250E+03  0.41800000000E+01 0. -1.
        -11    1    1    2    0    0 -0.66408915598E+02 -0.34500660559E+02 -0.12403478529E+03  0.14486223666E+03  0.00000000000E+00 0.  1.
         11    1    1    2    0    0  0.18464916217E+02  0.14591730577E+02 -0.94192163453E+02  0.97087771568E+02  0.00000000000E+00 0. -1.
</event>
<event>
 7    1  0.8653652E-006  0.1216215E+03  0.7561462E-02  0.1240446E+00
          1   -1    0    0  501    0  0.00000000000E+00  0.00000000000E+00  0.27520380405E+03  0.27520380405E+03  0.00000000000E+00 0. -1.
         -1   -1    0    0    0  501 -0.00000000000E+00 -0.00000000000E+00 -0.70102877742E+02  0.70102877742E+02  0.00000000000E+00 0.  1.
         23    2    1    2    0    0 -0.71078321296E+02  0.49010799280E+02  0.11170364120E+03  0.18863215611E+03  0.12510076202E+03 0.  0.
          5    1    3    3  502    0  0.33662141774E+02  0.19481743064E+02  0.49930115695E+02  0.63428439638E+02  0.41800000000E+01 0. -1.
         -5    1    3    3    0  502 -0.10474046307E+03  0.29529056216E+02  0.61773525501E+02  0.12520371647E+03  0.41800000000E+01 0. -1.
        -11    1    1    2    0    0 -0.20479867693E+01 -0.13996100455E+02  0.71231112254E+02  0.72622010648E+02  0.00000000000E+00 0. -1.
         11    1    1    2    0    0  0.73126308065E+02 -0.35014698825E+02  0.22166172861E+02  0.84052515039E+02  0.00000000000E+00 0.  1.
</event>
<event>
 7    1  0.8653652E-006  0.1297233E+03  0.7561462E-02  0.1227867E+00
          4   -1    0    0  501    0  0.00000000000E+00  0.00000000000E+00  0.53649144597E+03  0.53649144597E+03  0.00000000000E+00 0. -1.
         -4   -1    0    0    0  501 -0.00000000000E+00 -0.00000000000E+00 -0.52677160141E+02  0.52677160141E+02  0.00000000000E+00 0.  1.
         23    2    1    2    0    0  0.11828533432E+02 -0.11159371709E+03  0.14946236037E+03  0.22489809072E+03  0.12508829740E+03 0.  0.
          5    1    3    3  502    0 -0.46522337299E+01 -0.69561055141E+02  0.16320403818E+03  0.17752017956E+03  0.41800000000E+01 0. -1.
         -5    1    3    3    0  502  0.16480767162E+02 -0.42032661949E+02 -0.13741677817E+02  0.47377911161E+02  0.41800000000E+01 0. -1.
        -11    1    1    2    0    0 -0.40326199530E+02  0.10831453271E+03  0.25789325821E+03  0.28260780774E+03  0.00000000000E+00 0.  1.
         11    1    1    2    0    0  0.28497666098E+02  0.32791843818E+01  0.76458667247E+02  0.81662707648E+02  0.00000000000E+00 0. -1.
</event>
<event>
 7    1  0.8653652E-006  0.1037914E+03  0.7561462E-02  0.1272519E+00
          1   -1    0    0  501    0  0.00000000000E+00  0.00000000000E+00  0.20676284493E+03  0.20676284493E+03  0.00000000000E+00 0. -1.
         -1   -1    0    0    0  501 -0.00000000000E+00 -0.00000000000E+00 -0.76976654784E+02  0.76976654784E+02  0.00000000000E+00 0.  1.
         23    2    1    2    0    0 -0.22160259742E+02 -0.47046976607E+02  0.30182619081E+02  0.13878957718E+03  0.12508821335E+03 0.  0.
          5    1    3    3  502    0  0.43226402969E+02 -0.16753278898E+02 -0.20220171053E+02  0.50749600835E+02  0.41800000000E+01 0. -1.
         -5    1    3    3    0  502 -0.65386662711E+02 -0.30293697708E+02  0.50402790133E+02  0.88039976343E+02  0.41800000000E+01 0. -1.
        -11    1    1    2    0    0 -0.22593481113E+02  0.36410128357E+02  0.96601352653E+01  0.43925858548E+02  0.00000000000E+00 0.  1.
         11    1    1    2    0    0  0.44753740855E+02  0.10636848249E+02  0.89943435799E+02  0.10102406399E+03  0.00000000000E+00 0. -1.
</event>
<event>
 7    1  0.8653652E-006  0.1031153E+03  0.7561462E-02  0.1273878E+00
          2   -1    0    0  501    0  0.00000000000E+00  0.00000000000E+00  0.60904183115E+03  0.60904183115E+03  0.00000000000E+00 0. -1.
         -2   -1    0    0    0  501 -0.00000000000E+00 -0.00000000000E+00 -0.21091348817E+02  0.21091348817E+02  0.00000000000E+00 0.  1.
         23    2    1    2    0    0 -0.30977825384E+01  0.71580540665E+01  0.24742550319E+03  0.27735879947E+03  0.12509072716E+03 0.  0.
          5    1    3    3  502    0 -0.52796054554E+02  0.31340875317E+02  0.17910268880E+03  0.18938035637E+03  0.41800000000E+01 0. -1.
         -5    1    3    3    0  502  0.49698272016E+02 -0.24182821251E+02  0.68322814393E+02  0.87978443107E+02  0.41800000000E+01 0. -1.
        -11    1    1    2    0    0  0.46029197655E+02 -0.28774600981E+01  0.13177145453E+03  0.13960903639E+03  0.00000000000E+00 0.  1.
         11    1    1    2    0    0 -0.42931415116E+02 -0.42805939684E+01  0.20875352461E+03  0.21316534410E+03  0.00000000000E+00 0. -1.
</event>
<event>
 7    1  0.8653652E-006  0.3907868E+03  0.7561462E-02  0.1047017E+00
         -1   -1    0    0    0  501 -0.00000000000E+00  0.00000000000E+00  0.21109215679E+03  0.21109215679E+03  0.00000000000E+00 0. -1.
          1   -1    0    0  501    0  0.00000000000E+00 -0.00000000000E+00 -0.79010999710E+03  0.79010999710E+03  0.00000000000E+00 0.  1.
         23    2    1    2    0    0 -0.34533587916E+03  0.15092545482E+03 -0.15418071556E+03  0.42597462778E+03  0.12508928057E+03 0.  0.
          5    1    3    3  502    0 -0.23500439214E+03  0.38209709936E+02 -0.10873081875E+03  0.26177644967E+03  0.41800000000E+01 0. -1.
         -5    1    3    3    0  502 -0.11033148703E+03  0.11271574489E+03 -0.45449896803E+02  0.16419817811E+03  0.41800000000E+01 0. -1.
        -11    1    1    2    0    0  0.26382740214E+03 -0.15134367554E+03 -0.35845900283E+03  0.47010920323E+03  0.00000000000E+00 0.  1.
         11    1    1    2    0    0  0.81508477023E+02  0.41822071812E+00 -0.66378121927E+02  0.10511832288E+03  0.00000000000E+00 0. -1.
</event>
<event>
 7    1  0.8653652E-006  0.1060471E+03  0.7561462E-02  0.1268070E+00
         -3   -1    0    0    0  501 -0.00000000000E+00  0.00000000000E+00  0.13369565678E+03  0.13369565678E+03  0.00000000000E+00 0.  1.
          3   -1    0    0  501    0  0.00000000000E+00 -0.00000000000E+00 -0.13516646099E+03  0.13516646099E+03  0.00000000000E+00 0. -1.
         23    2    1    2    0    0 -0.60055866107E+02  0.49562783982E+02  0.14574661340E+02  0.14806587827E+03  0.12509159422E+03 0.  0.
          5    1    3    3  502    0 -0.24916304552E+02 -0.65130355793E+01 -0.49438468739E+02  0.55900594418E+02  0.41800000000E+01 0.  1.
         -5    1    3    3    0  502 -0.35139561555E+02  0.56075819561E+02  0.64013130079E+02  0.92165283856E+02  0.41800000000E+01 0.  1.
        -11    1    1    2    0    0  0.26123742972E+02  0.26004131455E+02 -0.36924339390E+01  0.37044552474E+02  0.00000000000E+00 0.  1.
         11    1    1    2    0    0  0.33932123135E+02 -0.75566915436E+02 -0.12353031609E+02  0.83751687021E+02  0.00000000000E+00 0. -1.
</event>
<event>
 7    1  0.8653652E-006  0.1266433E+03  0.7561462E-02  0.1232523E+00
         -4   -1    0    0    0  501 -0.00000000000E+00  0.00000000000E+00  0.91303588891E+02  0.91303588891E+02  0.00000000000E+00 0.  1.
          4   -1    0    0  501    0  0.00000000000E+00 -0.00000000000E+00 -0.26028256892E+03  0.26028256892E+03  0.00000000000E+00 0. -1.
         23    2    1    2    0    0  0.10398091374E+03  0.41923183738E+02 -0.97525792194E+02  0.19423520605E+03  0.12508577605E+03 0.  0.
          5    1    3    3  502    0  0.85107897973E+02  0.20950271401E+02 -0.12625414664E+03  0.15375256132E+03  0.41800000000E+01 0. -1.
         -5    1    3    3    0  502  0.18873015767E+02  0.20972912338E+02  0.28728354441E+02  0.40482644738E+02  0.41800000000E+01 0. -1.
        -11    1    1    2    0    0 -0.11411015378E+03 -0.24269002865E+02 -0.47613834333E+02  0.12600471783E+03  0.00000000000E+00 0.  1.
         11    1    1    2    0    0  0.10129240038E+02 -0.17654180874E+02 -0.23839353504E+02  0.31346233930E+02  0.00000000000E+00 0. -1.
</event>
<event>
 7    1  0.8653652E-006  0.8070916E+02  0.7561462E-02  0.1327051E+00
          1   -1    0    0  501    0  0.00000000000E+00  0.00000000000E+00  0.56156396188E+02  0.56156396188E+02  0.00000000000E+00 0. -1.
         -1   -1    0    0    0  501 -0.00000000000E+00 -0.00000000000E+00 -0.28801472549E+03  0.28801472549E+03  0.00000000000E+00 0.  1.
         23    2    1    2    0    0  0.17285420751E+02 -0.35960560794E+02 -0.18959722538E+03  0.23062285384E+03  0.12509134718E+03 0.  0.
          5    1    3    3  502    0 -0.82790513193E+00 -0.43681983529E+02 -0.41485854186E+01  0.44084966518E+02  0.41800000000E+01 0.  1.
         -5    1    3    3    0  502  0.18113325883E+02  0.77214227352E+01 -0.18544863996E+03  0.18653788732E+03  0.41800000000E+01 0.  1.
        -11    1    1    2    0    0  0.56631843258E+01  0.62247771301E+02 -0.53183260410E+01  0.62730704448E+02  0.00000000000E+00 0.  1.
         11    1    1    2    0    0 -0.22948605076E+02 -0.26287210507E+02 -0.36942777883E+02  0.50817563390E+02  0.00000000000E+00 0. -1.
</event>
<event>
 7    1  0.8653652E-006  0.1035055E+03  0.7561462E-02  0.1273092E+00
         -1   -1    0    0    0  501 -0.00000000000E+00  0.00000000000E+00  0.18865176940E+03  0.18865176940E+03  0.00000000000E+00 0.  1.
          1   -1    0    0  501    0  0.00000000000E+00 -0.00000000000E+00 -0.70357485485E+02  0.70357485485E+02  0.00000000000E+00 0. -1.
         23    2    1    2    0    0  0.39085086756E+02  0.32689566745E+00  0.73492809612E+02  0.15025368795E+03  0.12508887564E+03 0.  0.
          5    1    3    3  502    0  0.77644201954E+02  0.12155447385E+02  0.16670784456E+02  0.80447277472E+02  0.41800000000E+01 0. -1.
         -5    1    3    3    0  502 -0.38559115199E+02 -0.11828551718E+02  0.56822025156E+02  0.69806410475E+02  0.41800000000E+01 0. -1.
        -11    1    1    2    0    0 -0.62958289120E+02  0.54666343145E+01  0.68749964825E+01  0.63568040998E+02  0.00000000000E+00 0.  1.
         11    1    1    2    0    0  0.23873202364E+02 -0.57935299819E+01  0.37926477824E+02  0.45187525944E+02  0.00000000000E+00 0. -1.
</event>
<event>
 7    1  0.8653652E-006  0.1226038E+03  0.7561462E-02  0.1238862E+00
         -2   -1    0    0    0  501 -0.00000000000E+00  0.00000000000E+00  0.32924937036E+02  0.32924937036E+02  0.00000000000E+00 0.  1.
          2   -1    0    0  501    0  0.00000000000E+00 -0.00000000000E+00 -0.65219279181E+03  0.65219279181E+03  0.00000000000E+00 0. -1.
         23    2    1    2    0    0  0.65398646427E+02  0.23114741462E+02 -0.17265172615E+03  0.22401840622E+03  0.12475717836E+03 0.  0.
          5    1    3    3  502    0  0.50001512383E+02 -0.42728598909E+02 -0.12461085301E+03  0.14096532018E+03  0.41800000000E+01 0. -1.
         -5    1    3    3    0  502  0.15397134044E+02  0.65843340371E+02 -0.48040873141E+02  0.83053086036E+02  0.41800000000E+01 0.  1.
        -11    1    1    2    0    0 -0.55429843159E+02  0.26152105664E+02 -0.19116315728E+03  0.20074798341E+03  0.00000000000E+00 0.  1.
         11    1    1    2    0    0 -0.99688032688E+01 -0.49266847125E+02 -0.25545297134E+03  0.26035133922E+03  0.00000000000E+00 0. -1.
</event>
<event>
 7    1  0.8653652E-006  0.1011557E+03  0.7561462E-02  0.1277884E+00
         -2   -1    0    0    0  501 -0.00000000000E+00  0.00000000000E+00  0.23959111272E+02  0.23959111272E+02  0.00000000000E+00 0. -1.
          2   -1    0    0  501    0  0.00000000000E+00 -0.00000000000E+00 -0.73668491304E+03  0.73668491304E+03  0.00000000000E+00 0.  1.
         23    2    1    2    0    0  0.44242123669E+02 -0.60458975764E+02 -0.35249155472E+03  0.38145896903E+03  0.12509194877E+03 0.  0.
          5    1    3    3  502    0  0.10310728100E+02  0.42238106824E+01 -0.27362214461E+03  0.27388081735E+03  0.41800000000E+01 0.  1.
         -5    1    3    3    0  502  0.33931395570E+02 -0.64682786446E+02 -0.78869410108E+02  0.10757815168E+03  0.41800000000E+01 0.  1.
        -11    1    1    2    0    0 -0.40292349897E+02  0.84113918261E+02 -0.30568798745E+03  0.31959939045E+03  0.00000000000E+00 0.  1.
         11    1    1    2    0    0 -0.39497737718E+01 -0.23654942497E+02 -0.54546259605E+02  0.59585664839E+02  0.00000000000E+00 0. -1.
</event>
<event>
 7    1  0.8653652E-006  0.9721446E+02  0.7561462E-02  0.1286265E+00
         -2   -1    0    0    0  501 -0.00000000000E+00  0.00000000000E+00  0.52893150914E+02  0.52893150914E+02  0.00000000000E+00 0.  1.
          2   -1    0    0  501    0  0.00000000000E+00 -0.00000000000E+00 -0.47458695719E+03  0.47458695719E+03  0.00000000000E+00 0. -1.
         23    2    1    2    0    0 -0.60446946925E+01 -0.12050587647E+02 -0.21132130522E+02  0.11649862130E+03  0.11376997331E+03 0.  0.
          5    1    3    3  502    0  0.49770367438E+01  0.44628000735E+02 -0.34860913199E+02  0.57001622901E+02  0.41800000000E+01 0. -1.
         -5    1    3    3    0  502 -0.11021731436E+02 -0.56678588382E+02  0.13728782677E+02  0.59496998400E+02  0.41800000000E+01 0.  1.
        -11    1    1    2    0    0 -0.17554417211E+02  0.46487586759E+02 -0.23919473101E+03  0.24430180644E+03  0.00000000000E+00 0. -1.
         11    1    1    2    0    0  0.23599111904E+02 -0.34436999112E+02 -0.16136694475E+03  0.16667968037E+03  0.00000000000E+00 0.  1.
</event>
<event>
 7    1  0.8653652E-006  0.1195266E+03  0.7561462E-02  0.1243880E+00
         -2   -1    0    0    0  501 -0.00000000000E+00  0.00000000000E+00  0.29868604638E+02  0.29868604638E+02  0.00000000000E+00 0.  1.
          2   -1    0    0  501    0  0.00000000000E+00 -0.00000000000E+00 -0.53215366479E+03  0.53215366479E+03  0.00000000000E+00 0. -1.
         23    2    1    2    0    0 -0.47060398595E+02 -0.31940181646E+02 -0.21920136993E+03  0.25871035627E+03  0.12508777535E+03 0.  0.
          5    1    3    3  502    0 -0.44959121897E+02  0.42971886151E+02 -0.97239923737E+02  0.11550316363E+03  0.41800000000E+01 0.  1.
         -5    1    3    3    0  502 -0.21012766986E+01 -0.74912067797E+02 -0.12196144620E+03  0.14320719264E+03  0.41800000000E+01 0.  1.
        -11    1    1    2    0    0  0.63768328020E+02 -0.20354230900E+01 -0.12016981034E+03  0.13605633364E+03  0.00000000000E+00 0.  1.
         11    1    1    2    0    0 -0.16707929424E+02  0.33975604736E+02 -0.16291387987E+03  0.16725557951E+03  0.00000000000E+00 0. -1.
</event>
<event>
 7    1  0.8653652E-006  0.1321980E+03  0.7561462E-02  0.1224230E+00
          4   -1    0    0  501    0  0.00000000000E+00  0.00000000000E+00  0.36779280564E+03  0.36779280564E+03  0.00000000000E+00 0. -1.
         -4   -1    0    0    0  501 -0.00000000000E+00 -0.00000000000E+00 -0.52723995363E+02  0.52723995363E+02  0.00000000000E+00 0.  1.
         23    2    1    2    0    0 -0.83963574915E+02  0.44950226870E+02  0.15269316630E+03  0.21215170728E+03  0.11235096377E+03 0.  0.
          5    1    3    3  502    0 -0.82642401491E+02 -0.62438419214E+01  0.13372592085E+03  0.15738121360E+03  0.41800000000E+01 0. -1.
         -5    1    3    3    0  502 -0.13211734248E+01  0.51194068791E+02  0.18967245454E+02  0.54770493687E+02  0.41800000000E+01 0.  1.
        -11    1    1    2    0    0  0.74734162686E+02  0.90209734998E+01  0.84504130484E+02  0.11317031901E+03  0.00000000000E+00 0.  1.
         11    1    1    2    0    0  0.92294122290E+01 -0.53971200370E+02  0.77871513488E+02  0.95194774711E+02  0.00000000000E+00 0. -1.
</event>
<event>
 7    1  0.8653652E-006  0.8587391E+02  0.7561462E-02  0.1313163E+00
          1   -1    0    0  501    0  0.00000000000E+00  0.00000000000E+00  0.34410144649E+03  0.34410144649E+03  0.00000000000E+00 0. -1.
         -1   -1    0    0    0  501 -0.00000000000E+00 -0.00000000000E+00 -0.39177787506E+02  0.39177787506E+02  0.00000000000E+00 0.  1.
         23    2    1    2    0    0  0.24475031151E+02 -0.31796234941E+02  0.14932989906E+03  0.19888901711E+03  0.12508954660E+03 0.  0.
          5    1    3    3  502    0 -0.32776261623E+01 -0.70208501168E+02  0.12938933580E+03  0.14730597098E+03  0.41800000000E+01 0.  1.
         -5    1    3    3    0  502  0.27752657313E+02  0.38412266227E+02  0.19940563265E+02  0.51583046129E+02  0.41800000000E+01 0.  1.
        -11    1    1    2    0    0 -0.25544403051E+02  0.38898663116E+01  0.15428393177E+03  0.15643266663E+03  0.00000000000E+00 0. -1.
         11    1    1    2    0    0  0.10693719008E+01  0.27906368629E+02  0.13098281545E+01  0.27957550253E+02  0.00000000000E+00 0.  1.
</event>
<event>
 7    1  0.8653652E-006  0.1248137E+03  0.7561462E-02  0.1235361E+00
          1   -1    0    0  501    0  0.00000000000E+00  0.00000000000E+00  0.33488703890E+03  0.33488703890E+03  0.00000000000E+00 0. -1.
         -1   -1    0    0    0  501 -0.00000000000E+00 -0.00000000000E+00 -0.82288899213E+02  0.82288899213E+02  0.00000000000E+00 0.  1.
         23    2    1    2    0    0 -0.17080705329E+02 -0.75431392858E+02  0.10744158828E+02  0.14746676105E+03  0.12509741462E+03 0.  0.
          5    1    3    3  502    0 -0.32663707930E+02  0.26335011580E+02  0.13852215239E+02  0.44382506888E+02  0.41800000000E+01 0.  1.
         -5    1    3    3    0  502  0.15583002601E+02 -0.10176640444E+03 -0.31080564108E+01  0.10308425417E+03  0.41800000000E+01 0.  1.
        -11    1    1    2    0    0 -0.20227763087E+02 -0.48176899233E-01  0.11940491564E+03  0.12110614601E+03  0.00000000000E+00 0. -1.
         11    1    1    2    0    0  0.37308468416E+02  0.75479569757E+02  0.12244906521E+03  0.14860303105E+03  0.00000000000E+00 0.  1.
</event>
<event>
 7    1  0.8653652E-006  0.1080060E+03  0.7561462E-02  0.1264308E+00
          3   -1    0    0  501    0  0.00000000000E+00  0.00000000000E+00  0.29259826241E+02  0.29259826241E+02  0.00000000000E+00 0. -1.
         -3   -1    0    0    0  501 -0.00000000000E+00 -0.00000000000E+00 -0.58918724627E+03  0.58918724627E+03  0.00000000000E+00 0.  1.
         23    2    1    2    0    0  0.57880293533E+02 -0.91266290150E+01 -0.39860234515E+03  0.42185904748E+03  0.12509117735E+03 0.  0.
          5    1    3    3  502    0  0.42458626850E+02 -0.66246932941E+02 -0.23141828465E+03  0.24446530631E+03  0.41800000000E+01 0.  1.
         -5    1    3    3    0  502  0.15421666683E+02  0.57120303926E+02 -0.16718406049E+03  0.17739374117E+03  0.41800000000E+01 0.  1.
        -11    1    1    2    0    0 -0.66045144749E+02  0.53090055276E+00 -0.16968213243E+03  0.18208313779E+03  0.00000000000E+00 0.  1.
         11    1    1    2    0    0  0.81648512156E+01  0.85957284622E+01  0.83570575448E+01  0.14504887245E+02  0.00000000000E+00 0. -1.
</event>
<event>
 7    1  0.8653652E-006  0.1140915E+03  0.7561462E-02  0.1253175E+00
          2   -1    0    0  501    0  0.00000000000E+00  0.00000000000E+00  0.79685189923E+03  0.79685189923E+03  0.00000000000E+00 0. -1.
         -2   -1    0    0    0  501 -0.00000000000E+00 -0.00000000000E+00 -0.17196879836E+02  0.17196879836E+02  0.00000000000E+00 0.  1.
         23    2    1    2    0    0 -0.30313588384E+02  0.26044700568E+02  0.37389290357E+03  0.39628401916E+03  0.12509148825E+03 0.  0.
          5    1    3    3  502    0 -0.72374611004E+02 -0.11211010169E+02  0.18010025891E+03  0.19446682681E+03  0.41800000000E+01 0. -1.
         -5    1    3    3    0  502  0.42061022620E+02  0.37255710737E+02  0.19379264466E+03  0.20181719235E+03  0.41800000000E+01 0. -1.
        -11    1    1    2    0    0  0.28752114151E+02  0.30500238363E+02  0.14494859236E+03  0.15088751783E+03  0.00000000000E+00 0. -1.
         11    1    1    2    0    0  0.15614742330E+01 -0.56544938930E+02  0.26081352346E+03  0.26687724208E+03  0.00000000000E+00 0.  1.
</event>
<event>
 7    1  0.8653652E-006  0.9183343E+02  0.7561462E-02  0.1298472E+00
         -1   -1    0    0    0  501 -0.00000000000E+00  0.00000000000E+00  0.56560514288E+03  0.56560514288E+03  0.00000000000E+00 0.  1.
          1   -1    0    0  501    0  0.00000000000E+00 -0.00000000000E+00 -0.31362896019E+02  0.31362896019E+02  0.00000000000E+00 0. -1.
         23    2    1    2    0    0  0.61273943518E+02 -0.23945377213E+02  0.37742735337E+03  0.40302280981E+03  0.12509236951E+03 0.  0.
          5    1    3    3  502    0  0.41505525197E+02 -0.44061604011E+02  0.63592467550E+02  0.87895437305E+02  0.41800000000E+01 0.  1.
         -5    1    3    3    0  502  0.19768418321E+02  0.20116226798E+02  0.31383488582E+03  0.31512737250E+03  0.41800000000E+01 0.  1.
        -11    1    1    2    0    0 -0.54271904619E+02 -0.13873561460E+02  0.14213855932E+03  0.15277855014E+03  0.00000000000E+00 0.  1.
         11    1    1    2    0    0 -0.70020388990E+01  0.37818938673E+02  0.14676334178E+02  0.41166678952E+02  0.00000000000E+00 0. -1.
</event>
<event>
 7    1  0.8653652E-006  0.1037475E+03  0.7561462E-02  0.1272607E+00
          2   -1    0    0  501    0  0.00000000000E+00  0.00000000000E+00  0.10024301158E+04  0.10024301158E+04  0.00000000000E+00 0. -1.
         -2   -1    0    0    0  501 -0.00000000000E+00 -0.00000000000E+00 -0.15730874990E+02  0.15730874990E+02  0.00000000000E+00 0.  1.
         23    2    1    2    0    0 -0.52928345092E+02 -0.34923931726E+02  0.53373187677E+03  0.55185062347E+03  0.12509317977E+03 0.  0.
          5    1    3    3  502    0 -0.21333688185E+02 -0.55954920359E+02  0.10140723111E+03  0.11784302391E+03  0.41800000000E+01 0.  1.
         -5    1    3    3    0  502 -0.31594656907E+02  0.21030988633E+02  0.43232464566E+03  0.43400759956E+03  0.41800000000E+01 0.  1.
        -11    1    1    2    0    0  0.75302039676E+02  0.41475190565E+02  0.32169124091E+03  0.33298024430E+03  0.00000000000E+00 0.  1.
         11    1    1    2    0    0 -0.22373694584E+02 -0.65512588390E+01  0.13127612309E+03  0.13333012298E+03  0.00000000000E+00 0. -1.
</event>
<event>
 7    1  0.8653652E-006  0.1635997E+03  0.7561462E-02  0.1184692E+00
          2   -1    0    0  501    0  0.00000000000E+00  0.00000000000E+00  0.94883912957E+02  0.94883912957E+02  0.00000000000E+00 0. -1.
         -2   -1    0    0    0  501 -0.00000000000E+00 -0.00000000000E+00 -0.31162051110E+03  0.31162051110E+03  0.00000000000E+00 0.  1.
         23    2    1    2    0    0 -0.29646456453E+02  0.12723767701E+03 -0.95389947532E+02  0.20457594428E+03  0.12523472386E+03 0.  0.
          5    1    3    3  502    0 -0.51952718374E+02  0.13854493080E+03 -0.10022553966E+03  0.17876357011E+03  0.41800000000E+01 0. -1.
         -5    1    3    3    0  502  0.22306261921E+02 -0.11307253796E+02  0.48355921302E+01  0.25812374175E+02  0.41800000000E+01 0. -1.
        -11    1    1    2    0    0 -0.21741214139E+02 -0.83670312326E+02 -0.97873438057E+02  0.13058564789E+03  0.00000000000E+00 0.  1.
         11    1    1    2    0    0  0.51387670592E+02 -0.43567364679E+02 -0.23473212551E+02  0.71342831885E+02  0.00000000000E+00 0. -1.
</event>
<event>
 7    1  0.8653652E-006  0.6507817E+02  0.7561462E-02  0.1377678E+00
         -1   -1    0    0    0  501 -0.00000000000E+00  0.00000000000E+00  0.18517442335E+03  0.18517442335E+03  0.00000000000E+00 0.  1.
          1   -1    0    0  501    0  0.00000000000E+00 -0.00000000000E+00 -0.72980336943E+02  0.72980336943E+02  0.00000000000E+00 0. -1.
         23    2    1    2    0    0 -0.27161861532E+02  0.11349754434E+02  0.84049016301E+02  0.15355050989E+03  0.12508772241E+03 0.  0.
          5    1    3    3  502    0  0.80838471486E+01 -0.78524511561E+01  0.10663187197E+03  0.10730721362E+03  0.41800000000E+01 0.  1.
         -5    1    3    3    0  502 -0.35245708680E+02  0.19202205590E+02 -0.22582855672E+02  0.46243296273E+02  0.41800000000E+01 0.  1.
        -11    1    1    2    0    0  0.51942770753E+02 -0.10458478282E+02 -0.14800783900E+02  0.55013583828E+02  0.00000000000E+00 0. -1.
         11    1    1    2    0    0 -0.24780909222E+02 -0.89127615171E+00  0.42945854004E+02  0.49590666574E+02  0.00000000000E+00 0.  1.
</event>
<event>
 7    1  0.8653652E-006  0.1319595E+03  0.7561462E-02  0.1224577E+00
         -2   -1    0    0    0  501 -0.00000000000E+00  0.00000000000E+00  0.10953463589E+03  0.10953463589E+03  0.00000000000E+00 0.  1.
          2   -1    0    0  501    0  0.00000000000E+00 -0.00000000000E+00 -0.26937264145E+03  0.26937264145E+03  0.00000000000E+00 0. -1.
         23    2    1    2    0    0  0.16196917327E+02  0.10505822796E+03  0.68418954730E+01  0.16429755690E+03  0.12508918529E+03 0.  0.
          5    1    3    3  502    0  0.51857974901E+02  0.14829954072E+02  0.33454679368E+02  0.63607114934E+02  0.41800000000E+01 0. -1.
         -5    1    3    3    0  502 -0.35661057574E+02  0.90228273887E+02 -0.26612783895E+02  0.10069044196E+03  0.41800000000E+01 0. -1.
        -11    1    1    2    0    0  0.11635367465E+02 -0.45594783651E+02 -0.15095837840E+02  0.49418118058E+02  0.00000000000E+00 0.  1.
         11    1    1    2    0    0 -0.27832284793E+02 -0.59463444307E+02 -0.15158406319E+03  0.16519160238E+03  0.00000000000E+00 0. -1.
</event>
<event>
 7    1  0.8653652E-006  0.1048325E+03  0.7561462E-02  0.1270450E+00
          1   -1    0    0  501    0  0.00000000000E+00  0.00000000000E+00  0.84734024937E+02  0.84734024937E+02  0.00000000000E+00 0. -1.
         -1   -1    0    0    0  501 -0.00000000000E+00 -0.00000000000E+00 -0.22476631358E+03  0.22476631358E+03  0.00000000000E+00 0.  1.
         23    2    1    2    0    0  0.45448504867E+02 -0.68341015478E+01 -0.15574831918E+03  0.20498203092E+03  0.12509125683E+03 0.  0.
          5    1    3    3  502    0  0.69830561873E+02  0.33096931188E+02 -0.58597788523E+02  0.97071558375E+02  0.41800000000E+01 0. -1.
         -5    1    3    3    0  502 -0.24382057006E+02 -0.39931032736E+02 -0.97150530656E+02  0.10791047255E+03  0.41800000000E+01 0. -1.
        -11    1    1    2    0    0 -0.36064300687E+02  0.38216808154E+02  0.38047025991E+02  0.64874759316E+02  0.00000000000E+00 0.  1.
         11    1    1    2    0    0 -0.93842041800E+01 -0.31382706606E+02 -0.22330995459E+02  0.39643548280E+02  0.00000000000E+00 0. -1.
</event>
<event>
 7    1  0.8653652E-006  0.9577729E+02  0.7561462E-02  0.1289435E+00
         -2   -1    0    0    0  501 -0.00000000000E+00  0.00000000000E+00  0.65747702252E+02  0.65747702252E+02  0.00000000000E+00 0.  1.
          2   -1    0    0  501    0  0.00000000000E+00 -0.00000000000E+00 -0.27325998435E+03  0.27325998435E+03  0.00000000000E+00 0. -1.
         23    2    1    2    0    0 -0.20094515621E+02  0.27334713959E+02 -0.25980037282E+02  0.13218875157E+03  0.12509167662E+03 0.  0.
          5    1    3    3  502    0  0.17816632673E+02  0.47455073550E+02 -0.58984875210E+02  0.77885199550E+02  0.41800000000E+01 0. -1.
         -5    1    3    3    0  502 -0.37911148295E+02 -0.20120359592E+02  0.33004837928E+02  0.54303552018E+02  0.41800000000E+01 0. -1.
        -11    1    1    2    0    0  0.23578319769E+02  0.31102532769E+02 -0.55446369872E+02  0.67805638702E+02  0.00000000000E+00 0.  1.
         11    1    1    2    0    0 -0.34838041479E+01 -0.58437246728E+02 -0.12608587495E+03  0.13901329633E+03  0.00000000000E+00 0. -1.
</event>
<event>
 7    1  0.8653652E-006  0.1326998E+03  0.7561462E-02  0.1223504E+00
          2   -1    0    0  501    0  0.00000000000E+00  0.00000000000E+00  0.12625334065E+03  0.12625334065E+03  0.00000000000E+00 0. -1.
         -2   -1    0    0    0  501 -0.00000000000E+00 -0.00000000000E+00 -0.20042017499E+03  0.20042017499E+03  0.00000000000E+00 0.  1.
         23    2    1    2    0    0 -0.55045240076E+02  0.98035172337E+02 -0.70472239379E+02  0.18236144395E+03  0.12509390971E+03 0.  0.
          5    1    3    3  502    0 -0.78507567724E+02  0.87992713206E+02 -0.91268078962E+02  0.14917603831E+03  0.41800000000E+01 0. -1.
         -5    1    3    3    0  502  0.23462327648E+02  0.10042459130E+02  0.20795839583E+02  0.33185405648E+02  0.41800000000E+01 0. -1.
        -11    1    1    2    0    0  0.17961448698E+02 -0.76661430647E+02  0.35412481575E+02  0.86334422101E+02  0.00000000000E+00 0. -1.
         11    1    1    2    0    0  0.37083791378E+02 -0.21373741689E+02 -0.39107076531E+02  0.57977649586E+02  0.00000000000E+00 0.  1.
</event>
<event>
 7    1  0.8653652E-006  0.1323405E+03  0.7561462E-02  0.1224024E+00
         -1   -1    0    0    0  501 -0.00000000000E+00  0.00000000000E+00  0.83430458416E+03  0.83430458416E+03  0.00000000000E+00 0.  1.
          1   -1    0    0  501    0  0.00000000000E+00 -0.00000000000E+00 -0.58169997740E+02  0.58169997740E+02  0.00000000000E+00 0. -1.
         23    2    1    2    0    0 -0.56831377530E+02  0.69909576913E+02  0.74420907373E+03  0.76000765188E+03  0.12508929246E+03 0.  0.
          5    1    3    3  502    0 -0.81115447185E+02  0.14755624112E+02  0.56237769228E+03  0.56840442063E+03  0.41800000000E+01 0.  1.
         -5    1    3    3    0  502  0.24284069656E+02  0.55153952800E+02  0.18183138145E+03  0.19160323126E+03  0.41800000000E+01 0.  1.
        -11    1    1    2    0    0  0.38112419073E+02  0.10199188207E+02  0.31032143244E+02  0.50195356777E+02  0.00000000000E+00 0.  1.
         11    1    1    2    0    0  0.18718958457E+02 -0.80108765119E+02  0.89336945099E+00  0.82271573242E+02  0.00000000000E+00 0. -1.
</event>
<event>
 6    1  0.8653652E-006  0.2902348E+03  0.7561462E-02  0.1090227E+00
          1   -1    0    0  501    0  0.00000000000E+00  0.00000000000E+00  0.21546115250E+04  0.21546115250E+04  0.00000000000E+00 0. -1.
         -1   -1    0    0    0  501 -0.00000000000E+00 -0.00000000000E+00 -0.49627774834E+02  0.49627774834E+02  0.00000000000E+00 0.  1.
          5    1    1    2  502    0 -0.28581286072E+02 -0.94872488147E+02  0.11721162916E+03  0.15353734833E+03  0.41800000000E+01 0. -1.
         -5    1    1    2    0  502 -0.19934251464E+03 -0.55645373533E+02  0.64888924806E+03  0.68110834262E+03  0.41800000000E+01 0.  1.
        -11    1    1    2    0    0  0.21649749275E+03  0.14888173981E+03  0.13279526046E+04  0.13536968113E+04  0.00000000000E+00 0. -1.
         11    1    1    2    0    0  0.11426307960E+02  0.16361218702E+01  0.10930268379E+02  0.15896797640E+02  0.00000000000E+00 0.  1.
</event>
<event>
 7    1  0.8653652E-006  0.1338112E+03  0.7561462E-02  0.1221908E+00
          1   -1    0    0  501    0  0.00000000000E+00  0.00000000000E+00  0.33563291944E+02  0.33563291944E+02  0.00000000000E+00 0. -1.
         -1   -1    0    0    0  501 -0.00000000000E+00 -0.00000000000E+00 -0.72822177975E+03  0.72822177975E+03  0.00000000000E+00 0.  1.
         23    2    1    2    0    0 -0.28778896102E+02  0.10223967111E+03 -0.48764664218E+03  0.51184216040E+03  0.11358685806E+03 0.  0.
          5    1    3    3  502    0  0.42335725552E+01 -0.11778496342E+02 -0.39474688898E+01  0.13773562476E+02  0.41800000000E+01 0. -1.
         -5    1    3    3    0  502 -0.33012468657E+02  0.11401816745E+03 -0.48369917329E+03  0.49806859792E+03  0.41800000000E+01 0.  1.
        -11    1    1    2    0    0 -0.25745613778E+02 -0.64198264370E+02 -0.74317738801E+02  0.10152526817E+03  0.00000000000E+00 0. -1.
         11    1    1    2    0    0  0.54524509880E+02 -0.38041406738E+02 -0.13269410683E+03  0.14841764313E+03  0.00000000000E+00 0.  1.
</event>
<event>
 7    1  0.8653652E-006  0.1202136E+03  0.7561462E-02  0.1242745E+00
          2   -1    0    0  501    0  0.00000000000E+00  0.00000000000E+00  0.15142040795E+03  0.15142040795E+03  0.00000000000E+00 0. -1.
         -2   -1    0    0    0  501 -0.00000000000E+00 -0.00000000000E+00 -0.11636017626E+03  0.11636017626E+03  0.00000000000E+00 0.  1.
         23    2    1    2    0    0 -0.52068151539E+02 -0.48901114195E+02  0.12412800132E+02  0.14457884320E+03  0.12508618197E+03 0.  0.
          5    1    3    3  502    0  0.18995753343E+02 -0.46886474658E+02  0.43523093041E+02  0.66864880011E+02  0.41800000000E+01 0.  1.
         -5    1    3    3    0  502 -0.71063904882E+02 -0.20146395361E+01 -0.31110292909E+02  0.77713963188E+02  0.41800000000E+01 0.  1.
        -11    1    1    2    0    0 -0.14200734962E+02  0.50199684656E+02  0.22764457595E+02  0.56920029362E+02  0.00000000000E+00 0. -1.
         11    1    1    2    0    0  0.66268886501E+02 -0.12985704611E+01 -0.11702603824E+00  0.66281711643E+02  0.00000000000E+00 0.  1.
</event>
<event>
 7    1  0.8653652E-006  0.1049345E+03  0.7561462E-02  0.1270249E+00
         -1   -1    0    0    0  501 -0.00000000000E+00  0.00000000000E+00  0.69362913263E+03  0.69362913263E+03  0.00000000000E+00 0.  1.
          1   -1    0    0  501    0  0.00000000000E+00 -0.00000000000E+00 -0.39500432232E+02  0.39500432232E+02  0.00000000000E+00 0. -1.
         23    2    1    2    0    0 -0.65291417187E+02 -0.76144550162E+01  0.58092489418E+03  0.59786434455E+03  0.12508833967E+03 0.  0.
          5    1    3    3  502    0 -0.91932599289E+02 -0.24731914819E+02  0.29146172384E+03  0.30664422266E+03  0.41800000000E+01 0.  1.
         -5    1    3    3    0  502  0.26641182102E+02  0.17117459803E+02  0.28946317034E+03  0.29122012189E+03  0.41800000000E+01 0.  1.
        -11    1    1    2    0    0  0.22493679123E+02  0.27429186390E+02 -0.12359940331E+02  0.37564531030E+02  0.00000000000E+00 0. -1.
         11    1    1    2    0    0  0.42797738065E+02 -0.19814731374E+02  0.85563746547E+02  0.97700689281E+02  0.00000000000E+00 0.  1.
</event>
<event>
 7    1  0.8653652E-006  0.8230918E+02  0.7561462E-02  0.1322623E+00
         -2   -1    0    0    0  501 -0.00000000000E+00  0.00000000000E+00  0.31514367963E+02  0.31514367963E+02  0.00000000000E+00 0.  1.
          2   -1    0    0  501    0  0.00000000000E+00 -0.00000000000E+00 -0.43040302702E+03  0.43040302702E+03  0.00000000000E+00 0. -1.
         23    2    1    2    0    0 -0.26232677019E+02  0.28196054109E+02 -0.18885733947E+03  0.22977807290E+03  0.12509075626E+03 0.  0.
          5    1    3    3  502    0  0.36568649039E+02  0.26229678068E+02 -0.19743526997E+02  0.49320800504E+02  0.41800000000E+01 0. -1.
         -5    1    3    3    0  502 -0.62801326058E+02  0.19663760410E+01 -0.16911381248E+03  0.18045727239E+03  0.41800000000E+01 0. -1.
        -11    1    1    2    0    0  0.33783103065E+01  0.10764212971E+02  0.50540997758E+01  0.12362248419E+02  0.00000000000E+00 0.  1.
         11    1    1    2    0    0  0.22854366713E+02 -0.38960267080E+02 -0.21508541936E+03  0.21977707366E+03  0.00000000000E+00 0. -1.
</event>
<event>
 7    1  0.8653652E-006  0.1489043E+03  0.7561462E-02  0.1201826E+00
         -1   -1    0    0    0  501 -0.00000000000E+00  0.00000000000E+00  0.15717899677E+03  0.15717899677E+03  0.00000000000E+00 0.  1.
          1   -1    0    0  501    0  0.00000000000E+00 -0.00000000000E+00 -0.18693228731E+03  0.18693228731E+03  0.00000000000E+00 0. -1.
         23    2    1    2    0    0 -0.11652316719E+03 -0.66339579708E+02  0.14082607899E+02  0.18391519830E+03  0.12509153446E+03 0.  0.
          5    1    3    3  502    0 -0.11660360743E+03 -0.21471068787E+02 -0.28394347521E+02  0.12198819382E+03  0.41800000000E+01 0.  1.
         -5    1    3    3    0  502  0.80440239409E-01 -0.44868510921E+02  0.42476955420E+02  0.61927004486E+02  0.41800000000E+01 0.  1.
        -11    1    1    2    0    0  0.40358855094E+02  0.21597723876E+02  0.21257121941E+02  0.50469437230E+02  0.00000000000E+00 0.  1.
         11    1    1    2    0    0  0.76164312093E+02  0.44741855831E+02 -0.65093020379E+02  0.10972664855E+03  0.00000000000E+00 0. -1.
</event>
<event>
 7    1  0.8653652E-006  0.1655843E+03  0.7561462E-02  0.1182533E+00
         -2   -1    0    0    0  501 -0.00000000000E+00  0.00000000000E+00  0.26450114486E+02  0.26450114486E+02  0.00000000000E+00 0.  1.
          2   -1    0    0  501    0  0.00000000000E+00 -0.00000000000E+00 -0.14796523480E+04  0.14796523480E+04  0.00000000000E+00 0. -1.
         23    2    1    2    0    0 -0.56019220708E+02  0.14163529147E+03 -0.51392184977E+03  0.55041820644E+03  0.12508327399E+03 0.  0.
          5    1    3    3  502    0 -0.60809744725E+02  0.12155548840E+03 -0.51144169804E+03  0.52921039739E+03  0.41800000000E+01 0. -1.
         -5    1    3    3    0  502  0.47905240176E+01  0.20079803076E+02 -0.24801517251E+01  0.21207809046E+02  0.41800000000E+01 0. -1.
        -11    1    1    2    0    0  0.49491082746E+02 -0.21746328187E+02 -0.22646131868E+03  0.23282396551E+03  0.00000000000E+00 0. -1.
         11    1    1    2    0    0  0.65281379620E+01 -0.11988896329E+03 -0.71281906505E+03  0.72286029051E+03  0.00000000000E+00 0.  1.
</event>
<event>
 7    1  0.8653652E-006  0.1069015E+03  0.7561462E-02  0.1266418E+00
          1   -1    0    0  501    0  0.00000000000E+00  0.00000000000E+00  0.24515950349E+03  0.24515950349E+03  0.00000000000E+00 0. -1.
         -1   -1    0    0    0  501 -0.00000000000E+00 -0.00000000000E+00 -0.57621117236E+02  0.57621117236E+02  0.00000000000E+00 0.  1.
         23    2    1    2    0    0  0.43243934093E+02  0.16278761728E+02  0.55493405630E+02  0.14443737391E+03  0.12509037131E+03 0.  0.
          5    1    3    3  502    0  0.13456312118E+02 -0.51030150589E+02  0.13318029396E+01  0.52956535990E+02  0.41800000000E+01 0.  1.
         -5    1    3    3    0  502  0.29787621974E+02  0.67308912317E+02  0.54161602690E+02  0.91480837918E+02  0.41800000000E+01 0.  1.
        -11    1    1    2    0    0 -0.82924249745E+01 -0.42590726573E+02  0.71728869705E+02  0.83831766361E+02  0.00000000000E+00 0.  1.
         11    1    1    2    0    0 -0.34951509118E+02  0.26311964846E+02  0.60316110918E+02  0.74511480457E+02  0.00000000000E+00 0. -1.
</event>
<event>
 7    1  0.8653652E-006  0.7444331E+02  0.7561462E-02  0.1345604E+00
          1   -1    0    0  501    0  0.00000000000E+00  0.00000000000E+00  0.23259934556E+03  0.23259934556E+03  0.00000000000E+00 0. -1.
         -1   -1    0    0    0  501 -0.00000000000E+00 -0.00000000000E+00 -0.62344787913E+02  0.62344787913E+02  0.00000000000E+00 0.  1.
         23    2    1    2    0    0 -0.13244855265E+02  0.21821746074E+02  0.37175703641E+02  0.13296408120E+03  0.12508316896E+03 0.  0.
          5    1    3    3  502    0 -0.14222671092E+02 -0.14550676899E+02 -0.41373935981E+02  0.46295588881E+02  0.41800000000E+01 0.  1.
         -5    1    3    3    0  502  0.97781582647E+00  0.36372422974E+02  0.78549639622E+02  0.86668492323E+02  0.41800000000E+01 0.  1.
        -11    1    1    2    0    0 -0.90269411317E+01  0.31996271446E+02  0.38107442658E+02  0.50570982180E+02  0.00000000000E+00 0.  1.
         11    1    1    2    0    0  0.22271796397E+02 -0.53818017520E+02  0.94971411345E+02  0.11140907009E+03  0.00000000000E+00 0. -1.
</event>
<event>
 7    1  0.8653652E-006  0.1575257E+03  0.7561462E-02  0.1191519E+00
          1   -1    0    0  501    0  0.00000000000E+00  0.00000000000E+00  0.25458368372E+03  0.25458368372E+03  0.00000000000E+00 0. -1.
         -1   -1    0    0    0  501 -0.00000000000E+00 -0.00000000000E+00 -0.14307527241E+03  0.14307527241E+03  0.00000000000E+00 0.  1.
         23    2    1    2    0    0 -0.29988928656E+02  0.14511254190E+03  0.58810754538E+01  0.19400747133E+03  0.12508927301E+03 0.  0.
          5    1    3    3  502    0 -0.13707149869E+02  0.63554390306E+02 -0.59425383669E+02  0.88181035994E+02  0.41800000000E+01 0.  1.
         -5    1    3    3    0  502 -0.16281778787E+02  0.81558151598E+02  0.65306459123E+02  0.10582643534E+03  0.41800000000E+01 0.  1.
        -11    1    1    2    0    0 -0.25872782045E+02 -0.41119994757E+02  0.59737795255E+02  0.76999084420E+02  0.00000000000E+00 0. -1.
         11    1    1    2    0    0  0.55861710702E+02 -0.10399254715E+03  0.45889540607E+02  0.12665240038E+03  0.00000000000E+00 0.  1.
</event>
<event>
 7    1  0.8653652E-006  0.2088938E+03  0.7561462E-02  0.1142445E+00
          2   -1    0    0  501    0  0.00000000000E+00  0.00000000000E+00  0.45603711383E+03  0.45603711383E+03  0.00000000000E+00 0.  1.
         -2   -1    0    0    0  501 -0.00000000000E+00 -0.00000000000E+00 -0.10419968273E+03  0.10419968273E+03  0.00000000000E+00 0. -1.
         23    2    1    2    0    0 -0.67713002034E+02  0.17521926404E+03  0.17185736740E+03  0.28366940188E+03  0.12508610514E+03 0.  0.
          5    1    3    3  502    0 -0.10024089580E+03  0.15584676323E+03  0.12631184234E+03  0.22429579737E+03  0.41800000000E+01 0.  1.
         -5    1    3    3    0  502  0.32527893763E+02  0.19372500806E+02  0.45545525062E+02  0.59373604516E+02  0.41800000000E+01 0.  1.
        -11    1    1    2    0    0  0.13261582004E+01 -0.69514001340E+02  0.11858140710E+03  0.13746092240E+03  0.00000000000E+00 0.  1.
         11    1    1    2    0    0  0.66386843834E+02 -0.10570526270E+03  0.61398656592E+02  0.13910647227E+03  0.00000000000E+00 0. -1.
</event>
<event>
 7    1  0.8653652E-006  0.1388753E+03  0.7561462E-02  0.1214850E+00
          2   -1    0    0  501    0  0.00000000000E+00  0.00000000000E+00  0.56424936825E+03  0.56424936825E+03  0.00000000000E+00 0. -1.
         -2   -1    0    0    0  501 -0.00000000000E+00 -0.00000000000E+00 -0.37128287258E+02  0.37128287258E+02  0.00000000000E+00 0.  1.
         23    2    1    2    0    0  0.84434700659E+02  0.44793977640E+02  0.26722945198E+03  0.31015193800E+03  0.12508767137E+03 0.  0.
          5    1    3    3  502    0  0.82775696755E+02  0.83853083781E+02  0.20711320127E+03  0.23832017576E+03  0.41800000000E+01 0.  1.
         -5    1    3    3    0  502  0.16590039038E+01 -0.39059106141E+02  0.60116250716E+02  0.71831762241E+02  0.41800000000E+01 0.  1.
        -11    1    1    2    0    0 -0.57882401560E+02 -0.65095839433E+02  0.23158462055E+03  0.24742529619E+03  0.00000000000E+00 0.  1.
         11    1    1    2    0    0 -0.26552299098E+02  0.20301861793E+02  0.28307008458E+02  0.43800421316E+02  0.00000000000E+00 0. -1.
</event>
<event>
 7    1  0.8653652E-006  0.1680429E+03  0.7561462E-02  0.1179904E+00
          2   -1    0    0  501    0  0.00000000000E+00  0.00000000000E+00  0.48993030889E+02  0.48993030889E+02  0.00000000000E+00 0. -1.
         -2   -1    0    0    0  501 -0.00000000000E+00 -0.00000000000E+00 -0.93725782791E+03  0.93725782791E+03  0.00000000000E+00 0.  1.
         23    2    1    2    0    0  0.90547256717E+02  0.11394914518E+03 -0.73136925379E+03  0.75612958829E+03  0.12509098894E+03 0.  0.
          5    1    3    3  502    0  0.31923606029E+00  0.98465479561E+02 -0.42916408577E+03  0.44033491514E+03  0.41800000000E+01 0. -1.
         -5    1    3    3    0  502  0.90228020657E+02  0.15483665616E+02 -0.30220516802E+03  0.31579467315E+03  0.41800000000E+01 0. -1.
        -11    1    1    2    0    0 -0.76033113885E+02 -0.89300153307E+02 -0.65458678497E+02  0.13431452036E+03  0.00000000000E+00 0.  1.
         11    1    1    2    0    0 -0.14514142832E+02 -0.24648991870E+02 -0.91436864730E+02  0.95806750149E+02  0.00000000000E+00 0. -1.
</event>
<event>
 7    1  0.8653652E-006  0.1799328E+03  0.7561462E-02  0.1167868E+00
          1   -1    0    0  501    0  0.00000000000E+00  0.00000000000E+00  0.25085496936E+03  0.25085496936E+03  0.00000000000E+00 0. -1.
         -1   -1    0    0    0  501 -0.00000000000E+00 -0.00000000000E+00 -0.15344753955E+03  0.15344753955E+03  0.00000000000E+00 0.  1.
         23    2    1    2    0    0  0.15004656033E+02  0.15567867741E+03  0.56506169632E+01  0.20028634825E+03  0.12498680539E+03 0.  0.
          5    1    3    3  502    0 -0.17069893510E+02 -0.51446172880E+01  0.29294954923E+02  0.34547288394E+02  0.41800000000E+01 0. -1.
         -5    1    3    3    0  502  0.32074549542E+02  0.16082329469E+03 -0.23644337959E+02  0.16573905986E+03  0.41800000000E+01 0. -1.
        -11    1    1    2    0    0  0.35013218282E+02 -0.70955254629E+02  0.64062220333E+02  0.10180639316E+03  0.00000000000E+00 0.  1.
         11    1    1    2    0    0 -0.50017874315E+02 -0.84723422776E+02  0.27694592511E+02  0.10220976750E+03  0.00000000000E+00 0. -1.
</event>
<event>
 7    1  0.8653652E-006  0.2288991E+03  0.7561462E-02  0.1127417E+00
          1   -1    0    0  501    0  0.00000000000E+00  0.00000000000E+00  0.52327951295E+03  0.52327951295E+03  0.00000000000E+00 0.  1.
         -1   -1    0    0    0  501 -0.00000000000E+00 -0.00000000000E+00 -0.11449114911E+03  0.11449114911E+03  0.00000000000E+00 0. -1.
         23    2    1    2    0    0 -0.20775122240E+03 -0.70303634562E+02  0.22148548341E+03  0.33586791872E+03  0.12509303748E+03 0.  0.
          5    1    3    3  502    0 -0.55600139792E+02 -0.31149090266E+02  0.15035343397E+03  0.16335626365E+03  0.41800000000E+01 0. -1.
         -5    1    3    3    0  502 -0.15215108261E+03 -0.39154544296E+02  0.71132049440E+02  0.17251165507E+03  0.41800000000E+01 0. -1.
        -11    1    1    2    0    0  0.17728677895E+03  0.91642371518E+02  0.15687482642E+03  0.25384766576E+03  0.00000000000E+00 0.  1.
         11    1    1    2    0    0  0.30464443451E+02 -0.21338736956E+02  0.30428054020E+02  0.48055077579E+02  0.00000000000E+00 0. -1.
</event>
<event>
 7    1  0.8653652E-006  0.1114395E+03  0.7561462E-02  0.1257927E+00
         -1   -1    0    0    0  501 -0.00000000000E+00  0.00000000000E+00  0.41024363133E+03  0.41024363133E+03  0.00000000000E+00 0.  1.
          1   -1    0    0  501    0  0.00000000000E+00 -0.00000000000E+00 -0.53980676684E+02  0.53980676684E+02  0.00000000000E+00 0. -1.
         23    2    1    2    0    0 -0.77008544059E+02 -0.27753900784E+02  0.28669472976E+03  0.32332779742E+03  0.12508557728E+03 0.  0.
          5    1    3    3  502    0 -0.51152472546E+02  0.20370019937E+02  0.34186745408E+02  0.64943969091E+02  0.41800000000E+01 0.  1.
         -5    1    3    3    0  502 -0.25856071514E+02 -0.48123920721E+02  0.25250798435E+03  0.25838382832E+03  0.41800000000E+01 0.  1.
        -11    1    1    2    0    0  0.62640421599E+02 -0.17787909908E+02  0.66455391958E+02  0.93040589408E+02  0.00000000000E+00 0.  1.
         11    1    1    2    0    0  0.14368122460E+02  0.45541810692E+02  0.31128329305E+01  0.47855921190E+02  0.00000000000E+00 0. -1.
</event>
<event>
 7    1  0.8653652E-006  0.1011136E+03  0.7561462E-02  0.1277971E+00
          2   -1    0    0  501    0  0.00000000000E+00  0.00000000000E+00  0.99892067996E+01  0.99892067996E+01  0.00000000000E+00 0. -1.
         -2   -1    0    0    0  501 -0.00000000000E+00 -0.00000000000E+00 -0.11031772060E+04  0.11031772060E+04  0.00000000000E+00 0.  1.
         23    2    1    2    0    0 -0.56956117054E+02  0.26094703292E+02 -0.82660334355E+03  0.83737358016E+03  0.11830677229E+03 0.  0.
          5    1    3    3  502    0  0.31576934101E+02 -0.15051711800E+02 -0.26515271636E+03  0.26748288205E+03  0.41800000000E+01 0. -1.
         -5    1    3    3    0  502 -0.88533051155E+02  0.41146415092E+02 -0.56145062719E+03  0.56989069811E+03  0.41800000000E+01 0.  1.
        -11    1    1    2    0    0  0.11975099804E+01 -0.11609750767E+02 -0.69030966824E+02  0.70010675783E+02  0.00000000000E+00 0.  1.
         11    1    1    2    0    0  0.55758607073E+02 -0.14484952525E+02 -0.19755368886E+03  0.20578215689E+03  0.00000000000E+00 0. -1.
</event>
<event>
 7    1  0.8653652E-006  0.1566223E+03  0.7561462E-02  0.1192564E+00
         -3   -1    0    0    0  501 -0.00000000000E+00  0.00000000000E+00  0.10467486937E+03  0.10467486937E+03  0.00000000000E+00 0.  1.
          3   -1    0    0  501    0  0.00000000000E+00 -0.00000000000E+00 -0.31545561236E+03  0.31545561236E+03  0.00000000000E+00 0. -1.
         23    2    1    2    0    0  0.44330438008E+02 -0.13615667797E+03 -0.80648192833E+02  0.20652912065E+03  0.12508524286E+03 0.  0.
          5    1    3    3  502    0  0.68824081340E+00 -0.19926804956E+02 -0.79741040985E+02  0.82302231127E+02  0.41800000000E+01 0.  1.
         -5    1    3    3    0  502  0.43642197195E+02 -0.11622987302E+03 -0.90715184860E+00  0.12422688953E+03  0.41800000000E+01 0.  1.
        -11    1    1    2    0    0 -0.51200367516E+02  0.14708438190E+03 -0.11435124057E+03  0.19321361042E+03  0.00000000000E+00 0.  1.
         11    1    1    2    0    0  0.68699295077E+01 -0.10927703928E+02 -0.15781309582E+02  0.20387750653E+02  0.00000000000E+00 0. -1.
</event>
<event>
 7    1  0.8653652E-006  0.1269353E+03  0.7561462E-02  0.1232075E+00
          1   -1    0    0  501    0  0.00000000000E+00  0.00000000000E+00  0.42181829535E+03  0.42181829535E+03  0.00000000000E+00 0. -1.
         -1   -1    0    0    0  501 -0.00000000000E+00 -0.00000000000E+00 -0.72704280055E+02  0.72704280055E+02  0.00000000000E+00 0.  1.
         23    2    1    2    0    0 -0.75672073754E+02 -0.97407083949E+02  0.94523484030E+02  0.19949064601E+03  0.12508967209E+03 0.  0.
          5    1    3    3  502    0 -0.58941056234E+02 -0.75359871894E+02 -0.52087327614E+01  0.95904961805E+02  0.41800000000E+01 0.  1.
         -5    1    3    3    0  502 -0.16731017519E+02 -0.22047212055E+02  0.99732216791E+02  0.10358568421E+03  0.41800000000E+01 0.  1.
        -11    1    1    2    0    0  0.26129113807E+02  0.67175086223E+02  0.66062905579E+02  0.97772850480E+02  0.00000000000E+00 0.  1.
         11    1    1    2    0    0  0.49542959947E+02  0.30231997726E+02  0.18852762569E+03  0.19725907891E+03  0.00000000000E+00 0. -1.
</event>
<event>
 7    1  0.8653652E-006  0.1576602E+03  0.7561462E-02  0.1191364E+00
          1   -1    0    0  501    0  0.00000000000E+00  0.00000000000E+00  0.10696269235E+04  0.10696269235E+04  0.00000000000E+00 0. -1.
         -1   -1    0    0    0  501 -0.00000000000E+00 -0.00000000000E+00 -0.28743611205E+02  0.28743611205E+02  0.00000000000E+00 0.  1.
         23    2    1    2    0    0 -0.11801782617E+03  0.42127054451E+02  0.37494758852E+03  0.41465116966E+03  0.12508797846E+03 0.  0.
          5    1    3    3  502    0 -0.10640026345E+03 -0.23802711342E+02  0.25173432848E+03  0.27436331691E+03  0.41800000000E+01 0.  1.
         -5    1    3    3    0  502 -0.11617562719E+02  0.65929765794E+02  0.12321326004E+03  0.14028785276E+03  0.41800000000E+01 0.  1.
        -11    1    1    2    0    0  0.11328131894E+02  0.14458254921E+02  0.22484315834E+02  0.29032949662E+02  0.00000000000E+00 0.  1.
         11    1    1    2    0    0  0.10668969428E+03 -0.56585309373E+02  0.64345140796E+03  0.65468641540E+03  0.00000000000E+00 0. -1.
</event>
<event>
 7    1  0.8653652E-006  0.8506964E+02  0.7561462E-02  0.1315251E+00
          4   -1    0    0  501    0  0.00000000000E+00  0.00000000000E+00  0.69262548617E+02  0.69262548617E+02  0.00000000000E+00 0. -1.
         -4   -1    0    0    0  501 -0.00000000000E+00 -0.00000000000E+00 -0.13747973892E+03  0.13747973892E+03  0.00000000000E+00 0.  1.
         23    2    1    2    0    0  0.32969273762E+02  0.98268620941E+01 -0.66202781627E+02  0.14566899475E+03  0.12511237951E+03 0.  0.
          5    1    3    3  502    0  0.14031650931E+02 -0.53189414694E+02 -0.44727394692E+01  0.55348702439E+02  0.41800000000E+01 0. -1.
         -5    1    3    3    0  502  0.18937622831E+02  0.63016276788E+02 -0.61730042158E+02  0.90320292313E+02  0.41800000000E+01 0. -1.
        -11    1    1    2    0    0 -0.75705939859E+01 -0.20223786497E+02  0.17170025639E+02  0.27588497857E+02  0.00000000000E+00 0. -1.
         11    1    1    2    0    0 -0.25398679776E+02  0.10396924403E+02 -0.19184434315E+02  0.33484794928E+02  0.00000000000E+00 0.  1.
</event>
<event>
 7    1  0.8653652E-006  0.1147766E+03  0.7561462E-02  0.1251971E+00
          2   -1    0    0  501    0  0.00000000000E+00  0.00000000000E+00  0.60670430198E+03  0.60670430198E+03  0.00000000000E+00 0. -1.
         -2   -1    0    0    0  501 -0.00000000000E+00 -0.00000000000E+00 -0.26977690606E+02  0.26977690606E+02  0.00000000000E+00 0.  1.
         23    2    1    2    0    0  0.33211053206E+02  0.12754777787E+02  0.18473928617E+03  0.22591365700E+03  0.12507085254E+03 0.  0.
          5    1    3    3  502    0  0.80484324419E+02  0.80160320626E+01  0.13145896364E+03  0.15440503479E+03  0.41800000000E+01 0. -1.
         -5    1    3    3    0  502 -0.47273271213E+02  0.47387457243E+01  0.53280322525E+02  0.71508622212E+02  0.41800000000E+01 0. -1.
        -11    1    1    2    0    0  0.33362052929E+02 -0.66336395871E+01  0.11613143584E+03  0.12101050426E+03  0.00000000000E+00 0.  1.
         11    1    1    2    0    0 -0.66573106135E+02 -0.61211381998E+01  0.27885588937E+03  0.28675783133E+03  0.00000000000E+00 0. -1.
</event>
<event>
 7    1  0.8653652E-006  0.2049376E+03  0.7561462E-02  0.1145639E+00
         -2   -1    0    0    0  501 -0.00000000000E+00  0.00000000000E+00  0.55384557732E+02  0.55384557732E+02  0.00000000000E+00 0.  1.
          2   -1    0    0  501    0  0.00000000000E+00 -0.00000000000E+00 -0.96908403226E+03  0.96908403226E+03  0.00000000000E+00 0. -1.
         23    2    1    2    0    0 -0.59199121280E+02  0.19497440530E+03 -0.44423609655E+03  0.50449256703E+03  0.12508991176E+03 0.  0.
          5    1    3    3  502    0 -0.42876308542E+02  0.15644058273E+03 -0.20429993857E+03  0.26089839222E+03  0.41800000000E+01 0.  1.
         -5    1    3    3    0  502 -0.16322812738E+02  0.38533822572E+02 -0.23993615798E+03  0.24359417481E+03  0.41800000000E+01 0.  1.
        -11    1    1    2    0    0  0.18733138577E+02 -0.10818879805E+03 -0.35030942419E+03  0.36711365976E+03  0.00000000000E+00 0. -1.
         11    1    1    2    0    0  0.40465982703E+02 -0.86785607249E+02 -0.11915395379E+03  0.15286236321E+03  0.00000000000E+00 0.  1.
</event>
<event>
 7    1  0.8653652E-006  0.1299485E+03  0.7561462E-02  0.1227532E+00
          2   -1    0    0  501    0  0.00000000000E+00  0.00000000000E+00  0.15580611958E+03  0.15580611958E+03  0.00000000000E+00 0. -1.
         -2   -1    0    0    0  501 -0.00000000000E+00 -0.00000000000E+00 -0.17421928218E+03  0.17421928218E+03  0.00000000000E+00 0.  1.
         23    2    1    2    0    0 -0.53061991309E+02  0.11127005784E+03 -0.28845631332E+02  0.17797690246E+03  0.12508839542E+03 0.  0.
          5    1    3    3  502    0 -0.31869372242E+02  0.11160207814E+02 -0.61668335096E+02  0.70431974835E+02  0.41800000000E+01 0. -1.
         -5    1    3    3    0  502 -0.21192619066E+02  0.10010985002E+03  0.32822703765E+02  0.10754492762E+03  0.41800000000E+01 0. -1.
        -11    1    1    2    0    0  0.38589874414E+02 -0.73579533270E+02 -0.35973140457E+02  0.90538350757E+02  0.00000000000E+00 0.  1.
         11    1    1    2    0    0  0.14472116895E+02 -0.37690524568E+02  0.46405609191E+02  0.61510148545E+02  0.00000000000E+00 0. -1.
</event>
<event>
 7    1  0.8653652E-006  0.1370885E+03  0.7561462E-02  0.1217301E+00
         -1   -1    0    0    0  501 -0.00000000000E+00  0.00000000000E+00  0.40765914244E+02  0.40765914244E+02  0.00000000000E+00 0.  1.
          1   -1    0    0  501    0  0.00000000000E+00 -0.00000000000E+00 -0.46658075190E+03  0.46658075190E+03  0.00000000000E+00 0. -1.
         23    2    1    2    0    0  0.79184960936E+02  0.28174812497E+02 -0.21600477619E+03  0.26338226186E+03  0.12509226365E+03 0.  0.
          5    1    3    3  502    0  0.10263680975E+03  0.53588439654E+02 -0.16752324844E+03  0.20368492028E+03  0.41800000000E+01 0. -1.
         -5    1    3    3    0  502 -0.23451848818E+02 -0.25413627157E+02 -0.48481527752E+02  0.59697341577E+02  0.41800000000E+01 0. -1.
        -11    1    1    2    0    0 -0.47739215478E+02 -0.61375375508E+02 -0.11670515416E+03  0.14023573874E+03  0.00000000000E+00 0.  1.
         11    1    1    2    0    0 -0.31445745458E+02  0.33200563010E+02 -0.93104907309E+02  0.10372866555E+03  0.00000000000E+00 0. -1.
</event>
<event>
 7    1  0.8653652E-006  0.1110792E+03  0.7561462E-02  0.1258584E+00
          1   -1    0    0  501    0  0.00000000000E+00  0.00000000000E+00  0.24426042248E+02  0.24426042248E+02  0.00000000000E+00 0. -1.
         -1   -1    0    0    0  501 -0.00000000000E+00 -0.00000000000E+00 -0.59314444198E+03  0.59314444198E+03  0.00000000000E+00 0.  1.
         23    2    1    2    0    0 -0.38665836335E+02  0.38617797124E+01 -0.39323858099E+03  0.41447922249E+03  0.12508590672E+03 0.  0.
          5    1    3    3  502    0 -0.26121139702E+02 -0.57833009188E+02 -0.24995446127E+03  0.25791796370E+03  0.41800000000E+01 0. -1.
         -5    1    3    3    0  502 -0.12544696632E+02  0.61694788900E+02 -0.14328411971E+03  0.15656125879E+03  0.41800000000E+01 0. -1.
        -11    1    1    2    0    0 -0.18463299704E+02 -0.27924682222E+02 -0.99793556195E+02  0.10525889592E+03  0.00000000000E+00 0.  1.
         11    1    1    2    0    0  0.57129136039E+02  0.24062902509E+02 -0.75686262552E+02  0.97832365814E+02  0.00000000000E+00 0. -1.
</event>
<event>
 7    1  0.8653652E-006  0.2300528E+03  0.7561462E-02  0.1126603E+00
         -3   -1    0    0    0  501 -0.00000000000E+00  0.00000000000E+00  0.17899727122E+03  0.17899727122E+03  0.00000000000E+00 0.  1.
          3   -1    0    0  501    0  0.00000000000E+00 -0.00000000000E+00 -0.32458213601E+03  0.32458213601E+03  0.00000000000E+00 0. -1.
         23    2    1    2    0    0 -0.18887083938E+03  0.10192680029E+03 -0.71644900519E+02  0.25854813139E+03  0.12511146188E+03 0.  0.
          5    1    3    3  502    0 -0.17851723967E+03  0.68287542024E+02 -0.15048789685E+02  0.19176947548E+03  0.41800000000E+01 0. -1.
         -5    1    3    3    0  502 -0.10353599702E+02  0.33639258266E+02 -0.56596110834E+02  0.66778655909E+02  0.41800000000E+01 0. -1.
        -11    1    1    2    0    0  0.37903628573E+02  0.16764308874E+02 -0.10082123920E+02  0.42654147908E+02  0.00000000000E+00 0.  1.
         11    1    1    2    0    0  0.15096721080E+03 -0.11869110916E+03 -0.63857840351E+02  0.20237712792E+03  0.00000000000E+00 0. -1.
</event>
<event>
 7    1  0.8653652E-006  0.7221956E+02  0.7561462E-02  0.1352704E+00
         -1   -1    0    0    0  501 -0.00000000000E+00  0.00000000000E+00  0.31027580156E+03  0.31027580156E+03  0.00000000000E+00 0.  1.
          1   -1    0    0  501    0  0.00000000000E+00 -0.00000000000E+00 -0.57598111553E+02  0.57598111553E+02  0.00000000000E+00 0. -1.
         23    2    1    2    0    0 -0.50730957815E+01  0.46333550752E+01  0.24558283712E+03  0.27568843042E+03  0.12508387786E+03 0.  0.
          5    1    3    3  502    0  0.29431893405E+02 -0.27965001991E+02  0.21550960412E+03  0.21934023697E+03  0.41800000000E+01 0. -1.
         -5    1    3    3    0  502 -0.34504989186E+02  0.32598357066E+02  0.30073232996E+02  0.56348193449E+02  0.41800000000E+01 0. -1.
        -11    1    1    2    0    0  0.22162586734E+02  0.17337776129E+02  0.40114134052E+02  0.48999208999E+02  0.00000000000E+00 0.  1.
         11    1    1    2    0    0 -0.17089490952E+02 -0.21971131204E+02 -0.33019281161E+02  0.43186273696E+02  0.00000000000E+00 0. -1.
</event>
<event>
 7    1  0.8653652E-006  0.1071368E+03  0.7561462E-02  0.1265966E+00
         -1   -1    0    0    0  501 -0.00000000000E+00  0.00000000000E+00  0.10117712894E+03  0.10117712894E+03  0.00000000000E+00 0.  1.
          1   -1    0    0  501    0  0.00000000000E+00 -0.00000000000E+00 -0.20876938488E+03  0.20876938488E+03  0.00000000000E+00 0. -1.
         23    2    1    2    0    0 -0.30987268162E+02  0.92430486769E+01  0.29218533502E+02  0.13245903714E+03  0.12508408805E+03 0.  0.
          5    1    3    3  502    0  0.38577058891E+02  0.28059715953E+02 -0.11957120582E+02  0.49355671049E+02  0.41800000000E+01 0. -1.
         -5    1    3    3    0  502 -0.69564327054E+02 -0.18816667276E+02  0.41175654084E+02  0.83103366087E+02  0.41800000000E+01 0. -1.
        -11    1    1    2    0    0 -0.26589110123E+02  0.16329293248E+02 -0.99477964268E+02  0.10425685575E+03  0.00000000000E+00 0. -1.
         11    1    1    2    0    0  0.57576378286E+02 -0.25572341925E+02 -0.37332825176E+02  0.73230620943E+02  0.00000000000E+00 0.  1.
</event>
<event>
 7    1  0.8653652E-006  0.6554931E+02  0.7561462E-02  0.1375917E+00
         -1   -1    0    0    0  501 -0.00000000000E+00  0.00000000000E+00  0.22054429082E+03  0.22054429082E+03  0.00000000000E+00 0.  1.
          1   -1    0    0  501    0  0.00000000000E+00 -0.00000000000E+00 -0.92201842203E+02  0.92201842203E+02  0.00000000000E+00 0. -1.
         23    2    1    2    0    0  0.60183474318E+02 -0.24245931527E+02  0.14165500562E+03  0.19980698649E+03  0.12508707151E+03 0.  0.
          5    1    3    3  502    0  0.40803040209E+02 -0.19452977980E+02 -0.10250057535E+02  0.46538613238E+02  0.41800000000E+01 0. -1.
         -5    1    3    3    0  502  0.19380434109E+02 -0.47929535470E+01  0.15190506315E+03  0.15326837326E+03  0.41800000000E+01 0. -1.
        -11    1    1    2    0    0 -0.43832929146E+02  0.14019334292E+02  0.37004728281E+02  0.59052665704E+02  0.00000000000E+00 0.  1.
         11    1    1    2    0    0 -0.16350545172E+02  0.10226597235E+02 -0.50317285276E+02  0.53886480828E+02  0.00000000000E+00 0. -1.
</event>
<event>
 7    1  0.8653652E-006  0.1033639E+03  0.7561462E-02  0.1273377E+00
         -2   -1    0    0    0  501 -0.00000000000E+00  0.00000000000E+00  0.26322653087E+03  0.26322653087E+03  0.00000000000E+00 0.  1.
          2   -1    0    0  501    0  0.00000000000E+00 -0.00000000000E+00 -0.46215931636E+02  0.46215931636E+02  0.00000000000E+00 0. -1.
         23    2    1    2    0    0 -0.15950442173E+02  0.15611480507E+01  0.13235560560E+03  0.18281763458E+03  0.12508967740E+03 0.  0.
          5    1    3    3  502    0 -0.46939896707E+02 -0.40345168280E+02  0.32342997363E+02  0.69961620799E+02  0.41800000000E+01 0. -1.
         -5    1    3    3    0  502  0.30989454533E+02  0.41906316331E+02  0.10001260824E+03  0.11285601379E+03  0.41800000000E+01 0. -1.
        -11    1    1    2    0    0  0.43424303703E+02 -0.30063861066E+02  0.60234473459E+02  0.80110534183E+02  0.00000000000E+00 0.  1.
         11    1    1    2    0    0 -0.27473861529E+02  0.28502713015E+02  0.24420520174E+02  0.46514293740E+02  0.00000000000E+00 0. -1.
</event>
<event>
 7    1  0.8653652E-006  0.1246454E+03  0.7561462E-02  0.1235625E+00
          1   -1    0    0  501    0  0.00000000000E+00  0.00000000000E+00  0.30784983793E+03  0.30784983793E+03  0.00000000000E+00 0. -1.
         -1   -1    0    0    0  501 -0.00000000000E+00 -0.00000000000E+00 -0.59687427349E+02  0.59687427349E+02  0.00000000000E+00 0.  1.
         23    2    1    2    0    0  0.80086336021E+01 -0.81273200923E+02  0.12870680000E+03  0.19718689179E+03  0.12509100098E+03 0.  0.
          5    1    3    3  502    0 -0.52125279331E+02 -0.40434259758E+02  0.97901680092E+02  0.11812783530E+03  0.41800000000E+01 0. -1.
         -5    1    3    3    0  502  0.60133912933E+02 -0.40838941165E+02  0.30805119910E+02  0.79059056488E+02  0.41800000000E+01 0. -1.
        -11    1    1    2    0    0 -0.41133172916E+01 -0.14221416962E+02 -0.29060123490E+01  0.15086848157E+02  0.00000000000E+00 0.  1.
         11    1    1    2    0    0 -0.38953163105E+01  0.95494617885E+02  0.12236162293E+03  0.15526352534E+03  0.00000000000E+00 0. -1.
</event>
<event>
 7    1  0.8653652E-006  0.1018633E+03  0.7561462E-02  0.1276426E+00
          2   -1    0    0  501    0  0.00000000000E+00  0.00000000000E+00  0.14218556945E+04  0.14218556945E+04  0.00000000000E+00 0. -1.
         -2   -1    0    0    0  501 -0.00000000000E+00 -0.00000000000E+00 -0.10089809717E+02  0.10089809717E+02  0.00000000000E+00 0.  1.
         23    2    1    2    0    0  0.10120842279E+02  0.49220482893E+02  0.85010982891E+03  0.86073170552E+03  0.12508900949E+03 0.  0.
          5    1    3    3  502    0  0.47405853107E+02  0.38011065449E+02  0.19135795223E+03  0.20081706672E+03  0.41800000000E+01 0. -1.
         -5    1    3    3    0  502 -0.37285010828E+02  0.11209417444E+02  0.65875187668E+03  0.65991463880E+03  0.41800000000E+01 0. -1.
        -11    1    1    2    0    0 -0.47913861818E+02 -0.95211213898E+01  0.28957382909E+03  0.29366544298E+03  0.00000000000E+00 0. -1.
         11    1    1    2    0    0  0.37793019538E+02 -0.39699361503E+02  0.27208222680E+03  0.27754835573E+03  0.00000000000E+00 0.  1.
</event>
<event>
 7    1  0.8653652E-006  0.1590823E+03  0.7561462E-02  0.1189737E+00
          1   -1    0    0  501    0  0.00000000000E+00  0.00000000000E+00  0.16143048466E+04  0.16143048466E+04  0.00000000000E+00 0. -1.
         -1   -1    0    0    0  501 -0.00000000000E+00 -0.00000000000E+00 -0.17831247852E+02  0.17831247852E+02  0.00000000000E+00 0.  1.
         23    2    1    2    0    0  0.90971533514E+02 -0.89985043962E+02  0.71943751710E+03  0.74135825217E+03  0.12509432043E+03 0.  0.
          5    1    3    3  502    0  0.27079016015E+02 -0.94536250971E+02  0.27041985142E+03  0.28777551024E+03  0.41800000000E+01 0. -1.
         -5    1    3    3    0  502  0.63892517499E+02  0.45512070087E+01  0.44901766569E+03  0.45358274193E+03  0.41800000000E+01 0. -1.
        -11    1    1    2    0    0 -0.70906790900E+02  0.82497412818E+01  0.43082981754E+03  0.43670374731E+03  0.00000000000E+00 0. -1.
         11    1    1    2    0    0 -0.20064742614E+02  0.81735302680E+02  0.44620626407E+03  0.45407409494E+03  0.00000000000E+00 0.  1.
</event>
<event>
 7    1  0.8653652E-006  0.1746294E+03  0.7561462E-02  0.1173104E+00
         -2   -1    0    0    0  501 -0.00000000000E+00  0.00000000000E+00  0.71912240371E+02  0.71912240371E+02  0.00000000000E+00 0. -1.
          2   -1    0    0  501    0  0.00000000000E+00 -0.00000000000E+00 -0.55081382073E+03  0.55081382073E+03  0.00000000000E+00 0.  1.
         23    2    1    2    0    0 -0.11084893846E+03 -0.87317323433E+02 -0.11221853200E+03  0.21943625078E+03  0.12508983612E+03 0.  0.
          5    1    3    3  502    0 -0.13766485768E+03 -0.75837671691E+02 -0.10510213032E+03  0.18912137818E+03  0.41800000000E+01 0.  1.
         -5    1    3    3    0  502  0.26815919217E+02 -0.11479651741E+02 -0.71164016808E+01  0.30314872595E+02  0.41800000000E+01 0.  1.
        -11    1    1    2    0    0  0.29196855144E+01  0.47399118630E+02 -0.65760033975E+02  0.81114629253E+02  0.00000000000E+00 0.  1.
         11    1    1    2    0    0  0.10792925294E+03  0.39918204803E+02 -0.30092301438E+03  0.32217518107E+03  0.00000000000E+00 0. -1.
</event>
<event>
 7    1  0.8653652E-006  0.1234244E+03  0.7561462E-02  0.1237552E+00
          2   -1    0    0  501    0  0.00000000000E+00  0.00000000000E+00  0.10624780520E+04  0.10624780520E+04  0.00000000000E+00 0. -1.
         -2   -1    0    0    0  501 -0.00000000000E+00 -0.00000000000E+00 -0.15227833538E+02  0.15227833538E+02  0.00000000000E+00 0.  1.
         23    2    1    2    0    0  0.56862817228E+02 -0.26668807759E+02  0.56960547074E+03  0.58655171359E+03  0.12509162693E+03 0.  0.
          5    1    3    3  502    0  0.93170480063E+02 -0.16524343970E+02  0.30870820256E+03  0.32291178211E+03  0.41800000000E+01 0.  1.
         -5    1    3    3    0  502 -0.36307662836E+02 -0.10144463789E+02  0.26089726818E+03  0.26363993148E+03  0.41800000000E+01 0.  1.
        -11    1    1    2    0    0 -0.10650712147E+02 -0.35316104736E+02  0.14100404874E+03  0.14574912241E+03  0.00000000000E+00 0.  1.
         11    1    1    2    0    0 -0.46212105080E+02  0.61984912496E+02  0.33664069899E+03  0.34540504954E+03  0.00000000000E+00 0. -1.
</event>
<event>
 7    1  0.8653652E-006  0.9543299E+02  0.7561462E-02  0.1290204E+00
         -2   -1    0    0    0  501 -0.00000000000E+00  0.00000000000E+00  0.78987456029E+02  0.78987456029E+02  0.00000000000E+00 0.  1.
          2   -1    0    0  501    0  0.00000000000E+00 -0.00000000000E+00 -0.20855504004E+03  0.20855504004E+03  0.00000000000E+00 0. -1.
         23    2    1    2    0    0 -0.22189676720E+02 -0.27224129237E+01 -0.63304735744E+00  0.12707355356E+03  0.12508994356E+03 0.  0.
          5    1    3    3  502    0  0.16775436552E+02 -0.46793116945E+02  0.32395009873E+02  0.59480418035E+02  0.41800000000E+01 0.  1.
         -5    1    3    3    0  502 -0.38965113272E+02  0.44070704021E+02 -0.33028057230E+02  0.67593135521E+02  0.41800000000E+01 0.  1.
        -11    1    1    2    0    0  0.22066031321E+02 -0.36571483191E+02 -0.25319681227E+02  0.49653493115E+02  0.00000000000E+00 0.  1.
         11    1    1    2    0    0  0.12364539903E+00  0.39293896115E+02 -0.10361485543E+03  0.11081544940E+03  0.00000000000E+00 0. -1.
</event>
<event>
 6    1  0.8653652E-006  0.1400989E+03  0.7561462E-02  0.1213196E+00
         -1   -1    0    0    0  501 -0.00000000000E+00  0.00000000000E+00  0.23388276353E+02  0.23388276353E+02  0.00000000000E+00 0.  1.
          1   -1    0    0  501    0  0.00000000000E+00 -0.00000000000E+00 -0.11036352196E+04  0.11036352196E+04  0.00000000000E+00 0. -1.
          5    1    1    2  502    0 -0.46705567111E+02  0.54326572831E+02 -0.27015468668E+03  0.27952426308E+03  0.41800000000E+01 0. -1.
         -5    1    1    2    0  502  0.76895528733E+02  0.29710414605E+02 -0.12032465898E+03  0.14591479374E+03  0.41800000000E+01 0.  1.
        -11    1    1    2    0    0  0.22776991285E+02  0.40223232556E+01 -0.82385483955E+02  0.85570663097E+02  0.00000000000E+00 0.  1.
         11    1    1    2    0    0 -0.52966952907E+02 -0.88059310691E+02 -0.60738211365E+03  0.61601377605E+03  0.00000000000E+00 0. -1.
</event>
<event>
 7    1  0.8653652E-006  0.1045997E+03  0.7561462E-02  0.1270910E+00
         -2   -1    0    0    0  501 -0.00000000000E+00  0.00000000000E+00  0.16428228462E+03  0.16428228462E+03  0.00000000000E+00 0.  1.
          2   -1    0    0  501    0  0.00000000000E+00 -0.00000000000E+00 -0.12946059448E+03  0.12946059448E+03  0.00000000000E+00 0. -1.
         23    2    1    2    0    0  0.67487620983E+02 -0.43042273852E+02  0.87607097848E+02  0.17241650110E+03  0.12508089356E+03 0.  0.
          5    1    3    3  502    0  0.87257589278E+02 -0.30404953418E+02  0.12158839061E+02  0.93293396584E+02  0.41800000000E+01 0. -1.
         -5    1    3    3    0  502 -0.19769968295E+02 -0.12637320434E+02  0.75448258787E+02  0.79123104515E+02  0.41800000000E+01 0. -1.
        -11    1    1    2    0    0 -0.23864095711E+01  0.25273476553E+02 -0.47224248811E+02  0.53615046801E+02  0.00000000000E+00 0. -1.
         11    1    1    2    0    0 -0.65101211411E+02  0.17768797299E+02 -0.55611588968E+01  0.67711331201E+02  0.00000000000E+00 0.  1.
</event>
<event>
 7    1  0.8653652E-006  0.8864953E+02  0.7561462E-02  0.1306155E+00
          1   -1    0    0  501    0  0.00000000000E+00  0.00000000000E+00  0.22208724534E+02  0.22208724534E+02  0.00000000000E+00 0. -1.
         -1   -1    0    0    0  501 -0.00000000000E+00 -0.00000000000E+00 -0.15879212789E+04  0.15879212789E+04  0.00000000000E+00 0.  1.
         23    2    1    2    0    0 -0.58013370767E+02 -0.53415398234E+02 -0.13823656423E+04  0.13902521288E+04  0.12508979396E+03 0.  0.
          5    1    3    3  502    0 -0.32100012949E+02 -0.42272631381E+02 -0.13261438503E+04  0.13272122551E+04  0.41800000000E+01 0.  1.
         -5    1    3    3    0  502 -0.25913357818E+02 -0.11142766853E+02 -0.56221792038E+02  0.63039873624E+02  0.41800000000E+01 0.  1.
        -11    1    1    2    0    0 -0.53597961100E+01  0.25904514250E+02 -0.12980281632E+03  0.13247091151E+03  0.00000000000E+00 0.  1.
         11    1    1    2    0    0  0.63373166877E+02  0.27510883984E+02 -0.53544095717E+02  0.87406963131E+02  0.00000000000E+00 0. -1.
</event>
<event>
 7    1  0.8653652E-006  0.7375105E+02  0.7561462E-02  0.1347783E+00
         -2   -1    0    0    0  501 -0.00000000000E+00  0.00000000000E+00  0.18190379060E+02  0.18190379060E+02  0.00000000000E+00 0.  1.
          2   -1    0    0  501    0  0.00000000000E+00 -0.00000000000E+00 -0.75659794084E+03  0.75659794084E+03  0.00000000000E+00 0. -1.
         23    2    1    2    0    0 -0.21085021636E+02  0.40603607922E+02 -0.39507895545E+03  0.41692712315E+03  0.12509042274E+03 0.  0.
          5    1    3    3  502    0  0.45951547660E+00  0.21873901006E+02 -0.15353386369E+01  0.22327300877E+02  0.41800000000E+01 0. -1.
         -5    1    3    3    0  502 -0.21544537112E+02  0.18729706916E+02 -0.39354361682E+03  0.39459982227E+03  0.41800000000E+01 0. -1.
        -11    1    1    2    0    0 -0.88618327349E+01 -0.60029404472E+02 -0.16065339600E+03  0.17173111287E+03  0.00000000000E+00 0.  1.
         11    1    1    2    0    0  0.29946854371E+02  0.19425796550E+02 -0.18267521032E+03  0.18613008388E+03  0.00000000000E+00 0. -1.
</event>
<event>
 7    1  0.8653652E-006  0.8562980E+02  0.7561462E-02  0.1313794E+00
          4   -1    0    0  501    0  0.00000000000E+00  0.00000000000E+00  0.11140938230E+03  0.11140938230E+03  0.00000000000E+00 0. -1.
         -4   -1    0    0    0  501 -0.00000000000E+00 -0.00000000000E+00 -0.17061875499E+03  0.17061875499E+03  0.00000000000E+00 0.  1.
         23    2    1    2    0    0  0.60734471568E+02 -0.48784478672E+02 -0.71938344012E+02  0.16398552659E+03  0.12509007233E+03 0.  0.
          5    1    3    3  502    0  0.31317624121E+01 -0.29064935233E+02  0.31944537252E+02  0.43502922386E+02  0.41800000000E+01 0. -1.
         -5    1    3    3    0  502  0.57602709156E+02 -0.19719543439E+02 -0.10388288126E+03  0.12048260420E+03  0.41800000000E+01 0. -1.
        -11    1    1    2    0    0 -0.49959467033E+02  0.27952617058E+02 -0.33410801789E+02  0.66284076691E+02  0.00000000000E+00 0.  1.
         11    1    1    2    0    0 -0.10775004535E+02  0.20831861614E+02  0.46139773111E+02  0.51758534019E+02  0.00000000000E+00 0. -1.
</event>
<event>
 7    1  0.8653652E-006  0.9650959E+02  0.7561462E-02  0.1287812E+00
         -2   -1    0    0    0  501 -0.00000000000E+00  0.00000000000E+00  0.18516078855E+03  0.18516078855E+03  0.00000000000E+00 0.  1.
          2   -1    0    0  501    0  0.00000000000E+00 -0.00000000000E+00 -0.65050774001E+02  0.65050774001E+02  0.00000000000E+00 0. -1.
         23    2    1    2    0    0  0.14305964206E+01 -0.76397996452E+01  0.91247249932E+02  0.15502816424E+03  0.12508900008E+03 0.  0.
          5    1    3    3  502    0 -0.46419297507E+02  0.22089916613E+02  0.83312045024E+02  0.97985125622E+02  0.41800000000E+01 0. -1.
         -5    1    3    3    0  502  0.47849893927E+02 -0.29729716258E+02  0.79352049082E+01  0.57043038616E+02  0.41800000000E+01 0. -1.
        -11    1    1    2    0    0  0.25699306400E+02 -0.29394968793E+02  0.30033481381E+02  0.49259806573E+02  0.00000000000E+00 0.  1.
         11    1    1    2    0    0 -0.27129902821E+02  0.37034768438E+02 -0.11707167672E+01  0.45923591737E+02  0.00000000000E+00 0. -1.
</event>
<event>
 7    1  0.8653652E-006  0.1060480E+03  0.7561462E-02  0.1268068E+00
          1   -1    0    0  501    0  0.00000000000E+00  0.00000000000E+00  0.46713751398E+03  0.46713751398E+03  0.00000000000E+00 0. -1.
         -1   -1    0    0    0  501 -0.00000000000E+00 -0.00000000000E+00 -0.33399414658E+02  0.33399414658E+02  0.00000000000E+00 0.  1.
         23    2    1    2    0    0 -0.25870046412E+02 -0.41789244296E+02  0.16657520993E+03  0.21403331844E+03  0.12508941041E+03 0.  0.
          5    1    3    3  502    0 -0.44376966461E+02 -0.71337248335E+02  0.64243230351E+02  0.10584414579E+03  0.41800000000E+01 0. -1.
         -5    1    3    3    0  502  0.18506920049E+02  0.29548004039E+02  0.10233197958E+03  0.10818917264E+03  0.41800000000E+01 0. -1.
        -11    1    1    2    0    0  0.49828210192E+02  0.46830108269E+02  0.12719654361E+03  0.14441215419E+03  0.00000000000E+00 0.  1.
         11    1    1    2    0    0 -0.23958163780E+02 -0.50408639735E+01  0.13996634578E+03  0.14209145601E+03  0.00000000000E+00 0. -1.
</event>
<event>
 7    1  0.8653652E-006  0.1228011E+03  0.7561462E-02  0.1238546E+00
          1   -1    0    0  501    0  0.00000000000E+00  0.00000000000E+00  0.47148475827E+03  0.47148475827E+03  0.00000000000E+00 0. -1.
         -1   -1    0    0    0  501 -0.00000000000E+00 -0.00000000000E+00 -0.35714727496E+02  0.35714727496E+02  0.00000000000E+00 0.  1.
         23    2    1    2    0    0 -0.54309110416E+02  0.47968079903E+02  0.24489164248E+03  0.28437784854E+03  0.12509367698E+03 0.  0.
          5    1    3    3  502    0 -0.63458775581E+02 -0.16416544535E+02  0.62385848186E+02  0.90586895225E+02  0.41800000000E+01 0. -1.
         -5    1    3    3    0  502  0.91496651646E+01  0.64384624438E+02  0.18250579429E+03  0.19379095332E+03  0.41800000000E+01 0. -1.
        -11    1    1    2    0    0 -0.25930516654E+00 -0.59068822272E+02  0.91665264618E+02  0.10904913453E+03  0.00000000000E+00 0. -1.
         11    1    1    2    0    0  0.54568415583E+02  0.11100742370E+02  0.99213123679E+02  0.11377250270E+03  0.00000000000E+00 0.  1.
</event>
<event>
 7    1  0.8653652E-006  0.1337821E+03  0.7561462E-02  0.1221949E+00
          1   -1    0    0  501    0  0.00000000000E+00  0.00000000000E+00  0.22179064903E+03  0.22179064903E+03  0.00000000000E+00 0. -1.
         -1   -1    0    0    0  501 -0.00000000000E+00 -0.00000000000E+00 -0.11318570498E+03  0.11318570498E+03  0.00000000000E+00 0.  1.
         23    2    1    2    0    0  0.76957919064E+02  0.73222877585E+02  0.10631555970E+03  0.19553674318E+03  0.12509000196E+03 0.  0.
          5    1    3    3  502    0  0.10192897060E+03  0.71286672714E+02  0.11423998686E+03  0.16893653172E+03  0.41800000000E+01 0. -1.
         -5    1    3    3    0  502 -0.24971051533E+02  0.19362048707E+01 -0.79244271518E+01  0.26600211458E+02  0.41800000000E+01 0. -1.
        -11    1    1    2    0    0 -0.21530750334E+01 -0.32452822159E+02 -0.33809188495E+02  0.46913565467E+02  0.00000000000E+00 0.  1.
         11    1    1    2    0    0 -0.74804844030E+02 -0.40770055425E+02  0.36098572845E+02  0.92526045367E+02  0.00000000000E+00 0. -1.
</event>
<event>
 7    1  0.8653652E-006  0.1380681E+03  0.7561462E-02  0.1215952E+00
         -2   -1    0    0    0  501 -0.00000000000E+00  0.00000000000E+00  0.19044734210E+02  0.19044734210E+02  0.00000000000E+00 0. -1.
          2   -1    0    0  501    0  0.00000000000E+00 -0.00000000000E+00 -0.12054021579E+04  0.12054021579E+04  0.00000000000E+00 0.  1.
         23    2    1    2    0    0  0.97167707626E+02 -0.12942856961E+02 -0.80570210700E+03  0.82122591064E+03  0.12508808948E+03 0.  0.
          5    1    3    3  502    0  0.11589480816E+03 -0.36802815379E+02 -0.52780478815E+03  0.54164695197E+03  0.41800000000E+01 0. -1.
         -5    1    3    3    0  502 -0.18727100533E+02  0.23859958419E+02 -0.27789731885E+03  0.27957895867E+03  0.41800000000E+01 0. -1.
        -11    1    1    2    0    0 -0.39943590845E+02 -0.31922908322E+02 -0.89051124343E+02  0.10268722059E+03  0.00000000000E+00 0. -1.
         11    1    1    2    0    0 -0.57224116781E+02  0.44865765283E+02 -0.29160419238E+03  0.30053376091E+03  0.00000000000E+00 0.  1.
</event>
<event>
 7    1  0.8653652E-006  0.9460463E+02  0.7561462E-02  0.1292069E+00
          2   -1    0    0  501    0  0.00000000000E+00  0.00000000000E+00  0.19849577182E+03  0.19849577182E+03  0.00000000000E+00 0. -1.
         -2   -1    0    0    0  501 -0.00000000000E+00 -0.00000000000E+00 -0.10797611897E+03  0.10797611897E+03  0.00000000000E+00 0.  1.
         23    2    1    2    0    0  0.76651280026E+02  0.23882542445E+02 -0.20474021060E+02  0.14143010680E+03  0.11461891209E+03 0.  0.
          5    1    3    3  502    0  0.50054685470E+02 -0.11133189726E+01  0.44287315719E+02  0.66974246918E+02  0.41800000000E+01 0. -1.
         -5    1    3    3    0  502  0.26596594556E+02  0.24995861417E+02 -0.64761336779E+02  0.74455859886E+02  0.41800000000E+01 0.  1.
        -11    1    1    2    0    0 -0.42516731386E+02  0.19710476695E+02  0.72126362070E+01  0.47415160659E+02  0.00000000000E+00 0.  1.
         11    1    1    2    0    0 -0.34134548641E+02 -0.43593019140E+02  0.10378103771E+03  0.11762662333E+03  0.00000000000E+00 0. -1.
</event>
<event>
 7    1  0.8653652E-006  0.1732598E+03  0.7561462E-02  0.1174490E+00
         -1   -1    0    0    0  501 -0.00000000000E+00  0.00000000000E+00  0.44697719902E+03  0.44697719902E+03  0.00000000000E+00 0.  1.
          1   -1    0    0  501    0  0.00000000000E+00 -0.00000000000E+00 -0.10461266777E+03  0.10461266777E+03  0.00000000000E+00 0. -1.
         23    2    1    2    0    0 -0.16653381280E+03 -0.31355451321E+02  0.27835474719E+03  0.34906253193E+03  0.12508641325E+03 0.  0.
          5    1    3    3  502    0 -0.11482255917E+03 -0.65819953774E+01  0.74118718513E+02  0.13688900464E+03  0.41800000000E+01 0.  1.
         -5    1    3    3    0  502 -0.51711253626E+02 -0.24773455944E+02  0.20423602868E+03  0.21217352728E+03  0.41800000000E+01 0.  1.
        -11    1    1    2    0    0  0.15213086423E+03  0.16131254900E+02  0.20653657079E+02  0.15437159967E+03  0.00000000000E+00 0.  1.
         11    1    1    2    0    0  0.14402948571E+02  0.15224196421E+02  0.43356126990E+02  0.48155735191E+02  0.00000000000E+00 0. -1.
</event>
<event>
 7    1  0.8653652E-006  0.1004674E+03  0.7561462E-02  0.1279316E+00
          2   -1    0    0  501    0  0.00000000000E+00  0.00000000000E+00  0.50363077706E+03  0.50363077706E+03  0.00000000000E+00 0. -1.
         -2   -1    0    0    0  501 -0.00000000000E+00 -0.00000000000E+00 -0.31956743234E+02  0.31956743234E+02  0.00000000000E+00 0.  1.
         23    2    1    2    0    0 -0.32784478541E+02  0.21327919487E+02  0.14547765437E+03  0.19580802181E+03  0.12508929332E+03 0.  0.
          5    1    3    3  502    0  0.22915802563E+02 -0.37741383795E+02  0.79798421776E+02  0.91295161843E+02  0.41800000000E+01 0. -1.
         -5    1    3    3    0  502 -0.55700281105E+02  0.59069303282E+02  0.65679232590E+02  0.10451285997E+03  0.41800000000E+01 0. -1.
        -11    1    1    2    0    0 -0.19682962898E+02 -0.71030029700E+01  0.20522834133E+02  0.29309698062E+02  0.00000000000E+00 0.  1.
         11    1    1    2    0    0  0.52467441439E+02 -0.14224916517E+02  0.30567354533E+03  0.31046980042E+03  0.00000000000E+00 0. -1.
</event>
<event>
 7    1  0.8653652E-006  0.8402920E+02  0.7561462E-02  0.1317991E+00
         -2   -1    0    0    0  501 -0.00000000000E+00  0.00000000000E+00  0.32994003603E+03  0.32994003603E+03  0.00000000000E+00 0. -1.
          2   -1    0    0  501    0  0.00000000000E+00 -0.00000000000E+00 -0.56208553504E+02  0.56208553504E+02  0.00000000000E+00 0.  1.
         23    2    1    2    0    0  0.53411741078E+02  0.26328352560E+02  0.22930457779E+03  0.26790652798E+03  0.12508925657E+03 0.  0.
          5    1    3    3  502    0  0.39672946553E+02  0.30517965215E+02  0.14080793638E+02  0.52163493351E+02  0.41800000000E+01 0. -1.
         -5    1    3    3    0  502  0.13738794526E+02 -0.41896126555E+01  0.21522378415E+03  0.21574303463E+03  0.41800000000E+01 0. -1.
        -11    1    1    2    0    0 -0.52497032460E+02  0.20262854783E+02  0.37682677958E+01  0.56397885982E+02  0.00000000000E+00 0.  1.
         11    1    1    2    0    0 -0.91470861844E+00 -0.46591207343E+02  0.40658636942E+02  0.61844175566E+02  0.00000000000E+00 0. -1.
</event>
<event>
 7    1  0.8653652E-006  0.9597288E+02  0.7561462E-02  0.1289000E+00
         -2   -1    0    0    0  501 -0.00000000000E+00  0.00000000000E+00  0.16498783232E+03  0.16498783232E+03  0.00000000000E+00 0.  1.
          2   -1    0    0  501    0  0.00000000000E+00 -0.00000000000E+00 -0.77404071481E+02  0.77404071481E+02  0.00000000000E+00 0. -1.
         23    2    1    2    0    0  0.17926187355E+02  0.26463736033E+02  0.64622468984E+02  0.14435149719E+03  0.12505844125E+03 0.  0.
          5    1    3    3  502    0  0.53407333220E+02 -0.76296708487E+01 -0.98429014247E+01  0.54999183879E+02  0.41800000000E+01 0. -1.
         -5    1    3    3    0  502 -0.35481145864E+02  0.34093406881E+02  0.74465370409E+02  0.89352313315E+02  0.41800000000E+01 0. -1.
        -11    1    1    2    0    0 -0.50793054284E+02 -0.21725155112E+02 -0.38254312679E+01  0.55376444925E+02  0.00000000000E+00 0. -1.
         11    1    1    2    0    0  0.32866866928E+02 -0.47385809211E+01  0.26786723126E+02  0.42663961685E+02  0.00000000000E+00 0.  1.
</event>
<event>
 7    1  0.8653652E-006  0.1275094E+03  0.7561462E-02  0.1231199E+00
          1   -1    0    0  501    0  0.00000000000E+00  0.00000000000E+00  0.35542584245E+03  0.35542584245E+03  0.00000000000E+00 0. -1.
         -1   -1    0    0    0  501 -0.00000000000E+00 -0.00000000000E+00 -0.55518760182E+02  0.55518760182E+02  0.00000000000E+00 0.  1.
         23    2    1    2    0    0 -0.39752779522E+02 -0.60209855944E+02  0.85857669415E+02  0.16800170870E+03  0.12509006554E+03 0.  0.
          5    1    3    3  502    0 -0.78358606575E+02 -0.13374454326E+02  0.28970589868E+02  0.84709590545E+02  0.41800000000E+01 0.  1.
         -5    1    3    3    0  502  0.38605827053E+02 -0.46835401617E+02  0.56887079546E+02  0.83292118153E+02  0.41800000000E+01 0.  1.
        -11    1    1    2    0    0 -0.26668405996E+02  0.28557649384E+01  0.42618117399E+02  0.50355369152E+02  0.00000000000E+00 0. -1.
         11    1    1    2    0    0  0.66421185518E+02  0.57354091005E+02  0.17143129546E+03  0.19258752479E+03  0.00000000000E+00 0.  1.
</event>
<event>
 7    1  0.8653652E-006  0.1011133E+03  0.7561462E-02  0.1277972E+00
          1   -1    0    0  501    0  0.00000000000E+00  0.00000000000E+00  0.35774408625E+03  0.35774408625E+03  0.00000000000E+00 0. -1.
         -1   -1    0    0    0  501 -0.00000000000E+00 -0.00000000000E+00 -0.43386329811E+02  0.43386329811E+02  0.00000000000E+00 0.  1.
         23    2    1    2    0    0 -0.12883363615E+02 -0.59666321607E+02  0.15662996894E+03  0.20953546517E+03  0.12508442350E+03 0.  0.
          5    1    3    3  502    0 -0.41718415282E+02 -0.61829311827E+02  0.31558560711E+02  0.81096887294E+02  0.41800000000E+01 0. -1.
         -5    1    3    3    0  502  0.28835051667E+02  0.21629902195E+01  0.12507140823E+03  0.12843857788E+03  0.41800000000E+01 0. -1.
        -11    1    1    2    0    0 -0.20601687604E+02  0.61411557700E+02  0.60071000627E+02  0.88342142082E+02  0.00000000000E+00 0.  1.
         11    1    1    2    0    0  0.33485051219E+02 -0.17452360926E+01  0.97656786868E+02  0.10325280880E+03  0.00000000000E+00 0. -1.
</event>
<event>
 7    1  0.8653652E-006  0.2071705E+03  0.7561462E-02  0.1143826E+00
         -2   -1    0    0    0  501 -0.00000000000E+00  0.00000000000E+00  0.98670392397E+02  0.98670392397E+02  0.00000000000E+00 0.  1.
          2   -1    0    0  501    0  0.00000000000E+00 -0.00000000000E+00 -0.82128721023E+03  0.82128721023E+03  0.00000000000E+00 0. -1.
         23    2    1    2    0    0 -0.11249435081E+03 -0.13444411750E+03 -0.53539598396E+02  0.22191324739E+03  0.12509516808E+03 0.  0.
          5    1    3    3  502    0 -0.11720183298E+03 -0.44887558963E+02 -0.30333277606E+02  0.12918491682E+03  0.41800000000E+01 0.  1.
         -5    1    3    3    0  502  0.47074821738E+01 -0.89556558536E+02 -0.23206320790E+02  0.92728330567E+02  0.41800000000E+01 0.  1.
        -11    1    1    2    0    0  0.11454542557E+03  0.69431867698E+02 -0.44687970286E+03  0.46652214052E+03  0.00000000000E+00 0.  1.
         11    1    1    2    0    0 -0.20510747564E+01  0.65012249801E+02 -0.22219751658E+03  0.23152221471E+03  0.00000000000E+00 0. -1.
</event>
<event>
 7    1  0.8653652E-006  0.1867624E+03  0.7561462E-02  0.1161414E+00
          1   -1    0    0  501    0  0.00000000000E+00  0.00000000000E+00  0.29027294054E+03  0.29027294054E+03  0.00000000000E+00 0. -1.
         -1   -1    0    0    0  501 -0.00000000000E+00 -0.00000000000E+00 -0.12770294553E+03  0.12770294553E+03  0.00000000000E+00 0.  1.
         23    2    1    2    0    0 -0.13554402601E+03  0.83246587776E+02  0.80307945999E+02  0.21771180717E+03  0.12508751907E+03 0.  0.
          5    1    3    3  502    0 -0.40604943979E+02 -0.32800399676E+02  0.20481503836E+02  0.56228036546E+02  0.41800000000E+01 0.  1.
         -5    1    3    3    0  502 -0.94939082027E+02  0.11604698745E+03  0.59826442163E+02  0.16148377062E+03  0.41800000000E+01 0.  1.
        -11    1    1    2    0    0  0.17061248901E+02  0.10542720921E+02 -0.10816542908E+02  0.22786679858E+02  0.00000000000E+00 0.  1.
         11    1    1    2    0    0  0.11848277710E+03 -0.93789308696E+02  0.93078591922E+02  0.17747739904E+03  0.00000000000E+00 0. -1.
</event>
<event>
 7    1  0.8653652E-006  0.9757851E+02  0.7561462E-02  0.1285472E+00
         -1   -1    0    0    0  501 -0.00000000000E+00  0.00000000000E+00  0.49897971031E+03  0.49897971031E+03  0.00000000000E+00 0.  1.
          1   -1    0    0  501    0  0.00000000000E+00 -0.00000000000E+00 -0.45597623410E+02  0.45597623410E+02  0.00000000000E+00 0. -1.
         23    2    1    2    0    0 -0.32893924687E+01  0.37476951384E+02  0.42197358962E+03  0.44172776332E+03  0.12508542907E+03 0.  0.
          5    1    3    3  502    0  0.41807380701E+02 -0.23432380846E+02  0.10058290706E+03  0.11149586156E+03  0.41800000000E+01 0. -1.
         -5    1    3    3    0  502 -0.45096773170E+02  0.60909332230E+02  0.32139068256E+03  0.33023190176E+03  0.41800000000E+01 0. -1.
        -11    1    1    2    0    0  0.23677013141E+02 -0.43809341268E+02  0.52834102710E+02  0.72603730915E+02  0.00000000000E+00 0.  1.
         11    1    1    2    0    0 -0.20387620672E+02  0.63323898836E+01 -0.21425605426E+02  0.30245839485E+02  0.00000000000E+00 0. -1.
</event>
<event>
 7    1  0.8653652E-006  0.8677153E+02  0.7561462E-02  0.1310864E+00
         -2   -1    0    0    0  501 -0.00000000000E+00  0.00000000000E+00  0.12116680615E+03  0.12116680615E+03  0.00000000000E+00 0.  1.
          2   -1    0    0  501    0  0.00000000000E+00 -0.00000000000E+00 -0.15039266862E+03  0.15039266862E+03  0.00000000000E+00 0. -1.
         23    2    1    2    0    0  0.50469605714E+02 -0.23999093602E+02  0.40943042433E+02  0.14299486030E+03  0.12509220500E+03 0.  0.
          5    1    3    3  502    0  0.65478716367E+02 -0.22781752460E+02 -0.26068137226E+02  0.74185515572E+02  0.41800000000E+01 0. -1.
         -5    1    3    3    0  502 -0.15009110653E+02 -0.12173411416E+01  0.67011179659E+02  0.68809344724E+02  0.41800000000E+01 0. -1.
        -11    1    1    2    0    0  0.16476295962E+02 -0.20951720816E+01  0.11184765290E+02  0.20023911937E+02  0.00000000000E+00 0.  1.
         11    1    1    2    0    0 -0.66945901676E+02  0.26094265684E+02 -0.81353670192E+02  0.10854070253E+03  0.00000000000E+00 0. -1.
</event>
<event>
 7    1  0.8653652E-006  0.9578164E+02  0.7561462E-02  0.1289425E+00
          2   -1    0    0  501    0  0.00000000000E+00  0.00000000000E+00  0.48345176296E+03  0.48345176296E+03  0.00000000000E+00 0. -1.
         -2   -1    0    0    0  501 -0.00000000000E+00 -0.00000000000E+00 -0.36296433524E+02  0.36296433524E+02  0.00000000000E+00 0.  1.
         23    2    1    2    0    0  0.69201422772E+02 -0.16433946713E+02  0.23524301126E+03  0.27576240243E+03  0.12508683676E+03 0.  0.
          5    1    3    3  502    0  0.70676371537E+02 -0.26440128515E+01  0.24709185634E+03  0.25704862997E+03  0.41800000000E+01 0.  1.
         -5    1    3    3    0  502 -0.14749487655E+01 -0.13789933861E+02 -0.11848845089E+02  0.18713772460E+02  0.41800000000E+01 0.  1.
        -11    1    1    2    0    0 -0.74105799228E+02 -0.13988075172E+02  0.86113089181E+02  0.11446746199E+03  0.00000000000E+00 0.  1.
         11    1    1    2    0    0  0.49043764566E+01  0.30422021884E+02  0.12579922900E+03  0.12951833206E+03  0.00000000000E+00 0. -1.
</event>
<event>
 7    1  0.8653652E-006  0.1153447E+03  0.7561462E-02  0.1250981E+00
          2   -1    0    0  501    0  0.00000000000E+00  0.00000000000E+00  0.45015452058E+03  0.45015452058E+03  0.00000000000E+00 0. -1.
         -2   -1    0    0    0  501 -0.00000000000E+00 -0.00000000000E+00 -0.48551788854E+02  0.48551788854E+02  0.00000000000E+00 0.  1.
         23    2    1    2    0    0 -0.10236702179E+02 -0.40946768791E+02  0.64595945921E+02  0.14697387210E+03  0.12508898794E+03 0.  0.
          5    1    3    3  502    0 -0.35184079859E+02 -0.78630160168E+02  0.47614213061E+02  0.98515010272E+02  0.41800000000E+01 0. -1.
         -5    1    3    3    0  502  0.24947377679E+02  0.37683391377E+02  0.16981732860E+02  0.48458861828E+02  0.41800000000E+01 0. -1.
        -11    1    1    2    0    0  0.47278928891E+02  0.51704133412E+01  0.13035180068E+03  0.13875742226E+03  0.00000000000E+00 0. -1.
         11    1    1    2    0    0 -0.37042226711E+02  0.35776355450E+02  0.20665498512E+03  0.21297501507E+03  0.00000000000E+00 0.  1.
</event>
<event>
 7    1  0.8653652E-006  0.9901453E+02  0.7561462E-02  0.1282382E+00
          2   -1    0    0  501    0  0.00000000000E+00  0.00000000000E+00  0.58211774250E+03  0.58211774250E+03  0.00000000000E+00 0. -1.
         -2   -1    0    0    0  501 -0.00000000000E+00 -0.00000000000E+00 -0.29354266661E+02  0.29354266661E+02  0.00000000000E+00 0.  1.
         23    2    1    2    0    0  0.41936038513E+02 -0.46078006373E+02  0.20559136908E+03  0.24858978722E+03  0.12508899741E+03 0.  0.
          5    1    3    3  502    0 -0.38560177745E+00 -0.51843748536E+02  0.19836266087E+03  0.20506862407E+03  0.41800000000E+01 0.  1.
         -5    1    3    3    0  502  0.42321640290E+02  0.57657421629E+01  0.72287082113E+01  0.43521163150E+02  0.41800000000E+01 0.  1.
        -11    1    1    2    0    0  0.18675550934E+02 -0.94206566488E+01  0.10737860018E+03  0.10939693209E+03  0.00000000000E+00 0.  1.
         11    1    1    2    0    0 -0.60611589447E+02  0.55498663022E+02  0.23979350658E+03  0.25348528985E+03  0.00000000000E+00 0. -1.
</event>
<event>
 7    1  0.8653652E-006  0.1189613E+03  0.7561462E-02  0.1244821E+00
          2   -1    0    0  501    0  0.00000000000E+00  0.00000000000E+00  0.50098000577E+03  0.50098000577E+03  0.00000000000E+00 0.  1.
         -2   -1    0    0    0  501 -0.00000000000E+00 -0.00000000000E+00 -0.34279944125E+02  0.34279944125E+02  0.00000000000E+00 0. -1.
         23    2    1    2    0    0  0.16856075894E+01 -0.70316559153E+02  0.21085886641E+03  0.25507028452E+03  0.12510846789E+03 0.  0.
          5    1    3    3  502    0 -0.10598027410E+02 -0.95059917637E+02  0.91315142145E+02  0.13230507818E+03  0.41800000000E+01 0.  1.
         -5    1    3    3    0  502  0.12283635000E+02  0.24743358484E+02  0.11954372426E+03  0.12276520634E+03  0.41800000000E+01 0.  1.
        -11    1    1    2    0    0 -0.23911944929E+01 -0.21896928754E+02  0.49286865662E+02  0.53985075963E+02  0.00000000000E+00 0. -1.
         11    1    1    2    0    0  0.70558690346E+00  0.92213487907E+02  0.20655432958E+03  0.22620458942E+03  0.00000000000E+00 0.  1.
</event>
<event>
 7    1  0.1194643E-005  0.1719870E+03  0.7561462E-02  0.1175791E+00
         -2   -1    0    0    0  501 -0.00000000000E+00  0.00000000000E+00  0.24997684661E+02  0.24997684661E+02  0.00000000000E+00 0.  1.
          2   -1    0    0  501    0  0.00000000000E+00 -0.00000000000E+00 -0.13958651820E+04  0.13958651820E+04  0.00000000000E+00 0. -1.
         23    2    1    2    0    0 -0.94692559240E+02 -0.11789526646E+03 -0.67590961514E+03  0.70382308851E+03  0.12508859843E+03 0.  0.
          5    1    3    3  502    0 -0.73100085129E+01  0.18725578455E+02 -0.22010097518E+02  0.30099838965E+02  0.41800000000E+01 0. -1.
         -5    1    3    3    0  502 -0.87382550727E+02 -0.13662084492E+03 -0.65389951762E+03  0.67372324954E+03  0.41800000000E+01 0. -1.
        -11    1    1    2    0    0  0.65971815658E+02  0.37597912661E+02 -0.18461987572E+03  0.19962560459E+03  0.00000000000E+00 0.  1.
         11    1    1    2    0    0  0.28720743582E+02  0.80297353800E+02 -0.51033800645E+03  0.51741417353E+03  0.00000000000E+00 0. -1.
</event>
<event>
 7    1  0.8653652E-006  0.1429923E+03  0.7561462E-02  0.1209358E+00
         -1   -1    0    0    0  501 -0.00000000000E+00  0.00000000000E+00  0.22278068881E+02  0.22278068881E+02  0.00000000000E+00 0.  1.
          1   -1    0    0  501    0  0.00000000000E+00 -0.00000000000E+00 -0.12731734166E+04  0.12731734166E+04  0.00000000000E+00 0. -1.
         23    2    1    2    0    0  0.12789628022E+03  0.13752576602E+02 -0.68622041385E+03  0.70929331821E+03  0.12510780556E+03 0.  0.
          5    1    3    3  502    0  0.15066946122E+02  0.20863428660E+02 -0.18285174619E+02  0.31845180667E+02  0.41800000000E+01 0. -1.
         -5    1    3    3    0  502  0.11282933410E+03 -0.71108520582E+01 -0.66793523923E+03  0.67744813754E+03  0.41800000000E+01 0. -1.
        -11    1    1    2    0    0 -0.32540490542E+02  0.27768648936E+02 -0.82916593708E+02  0.93301355298E+02  0.00000000000E+00 0. -1.
         11    1    1    2    0    0 -0.95355789680E+02 -0.41521225537E+02 -0.48175834014E+03  0.49285681195E+03  0.00000000000E+00 0.  1.
</event>
<event>
 6    1  0.8653652E-006  0.1590911E+03  0.7561462E-02  0.1189727E+00
         -4   -1    0    0    0  501 -0.00000000000E+00  0.00000000000E+00  0.49397962617E+03  0.49397962617E+03  0.00000000000E+00 0.  1.
          4   -1    0    0  501    0  0.00000000000E+00 -0.00000000000E+00 -0.87995523625E+02  0.87995523625E+02  0.00000000000E+00 0. -1.
          5    1    1    2  502    0  0.32299351128E+02 -0.29673506038E+01 -0.32992777483E+02  0.46454806198E+02  0.41800000000E+01 0. -1.
         -5    1    1    2    0  502  0.97499613824E+02  0.63416907267E+02  0.28081478916E+03  0.30397746139E+03  0.41800000000E+01 0.  1.
        -11    1    1    2    0    0 -0.13709354085E+03 -0.33434802998E+02  0.13095464288E+03  0.19251400854E+03  0.00000000000E+00 0. -1.
         11    1    1    2    0    0  0.72945758951E+01 -0.27014753665E+02  0.27207447984E+02  0.39028873657E+02  0.00000000000E+00 0.  1.
</event>
<event>
 6    1  0.8653652E-006  0.2008152E+03  0.7561462E-02  0.1149053E+00
          3   -1    0    0  501    0  0.00000000000E+00  0.00000000000E+00  0.42966240492E+03  0.42966240492E+03  0.00000000000E+00 0. -1.
         -3   -1    0    0    0  501 -0.00000000000E+00 -0.00000000000E+00 -0.14358705169E+03  0.14358705169E+03  0.00000000000E+00 0.  1.
          5    1    1    2  502    0  0.17073324017E+02  0.72377093086E+02 -0.47414596323E+02  0.88292459141E+02  0.41800000000E+01 0. -1.
         -5    1    1    2    0  502  0.13200354524E+03 -0.85404684267E+02  0.79170571718E+02  0.17608051533E+03  0.41800000000E+01 0.  1.
        -11    1    1    2    0    0  0.43929903197E+01 -0.13436719805E+02  0.50073414631E+02  0.52030670338E+02  0.00000000000E+00 0.  1.
         11    1    1    2    0    0 -0.15346985958E+03  0.26464310986E+02  0.20424596320E+03  0.25684581180E+03  0.00000000000E+00 0. -1.
</event>
<event>
 7    1  0.8653652E-006  0.1019301E+03  0.7561462E-02  0.1276289E+00
         -1   -1    0    0    0  501 -0.00000000000E+00  0.00000000000E+00  0.41820623975E+02  0.41820623975E+02  0.00000000000E+00 0.  1.
          1   -1    0    0  501    0  0.00000000000E+00 -0.00000000000E+00 -0.30404339458E+03  0.30404339458E+03  0.00000000000E+00 0. -1.
         23    2    1    2    0    0  0.18592955720E+02  0.21287427017E+02 -0.12470697705E+03  0.17888076983E+03  0.12509055576E+03 0.  0.
          5    1    3    3  502    0  0.70952895043E+02  0.25061972548E+02 -0.78490905256E+02  0.10881502833E+03  0.41800000000E+01 0. -1.
         -5    1    3    3    0  502 -0.52359939323E+02 -0.37745455314E+01 -0.46216071792E+02  0.70065741498E+02  0.41800000000E+01 0. -1.
        -11    1    1    2    0    0  0.23118211211E+02  0.84422374930E+01 -0.10131198524E+03  0.10425853162E+03  0.00000000000E+00 0. -1.
         11    1    1    2    0    0 -0.41711166931E+02 -0.29729664510E+02 -0.36203808320E+02  0.62724717102E+02  0.00000000000E+00 0.  1.
</event>
<event>
 7    1  0.8653652E-006  0.1119740E+03  0.7561462E-02  0.1256957E+00
          2   -1    0    0  501    0  0.00000000000E+00  0.00000000000E+00  0.18229937801E+03  0.18229937801E+03  0.00000000000E+00 0. -1.
         -2   -1    0    0    0  501 -0.00000000000E+00 -0.00000000000E+00 -0.80006562650E+02  0.80006562650E+02  0.00000000000E+00 0.  1.
         23    2    1    2    0    0 -0.13464477020E+02 -0.37219786796E+02  0.25435338133E+02  0.13364811534E+03  0.12509299595E+03 0.  0.
          5    1    3    3  502    0 -0.46592627673E+02 -0.70066391398E+02  0.19072170382E+02  0.86379350774E+02  0.41800000000E+01 0. -1.
         -5    1    3    3    0  502  0.33128150653E+02  0.32846604601E+02  0.63631677511E+01  0.47268764563E+02  0.41800000000E+01 0. -1.
        -11    1    1    2    0    0  0.48364520653E+02  0.12080874976E+02  0.68698134848E+02  0.84879373995E+02  0.00000000000E+00 0. -1.
         11    1    1    2    0    0 -0.34900043632E+02  0.25138911820E+02  0.81593423829E+01  0.43778451333E+02  0.00000000000E+00 0.  1.
</event>
<event>
 7    1  0.8653652E-006  0.8391636E+02  0.7561462E-02  0.1318291E+00
         -1   -1    0    0    0  501 -0.00000000000E+00  0.00000000000E+00  0.36267693211E+03  0.36267693211E+03  0.00000000000E+00 0.  1.
          1   -1    0    0  501    0  0.00000000000E+00 -0.00000000000E+00 -0.60185836649E+02  0.60185836649E+02  0.00000000000E+00 0. -1.
         23    2    1    2    0    0 -0.79544965629E+01  0.18390995596E+02  0.30645417602E+03  0.33160752641E+03  0.12509151385E+03 0.  0.
          5    1    3    3  502    0  0.31202660293E+02 -0.12203848090E+02  0.26389952944E+03  0.26605069810E+03  0.41800000000E+01 0.  1.
         -5    1    3    3    0  502 -0.39157156856E+02  0.30594843686E+02  0.42554646582E+02  0.65556828317E+02  0.41800000000E+01 0.  1.
        -11    1    1    2    0    0 -0.30638634313E+01 -0.50325622712E+02  0.14886056134E+02  0.52570431116E+02  0.00000000000E+00 0.  1.
         11    1    1    2    0    0  0.11018359994E+02  0.31934627116E+02 -0.18849136695E+02  0.38684811233E+02  0.00000000000E+00 0. -1.
</event>
<event>
 7    1  0.8653652E-006  0.5740234E+02  0.7561462E-02  0.1409068E+00
         -2   -1    0    0    0  501 -0.00000000000E+00  0.00000000000E+00  0.83072793908E+02  0.83072793908E+02  0.00000000000E+00 0.  1.
          2   -1    0    0  501    0  0.00000000000E+00 -0.00000000000E+00 -0.15796301033E+03  0.15796301033E+03  0.00000000000E+00 0. -1.
         23    2    1    2    0    0  0.31855007552E+01  0.36326089238E+02 -0.34770810407E+02  0.13485682456E+03  0.12509045408E+03 0.  0.
          5    1    3    3  502    0 -0.12343728146E+02  0.21786047599E+02 -0.80414084792E+02  0.84326134309E+02  0.41800000000E+01 0.  1.
         -5    1    3    3    0  502  0.15529228901E+02  0.14540041639E+02  0.45643274386E+02  0.50530690256E+02  0.41800000000E+01 0.  1.
        -11    1    1    2    0    0  0.15294949794E+02  0.97195638539E+01 -0.52079197514E+02  0.55142073088E+02  0.00000000000E+00 0. -1.
         11    1    1    2    0    0 -0.18480450550E+02 -0.46045653091E+02  0.11959791498E+02  0.51036906585E+02  0.00000000000E+00 0.  1.
</event>
<event>
 7    1  0.8653652E-006  0.1973073E+03  0.7561462E-02  0.1152031E+00
          2   -1    0    0  501    0  0.00000000000E+00  0.00000000000E+00  0.45769350922E+03  0.45769350922E+03  0.00000000000E+00 0. -1.
         -2   -1    0    0    0  501 -0.00000000000E+00 -0.00000000000E+00 -0.11370255535E+03  0.11370255535E+03  0.00000000000E+00 0.  1.
         23    2    1    2    0    0  0.12029002628E+03  0.14771912654E+03  0.81877383393E+02  0.23552232214E+03  0.11169703463E+03 0.  0.
          5    1    3    3  502    0  0.56301277868E+01  0.28513387820E+02  0.62354841416E+02  0.68922494672E+02  0.41800000000E+01 0. -1.
         -5    1    3    3    0  502  0.11465989849E+03  0.11920573872E+03  0.19522541977E+02  0.16659982747E+03  0.41800000000E+01 0.  1.
        -11    1    1    2    0    0 -0.10151124753E+03 -0.79195822174E+02  0.11555614564E+03  0.17300212259E+03  0.00000000000E+00 0. -1.
         11    1    1    2    0    0 -0.18778778747E+02 -0.68523304365E+02  0.14655742484E+03  0.16287161984E+03  0.00000000000E+00 0.  1.
</event>
<event>
 7    1  0.8653652E-006  0.6675295E+02  0.7561462E-02  0.1371496E+00
         -4   -1    0    0    0  501 -0.00000000000E+00  0.00000000000E+00  0.59609252649E+02  0.59609252649E+02  0.00000000000E+00 0.  1.
          4   -1    0    0  501    0  0.00000000000E+00 -0.00000000000E+00 -0.20712659146E+03  0.20712659146E+03  0.00000000000E+00 0. -1.
         23    2    1    2    0    0 -0.11677173547E+02  0.22901451899E+02 -0.90865206399E+02  0.15673186744E+03  0.12509020607E+03 0.  0.
          5    1    3    3  502    0 -0.40887373246E+02  0.37030883126E+02  0.48939607966E+01  0.55538156689E+02  0.41800000000E+01 0. -1.
         -5    1    3    3    0  502  0.29210199699E+02 -0.14129431228E+02 -0.95759167195E+02  0.10119371075E+03  0.41800000000E+01 0. -1.
        -11    1    1    2    0    0  0.21737978978E+02 -0.14646101007E+01 -0.76227606313E+02  0.79280090672E+02  0.00000000000E+00 0. -1.
         11    1    1    2    0    0 -0.10060805431E+02 -0.21436841798E+02  0.19575473903E+02  0.30723885996E+02  0.00000000000E+00 0.  1.
</event>
<event>
 7    1  0.8653652E-006  0.1060353E+03  0.7561462E-02  0.1268093E+00
         -4   -1    0    0    0  501 -0.00000000000E+00  0.00000000000E+00  0.34795472143E+02  0.34795472143E+02  0.00000000000E+00 0.  1.
          4   -1    0    0  501    0  0.00000000000E+00 -0.00000000000E+00 -0.39300681457E+03  0.39300681457E+03  0.00000000000E+00 0. -1.
         23    2    1    2    0    0 -0.13962189469E+02  0.17648425265E+02 -0.13414182004E+03  0.18479298130E+03  0.12509199976E+03 0.  0.
          5    1    3    3  502    0  0.49941885561E+02 -0.18570632115E+02 -0.53215491660E+02  0.75421623312E+02  0.41800000000E+01 0. -1.
         -5    1    3    3    0  502 -0.63904075030E+02  0.36219057379E+02 -0.80926328380E+02  0.10937135799E+03  0.41800000000E+01 0. -1.
        -11    1    1    2    0    0  0.12761783266E+02 -0.50545561111E+02 -0.18351444014E+03  0.19077543500E+03  0.00000000000E+00 0. -1.
         11    1    1    2    0    0  0.12004062034E+01  0.32897135846E+02 -0.40555082244E+02  0.52233870408E+02  0.00000000000E+00 0.  1.
</event>
<event>
 7    1  0.8653652E-006  0.9081873E+02  0.7561462E-02  0.1300881E+00
         -2   -1    0    0    0  501 -0.00000000000E+00  0.00000000000E+00  0.10169700429E+03  0.10169700429E+03  0.00000000000E+00 0. -1.
          2   -1    0    0  501    0  0.00000000000E+00 -0.00000000000E+00 -0.11979485365E+03  0.11979485365E+03  0.00000000000E+00 0.  1.
         23    2    1    2    0    0 -0.20357217582E+02 -0.19288504683E+01 -0.13745077700E+02  0.12749166528E+03  0.12508821201E+03 0.  0.
          5    1    3    3  502    0 -0.41052829783E+02 -0.33739655786E+02  0.36341433649E+02  0.64512567810E+02  0.41800000000E+01 0.  1.
         -5    1    3    3    0  502  0.20695612201E+02  0.31810805317E+02 -0.50086511349E+02  0.62979097472E+02  0.41800000000E+01 0.  1.
        -11    1    1    2    0    0 -0.30571271874E+02  0.19522584402E+02 -0.14691713701E+02  0.39135411294E+02  0.00000000000E+00 0.  1.
         11    1    1    2    0    0  0.50928489455E+02 -0.17593733933E+02  0.10338942034E+02  0.54864781366E+02  0.00000000000E+00 0. -1.
</event>
<event>
 7    1  0.8653652E-006  0.1146628E+03  0.7561462E-02  0.1252171E+00
         -1   -1    0    0    0  501 -0.00000000000E+00  0.00000000000E+00  0.38054860050E+03  0.38054860050E+03  0.00000000000E+00 0.  1.
          1   -1    0    0  501    0  0.00000000000E+00 -0.00000000000E+00 -0.62457984035E+02  0.62457984035E+02  0.00000000000E+00 0. -1.
         23    2    1    2    0    0 -0.68606436720E+01 -0.75824844529E+02  0.28569617239E+03  0.32103917561E+03  0.12508946350E+03 0.  0.
          5    1    3    3  502    0  0.31076728764E+02  0.14922142601E+02  0.26214154348E+02  0.43509627655E+02  0.41800000000E+01 0. -1.
         -5    1    3    3    0  502 -0.37937372436E+02 -0.90746987130E+02  0.25948201804E+03  0.27752954796E+03  0.41800000000E+01 0. -1.
        -11    1    1    2    0    0  0.26532394691E+02  0.11554055607E+02  0.45077615633E+02  0.53567299728E+02  0.00000000000E+00 0.  1.
         11    1    1    2    0    0 -0.19671751019E+02  0.64270788922E+02 -0.12683171561E+02  0.68400109194E+02  0.00000000000E+00 0. -1.
</event>
<event>
 6    1  0.8653652E-006  0.1253457E+03  0.7561462E-02  0.1234530E+00
          1   -1    0    0  501    0  0.00000000000E+00  0.00000000000E+00  0.10444033044E+03  0.10444033044E+03  0.00000000000E+00 0. -1.
         -1   -1    0    0    0  501 -0.00000000000E+00 -0.00000000000E+00 -0.18691455791E+03  0.18691455791E+03  0.00000000000E+00 0.  1.
          5    1    1    2  502    0  0.37871041623E+02 -0.34953679467E+02 -0.55695017042E+02  0.75995939531E+02  0.41800000000E+01 0. -1.
         -5    1    1    2    0  502 -0.64820280534E+02  0.84897413484E+02 -0.67865184575E+01  0.10711101165E+03  0.41800000000E+01 0.  1.
        -11    1    1    2    0    0 -0.60902568657E+01  0.16661963798E+02  0.17552375877E+02  0.24955924452E+02  0.00000000000E+00 0. -1.
         11    1    1    2    0    0  0.33039495777E+02 -0.66605697815E+02 -0.37545067844E+02  0.83292012715E+02  0.00000000000E+00 0.  1.
</event>
<event>
 6    1  0.8653652E-006  0.1067627E+03  0.7561462E-02  0.1266685E+00
          2   -1    0    0  501    0  0.00000000000E+00  0.00000000000E+00  0.17447630808E+03  0.17447630808E+03  0.00000000000E+00 0. -1.
         -2   -1    0    0    0  501 -0.00000000000E+00 -0.00000000000E+00 -0.86345854617E+03  0.86345854617E+03  0.00000000000E+00 0.  1.
          5    1    1    2  502    0 -0.57864199423E+02  0.86058810707E+01 -0.19960274333E+03  0.20804099190E+03  0.41800000000E+01 0. -1.
         -5    1    1    2    0  502  0.25505903736E+02 -0.72163593401E+02 -0.62651810098E+03  0.63118978017E+03  0.41800000000E+01 0.  1.
        -11    1    1    2    0    0 -0.61957415703E+01  0.14941887511E+02 -0.22339499082E+02  0.27580798307E+02  0.00000000000E+00 0.  1.
         11    1    1    2    0    0  0.38554037258E+02  0.48615824819E+02  0.15947810531E+03  0.17112328387E+03  0.00000000000E+00 0. -1.
</event>
<event>
 7    1  0.8653652E-006  0.7174713E+02  0.7561462E-02  0.1354251E+00
          1   -1    0    0  501    0  0.00000000000E+00  0.00000000000E+00  0.51245271658E+03  0.51245271658E+03  0.00000000000E+00 0.  1.
         -1   -1    0    0    0  501 -0.00000000000E+00 -0.00000000000E+00 -0.30334418985E+02  0.30334418985E+02  0.00000000000E+00 0. -1.
         23    2    1    2    0    0  0.40657700592E+01  0.12412418819E+02  0.13825970018E+03  0.18690624994E+03  0.12509037911E+03 0.  0.
          5    1    3    3  502    0 -0.17717119138E+02  0.24243183967E+02 -0.13422444428E+02  0.33155130731E+02  0.41800000000E+01 0. -1.
         -5    1    3    3    0  502  0.21782889197E+02 -0.11830765148E+02  0.15168214460E+03  0.15375111921E+03  0.41800000000E+01 0. -1.
        -11    1    1    2    0    0  0.92642137793E+01  0.36337453544E+02  0.19785960936E+03  0.20138187903E+03  0.00000000000E+00 0.  1.
         11    1    1    2    0    0 -0.13329983839E+02 -0.48749872363E+02  0.14599898806E+03  0.15449900660E+03  0.00000000000E+00 0. -1.
</event>
<event>
 7    1  0.8653652E-006  0.3552568E+03  0.7561462E-02  0.1060478E+00
          2   -1    0    0  501    0  0.00000000000E+00  0.00000000000E+00  0.26245178306E+04  0.26245178306E+04  0.00000000000E+00 0. -1.
         -2   -1    0    0    0  501 -0.00000000000E+00 -0.00000000000E+00 -0.53281978961E+02  0.53281978961E+02  0.00000000000E+00 0.  1.
         23    2    1    2    0    0 -0.29706844799E+03 -0.19244854731E+03  0.11204094737E+04  0.11816310345E+04  0.12509359260E+03 0.  0.
          5    1    3    3  502    0 -0.22379890487E+03 -0.13366516236E+03  0.96848874652E+03  0.10029657272E+04  0.41800000000E+01 0.  1.
         -5    1    3    3    0  502 -0.73269543127E+02 -0.58783384951E+02  0.15192072717E+03  0.17866530732E+03  0.41800000000E+01 0.  1.
        -11    1    1    2    0    0  0.82348669972E+02  0.73110775338E+02  0.62320334915E+03  0.63285772754E+03  0.00000000000E+00 0.  1.
         11    1    1    2    0    0  0.21471977802E+03  0.11933777198E+03  0.82762302883E+03  0.86331104750E+03  0.00000000000E+00 0. -1.
</event>
<event>
 6    1  0.8653652E-006  0.3315476E+03  0.7561462E-02  0.1070454E+00
          2   -1    0    0  501    0  0.00000000000E+00  0.00000000000E+00  0.70103852676E+03  0.70103852676E+03  0.00000000000E+00 0. -1.
         -2   -1    0    0    0  501 -0.00000000000E+00 -0.00000000000E+00 -0.25557625462E+03  0.25557625462E+03  0.00000000000E+00 0.  1.
          5    1    1    2  502    0  0.21210488146E+03  0.20971125565E+03  0.10488802184E+03  0.31620604202E+03  0.41800000000E+01 0. -1.
         -5    1    1    2    0  502 -0.85898216651E+02 -0.20274478162E+03 -0.45005244665E+02  0.22478188216E+03  0.41800000000E+01 0.  1.
        -11    1    1    2    0    0 -0.13344766603E+03 -0.14353670994E+02  0.38164772983E+03  0.40456062231E+03  0.00000000000E+00 0.  1.
         11    1    1    2    0    0  0.72410012254E+01  0.73871969698E+01  0.39317651457E+01  0.11066234905E+02  0.00000000000E+00 0. -1.
</event>
<event>
 7    1  0.8653652E-006  0.5364033E+02  0.7561462E-02  0.1426640E+00
         -1   -1    0    0    0  501 -0.00000000000E+00  0.00000000000E+00  0.13741867028E+03  0.13741867028E+03  0.00000000000E+00 0.  1.
          1   -1    0    0  501    0  0.00000000000E+00 -0.00000000000E+00 -0.65800359072E+02  0.65800359072E+02  0.00000000000E+00 0. -1.
         23    2    1    2    0    0  0.76088003786E+01  0.15660820258E+02  0.56918057254E+02  0.13852826543E+03  0.12508900809E+03 0.  0.
          5    1    3    3  502    0  0.28048567412E+01 -0.29153366847E+02  0.81722771485E+02  0.86913001324E+02  0.41800000000E+01 0.  1.
         -5    1    3    3    0  502  0.48039436374E+01  0.44814187104E+02 -0.24804714231E+02  0.51615264103E+02  0.41800000000E+01 0.  1.
        -11    1    1    2    0    0  0.10194815027E+02 -0.83791425840E+01 -0.20614926081E+02  0.24476916906E+02  0.00000000000E+00 0. -1.
         11    1    1    2    0    0 -0.17803615405E+02 -0.72816776735E+01  0.35315180035E+02  0.40213847020E+02  0.00000000000E+00 0.  1.
</event>
<event>
 7    1  0.8653652E-006  0.2404166E+03  0.7561462E-02  0.1119516E+00
          2   -1    0    0  501    0  0.00000000000E+00  0.00000000000E+00  0.14616902778E+03  0.14616902778E+03  0.00000000000E+00 0. -1.
         -2   -1    0    0    0  501 -0.00000000000E+00 -0.00000000000E+00 -0.63164090787E+03  0.63164090787E+03  0.00000000000E+00 0.  1.
         23    2    1    2    0    0  0.54138261745E+02  0.21112664319E+03 -0.48029887845E+03  0.54207015439E+03  0.12509048241E+03 0.  0.
          5    1    3    3  502    0 -0.14585646942E+02  0.17036771380E+03 -0.31579265113E+03  0.35913837154E+03  0.41800000000E+01 0. -1.
         -5    1    3    3    0  502  0.68723908687E+02  0.40758929391E+02 -0.16450622732E+03  0.18293178285E+03  0.41800000000E+01 0. -1.
        -11    1    1    2    0    0 -0.68040878529E+02 -0.12301223738E+03  0.22448155930E+02  0.14235691554E+03  0.00000000000E+00 0.  1.
         11    1    1    2    0    0  0.13902616784E+02 -0.88114405813E+02 -0.27621157568E+02  0.93382865723E+02  0.00000000000E+00 0. -1.
</event>
<event>
 6    1  0.8653652E-006  0.1261414E+03  0.7561462E-02  0.1233296E+00
         -4   -1    0    0    0  501 -0.00000000000E+00  0.00000000000E+00  0.53987450785E+02  0.53987450785E+02  0.00000000000E+00 0.  1.
          4   -1    0    0  501    0  0.00000000000E+00 -0.00000000000E+00 -0.44398316462E+03  0.44398316462E+03  0.00000000000E+00 0. -1.
          5    1    1    2  502    0 -0.88915222170E+02 -0.30694448804E+02 -0.22080809957E+03  0.24004531896E+03  0.41800000000E+01 0. -1.
         -5    1    1    2    0  502  0.60187032025E+02  0.22126710795E+02 -0.87065064111E+00  0.64267414660E+02  0.41800000000E+01 0.  1.
        -11    1    1    2    0    0  0.60900571736E+02  0.14702637902E+01 -0.12665188024E+03  0.14054088402E+03  0.00000000000E+00 0. -1.
         11    1    1    2    0    0 -0.32172381591E+02  0.70974742189E+01 -0.41665083390E+02  0.53116997763E+02  0.00000000000E+00 0.  1.
</event>
<event>
 7    1  0.8653652E-006  0.2743968E+03  0.7561462E-02  0.1098789E+00
         -3   -1    0    0    0  501 -0.00000000000E+00  0.00000000000E+00  0.57391037917E+03  0.57391037917E+03  0.00000000000E+00 0.  1.
          3   -1    0    0  501    0  0.00000000000E+00 -0.00000000000E+00 -0.16285986491E+03  0.16285986491E+03  0.00000000000E+00 0. -1.
         23    2    1    2    0    0  0.22112266096E+03 -0.15691004331E+03  0.31763361795E+03  0.43595312681E+03  0.12509204868E+03 0.  0.
          5    1    3    3  502    0  0.13939630318E+03 -0.81413770764E+02  0.27052804952E+03  0.31505940613E+03  0.41800000000E+01 0.  1.
         -5    1    3    3    0  502  0.81726357779E+02 -0.75496272544E+02  0.47105568431E+02  0.12089372068E+03  0.41800000000E+01 0.  1.
        -11    1    1    2    0    0 -0.75667873905E+02  0.84704369462E+02  0.77813199533E+02  0.13767843465E+03  0.00000000000E+00 0.  1.
         11    1    1    2    0    0 -0.14545478706E+03  0.72205673846E+02  0.15603696772E+02  0.16313868262E+03  0.00000000000E+00 0. -1.
</event>
<event>
 7    1  0.8653652E-006  0.1118963E+03  0.7561462E-02  0.1257098E+00
         -2   -1    0    0    0  501 -0.00000000000E+00  0.00000000000E+00  0.12958894931E+03  0.12958894931E+03  0.00000000000E+00 0.  1.
          2   -1    0    0  501    0  0.00000000000E+00 -0.00000000000E+00 -0.15039948551E+03  0.15039948551E+03  0.00000000000E+00 0. -1.
         23    2    1    2    0    0 -0.18786971722E+02  0.67486004014E+02  0.42497367657E+02  0.14953698039E+03  0.12509185106E+03 0.  0.
          5    1    3    3  502    0  0.16021025145E+02  0.84993009313E+02 -0.64563068971E+01  0.86831107199E+02  0.41800000000E+01 0. -1.
         -5    1    3    3    0  502 -0.34807996867E+02 -0.17507005299E+02  0.48953674554E+02  0.62705873192E+02  0.41800000000E+01 0. -1.
        -11    1    1    2    0    0  0.43254804693E+02 -0.27880812401E+02  0.50221170491E+00  0.51464259888E+02  0.00000000000E+00 0.  1.
         11    1    1    2    0    0 -0.24467832971E+02 -0.39605191613E+02 -0.63810115565E+02  0.78987194540E+02  0.00000000000E+00 0. -1.
</event>
<event>
 7    1  0.8653652E-006  0.1157152E+03  0.7561462E-02  0.1250338E+00
          2   -1    0    0  501    0  0.00000000000E+00  0.00000000000E+00  0.16450089870E+03  0.16450089870E+03  0.00000000000E+00 0. -1.
         -2   -1    0    0    0  501 -0.00000000000E+00 -0.00000000000E+00 -0.12772495230E+03  0.12772495230E+03  0.00000000000E+00 0.  1.
         23    2    1    2    0    0 -0.92970065815E+02 -0.72379457078E+01  0.89023965584E+01  0.15627827761E+03  0.12509127225E+03 0.  0.
          5    1    3    3  502    0 -0.47465235643E+02  0.22998336709E+02 -0.52117656325E+02  0.74267049132E+02  0.41800000000E+01 0.  1.
         -5    1    3    3    0  502 -0.45504830172E+02 -0.30236282417E+02  0.61020052883E+02  0.82011228483E+02  0.41800000000E+01 0.  1.
        -11    1    1    2    0    0  0.11926979113E+02 -0.31660669483E+02 -0.14202693848E+02  0.36692878538E+02  0.00000000000E+00 0. -1.
         11    1    1    2    0    0  0.81043086702E+02  0.38898615191E+02  0.42076243697E+02  0.99254694849E+02  0.00000000000E+00 0.  1.
</event>
<event>
 7    1  0.8653652E-006  0.1819139E+03  0.7561462E-02  0.1165964E+00
          1   -1    0    0  501    0  0.00000000000E+00  0.00000000000E+00  0.10892453547E+04  0.10892453547E+04  0.00000000000E+00 0. -1.
         -1   -1    0    0    0  501 -0.00000000000E+00 -0.00000000000E+00 -0.37061709409E+02  0.37061709409E+02  0.00000000000E+00 0.  1.
         23    2    1    2    0    0 -0.78478789068E+02  0.14532688815E+03  0.45360984935E+03  0.49868601085E+03  0.12508803794E+03 0.  0.
          5    1    3    3  502    0 -0.46448785618E+02  0.57209966933E+01  0.21732417357E+03  0.22234542564E+03  0.41800000000E+01 0.  1.
         -5    1    3    3    0  502 -0.32030003450E+02  0.13960589146E+03  0.23628567578E+03  0.27634058520E+03  0.41800000000E+01 0.  1.
        -11    1    1    2    0    0  0.51035278888E+02 -0.40397944040E+02  0.35604464524E+03  0.36194527622E+03  0.00000000000E+00 0. -1.
         11    1    1    2    0    0  0.27443510180E+02 -0.10492894411E+03  0.24252915067E+03  0.26567577701E+03  0.00000000000E+00 0.  1.
</event>
<event>
 7    1  0.8653652E-006  0.1299568E+03  0.7561462E-02  0.1227520E+00
         -1   -1    0    0    0  501 -0.00000000000E+00  0.00000000000E+00  0.89178174267E+02  0.89178174267E+02  0.00000000000E+00 0.  1.
          1   -1    0    0  501    0  0.00000000000E+00 -0.00000000000E+00 -0.19275682975E+03  0.19275682975E+03  0.00000000000E+00 0. -1.
         23    2    1    2    0    0  0.35651841700E+02 -0.63905942093E+02 -0.51145221686E+02  0.15368925764E+03  0.12509808536E+03 0.  0.
          5    1    3    3  502    0 -0.17296652927E+02 -0.84414651011E+02 -0.19112820878E+02  0.88361642298E+02  0.41800000000E+01 0. -1.
         -5    1    3    3    0  502  0.52948494628E+02  0.20508708918E+02 -0.32032400808E+02  0.65327615342E+02  0.41800000000E+01 0. -1.
        -11    1    1    2    0    0  0.17382487088E+02  0.61183052506E+02 -0.33344830019E+02  0.71815001638E+02  0.00000000000E+00 0.  1.
         11    1    1    2    0    0 -0.53034328788E+02  0.27228895870E+01 -0.19088603783E+02  0.56430744741E+02  0.00000000000E+00 0. -1.
</event>
<event>
 7    1  0.8653652E-006  0.1081383E+03  0.7561462E-02  0.1264057E+00
          2   -1    0    0  501    0  0.00000000000E+00  0.00000000000E+00  0.37669129446E+02  0.37669129446E+02  0.00000000000E+00 0. -1.
         -2   -1    0    0    0  501 -0.00000000000E+00 -0.00000000000E+00 -0.36252071044E+03  0.36252071044E+03  0.00000000000E+00 0.  1.
         23    2    1    2    0    0  0.15542629242E+01  0.37792695062E+02 -0.21824034900E+03  0.25437668403E+03  0.12509174199E+03 0.  0.
          5    1    3    3  502    0 -0.53229169007E+02  0.48428603759E+02 -0.14754343355E+03  0.16421087442E+03  0.41800000000E+01 0.  1.
         -5    1    3    3    0  502  0.54783431931E+02 -0.10635908698E+02 -0.70696915452E+02  0.90165809609E+02  0.41800000000E+01 0.  1.
        -11    1    1    2    0    0  0.35400667096E+02 -0.37083639806E+02 -0.93429109044E+02  0.10657111236E+03  0.00000000000E+00 0.  1.
         11    1    1    2    0    0 -0.36954930020E+02 -0.70905525510E+00 -0.13182122943E+02  0.39242043492E+02  0.00000000000E+00 0. -1.
</event>
<event>
 7    1  0.1184079E-005  0.1593391E+03  0.7561462E-02  0.1189445E+00
         -2   -1    0    0    0  501 -0.00000000000E+00  0.00000000000E+00  0.23831652843E+02  0.23831652843E+02  0.00000000000E+00 0.  1.
          2   -1    0    0  501    0  0.00000000000E+00 -0.00000000000E+00 -0.11947263958E+04  0.11947263958E+04  0.00000000000E+00 0. -1.
         23    2    1    2    0    0  0.11797143042E+03  0.35404995474E+02 -0.55565854819E+03  0.58273041369E+03  0.12509013056E+03 0.  0.
          5    1    3    3  502    0  0.57940665978E+02 -0.39182862203E+02 -0.14507740606E+03  0.16111282883E+03  0.41800000000E+01 0. -1.
         -5    1    3    3    0  502  0.60030764443E+02  0.74587857677E+02 -0.41058114212E+03  0.42161758485E+03  0.41800000000E+01 0. -1.
        -11    1    1    2    0    0 -0.74292863835E+02  0.24860655226E+02 -0.41220642611E+03  0.41958505636E+03  0.00000000000E+00 0. -1.
         11    1    1    2    0    0 -0.43678566586E+02 -0.60265650700E+02 -0.20302976863E+03  0.21624257856E+03  0.00000000000E+00 0.  1.
</event>
<event>
 7    1  0.8653652E-006  0.9558326E+02  0.7561462E-02  0.1289868E+00
         -4   -1    0    0    0  501 -0.00000000000E+00  0.00000000000E+00  0.20076345338E+03  0.20076345338E+03  0.00000000000E+00 0.  1.
          4   -1    0    0  501    0  0.00000000000E+00 -0.00000000000E+00 -0.13784671317E+03  0.13784671317E+03  0.00000000000E+00 0. -1.
         23    2    1    2    0    0  0.17122459501E+01 -0.33340452383E+02  0.15703626693E+03  0.20352435033E+03  0.12508898630E+03 0.  0.
          5    1    3    3  502    0  0.56582907408E+02  0.11211625591E+02  0.82145590381E+02  0.10046241276E+03  0.41800000000E+01 0.  1.
         -5    1    3    3    0  502 -0.54870661458E+02 -0.44552077974E+02  0.74890676550E+02  0.10306193757E+03  0.41800000000E+01 0.  1.
        -11    1    1    2    0    0 -0.27207281578E+02  0.14519043406E+02  0.48035736752E+01  0.31210785193E+02  0.00000000000E+00 0.  1.
         11    1    1    2    0    0  0.25495035628E+02  0.18821408977E+02 -0.98923100400E+02  0.10387503102E+03  0.00000000000E+00 0. -1.
</event>
<event>
 7    1  0.8653652E-006  0.1329455E+03  0.7561462E-02  0.1223149E+00
          2   -1    0    0  501    0  0.00000000000E+00  0.00000000000E+00  0.77647926612E+03  0.77647926612E+03  0.00000000000E+00 0. -1.
         -2   -1    0    0    0  501 -0.00000000000E+00 -0.00000000000E+00 -0.29293336901E+02  0.29293336901E+02  0.00000000000E+00 0.  1.
         23    2    1    2    0    0  0.80192975601E+02 -0.62259134374E+02  0.44804852914E+03  0.47614013328E+03  0.12511925876E+03 0.  0.
          5    1    3    3  502    0 -0.32139456079E+02 -0.26853669886E+02  0.94040646970E+02  0.10302999518E+03  0.41800000000E+01 0. -1.
         -5    1    3    3    0  502  0.11233243168E+03 -0.35405464488E+02  0.35400788217E+03  0.37311013811E+03  0.41800000000E+01 0. -1.
        -11    1    1    2    0    0 -0.28270810156E+02  0.41088776850E+02  0.38430291740E+02  0.62963589583E+02  0.00000000000E+00 0.  1.
         11    1    1    2    0    0 -0.51922165445E+02  0.21170357524E+02  0.26070710834E+03  0.26666888015E+03  0.00000000000E+00 0. -1.
</event>
<event>
 7    1  0.8653652E-006  0.1062080E+03  0.7561462E-02  0.1267758E+00
          1   -1    0    0  501    0  0.00000000000E+00  0.00000000000E+00  0.50691867961E+02  0.50691867961E+02  0.00000000000E+00 0. -1.
         -1   -1    0    0    0  501 -0.00000000000E+00 -0.00000000000E+00 -0.27818805908E+03  0.27818805908E+03  0.00000000000E+00 0.  1.
         23    2    1    2    0    0  0.14145887135E+02  0.32509265942E+02 -0.18450201938E+03  0.22570734679E+03  0.12508338318E+03 0.  0.
          5    1    3    3  502    0 -0.55695134167E+02  0.13100605949E+02 -0.84042737552E+02  0.10175572702E+03  0.41800000000E+01 0.  1.
         -5    1    3    3    0  502  0.69841021302E+02  0.19408659993E+02 -0.10045928183E+03  0.12395161977E+03  0.41800000000E+01 0.  1.
        -11    1    1    2    0    0 -0.27040433385E+02  0.16557848468E+02 -0.41748590420E+02  0.52424156508E+02  0.00000000000E+00 0.  1.
         11    1    1    2    0    0  0.12894546250E+02 -0.49067114409E+02 -0.12455813232E+01  0.50748423742E+02  0.00000000000E+00 0. -1.
</event>
<event>
 7    1  0.8653652E-006  0.2063061E+03  0.7561462E-02  0.1144525E+00
          2   -1    0    0  501    0  0.00000000000E+00  0.00000000000E+00  0.76461308569E+03  0.76461308569E+03  0.00000000000E+00 0. -1.
         -2   -1    0    0    0  501 -0.00000000000E+00 -0.00000000000E+00 -0.10852839038E+03  0.10852839038E+03  0.00000000000E+00 0.  1.
         23    2    1    2    0    0 -0.64456541494E+02 -0.17175304882E+03  0.42289021645E+02  0.22603056447E+03  0.12509076386E+03 0.  0.
          5    1    3    3  502    0 -0.96329991204E+02 -0.10774696371E+03  0.36243482070E+01  0.14463569301E+03  0.41800000000E+01 0.  1.
         -5    1    3    3    0  502  0.31873449710E+02 -0.64006085112E+02  0.38664673438E+02  0.81394871459E+02  0.41800000000E+01 0.  1.
        -11    1    1    2    0    0  0.84587927794E+01  0.11952242676E+03  0.27849939250E+03  0.30318158469E+03  0.00000000000E+00 0.  1.
         11    1    1    2    0    0  0.55997748714E+02  0.52230622061E+02  0.33529628116E+03  0.34392932690E+03  0.00000000000E+00 0. -1.
</event>
<event>
 7    1  0.8653652E-006  0.1126523E+03  0.7561462E-02  0.1255736E+00
          2   -1    0    0  501    0  0.00000000000E+00  0.00000000000E+00  0.12973264529E+03  0.12973264529E+03  0.00000000000E+00 0.  1.
         -2   -1    0    0    0  501 -0.00000000000E+00 -0.00000000000E+00 -0.13025765259E+03  0.13025765259E+03  0.00000000000E+00 0. -1.
         23    2    1    2    0    0 -0.19456827933E+02 -0.62067119980E+02 -0.33661223826E+02  0.14495266853E+03  0.12508917854E+03 0.  0.
          5    1    3    3  502    0 -0.13253802490E+02 -0.93313664554E+02 -0.52237795553E+02  0.10783952410E+03  0.41800000000E+01 0. -1.
         -5    1    3    3    0  502 -0.62030254431E+01  0.31246544575E+02  0.18576571727E+02  0.37113144432E+02  0.41800000000E+01 0. -1.
        -11    1    1    2    0    0  0.39940678244E+02  0.76219426408E+01 -0.10878328853E+02  0.42091446006E+02  0.00000000000E+00 0. -1.
         11    1    1    2    0    0 -0.20483850311E+02  0.54445177339E+02  0.44014545381E+02  0.72946183342E+02  0.00000000000E+00 0.  1.
</event>
<event>
 7    1  0.8653652E-006  0.1152704E+03  0.7561462E-02  0.1251110E+00
          2   -1    0    0  501    0  0.00000000000E+00  0.00000000000E+00  0.70676777860E+03  0.70676777860E+03  0.00000000000E+00 0. -1.
         -2   -1    0    0    0  501 -0.00000000000E+00 -0.00000000000E+00 -0.30849594060E+02  0.30849594060E+02  0.00000000000E+00 0.  1.
         23    2    1    2    0    0 -0.10021707165E+03  0.55591669192E+01  0.36379252341E+03  0.39757667477E+03  0.12509135239E+03 0.  0.
          5    1    3    3  502    0 -0.93363113136E+02  0.76229612193E+01  0.11383192804E+03  0.14747867871E+03  0.41800000000E+01 0. -1.
         -5    1    3    3    0  502 -0.68539585108E+01 -0.20637943001E+01  0.24996059537E+03  0.25009799606E+03  0.41800000000E+01 0. -1.
        -11    1    1    2    0    0  0.35599757999E+02 -0.41393528058E+02  0.18618835250E+03  0.19402801226E+03  0.00000000000E+00 0. -1.
         11    1    1    2    0    0  0.64617313647E+02  0.35834361139E+02  0.12593730863E+03  0.14601268563E+03  0.00000000000E+00 0.  1.
</event>
<event>
 7    1  0.1924672E-005  0.2534270E+03  0.7561462E-02  0.1111158E+00
         -1   -1    0    0    0  501 -0.00000000000E+00  0.00000000000E+00  0.42802478224E+03  0.42802478224E+03  0.00000000000E+00 0.  1.
          1   -1    0    0  501    0  0.00000000000E+00 -0.00000000000E+00 -0.19439144183E+03  0.19439144183E+03  0.00000000000E+00 0. -1.
         23    2    1    2    0    0 -0.24125441916E+03 -0.56282114743E+02  0.22665309582E+03  0.35831644207E+03  0.12509066957E+03 0.  0.
          5    1    3    3  502    0 -0.20714549279E+03 -0.59723806073E+02  0.23876526725E+03  0.32171806514E+03  0.41800000000E+01 0. -1.
         -5    1    3    3    0  502 -0.34108926371E+02  0.34416913304E+01 -0.12112171429E+02  0.36598376933E+02  0.41800000000E+01 0. -1.
        -11    1    1    2    0    0  0.71041543495E+02 -0.14232238703E+02  0.30015629936E+02  0.78424457672E+02  0.00000000000E+00 0.  1.
         11    1    1    2    0    0  0.17021287566E+03  0.70514353445E+02 -0.23035385349E+02  0.18567532432E+03  0.00000000000E+00 0. -1.
</event>
<event>
 7    1  0.8653652E-006  0.1084285E+03  0.7561462E-02  0.1263508E+00
          2   -1    0    0  501    0  0.00000000000E+00  0.00000000000E+00  0.50479384333E+03  0.50479384333E+03  0.00000000000E+00 0. -1.
         -2   -1    0    0    0  501 -0.00000000000E+00 -0.00000000000E+00 -0.76817972966E+02  0.76817972966E+02  0.00000000000E+00 0.  1.
         23    2    1    2    0    0  0.38055530160E+02 -0.40342097840E+02 -0.42250622390E+01  0.13690303699E+03  0.12509549214E+03 0.  0.
          5    1    3    3  502    0  0.65373167304E+02 -0.17998884525E+01 -0.40639382283E+02  0.77109807379E+02  0.41800000000E+01 0. -1.
         -5    1    3    3    0  502 -0.27317637144E+02 -0.38542209387E+02  0.36414320043E+02  0.59793229615E+02  0.41800000000E+01 0. -1.
        -11    1    1    2    0    0  0.27615233795E+02  0.16199398140E+01  0.14141604019E+03  0.14409622398E+03  0.00000000000E+00 0.  1.
         11    1    1    2    0    0 -0.65670763955E+02  0.38722158026E+02  0.29078489241E+03  0.30061255532E+03  0.00000000000E+00 0. -1.
</event>
<event>
 7    1  0.8653652E-006  0.8761341E+02  0.7561462E-02  0.1308736E+00
          1   -1    0    0  501    0  0.00000000000E+00  0.00000000000E+00  0.17528037646E+03  0.17528037646E+03  0.00000000000E+00 0. -1.
         -1   -1    0    0    0  501 -0.00000000000E+00 -0.00000000000E+00 -0.83463052497E+02  0.83463052497E+02  0.00000000000E+00 0.  1.
         23    2    1    2    0    0  0.36732027789E+02  0.22540296625E+02  0.14316773354E+02  0.13307910727E+03  0.12509105466E+03 0.  0.
          5    1    3    3  502    0  0.20001324762E+02  0.49945679971E+02  0.57662210035E+02  0.78974849200E+02  0.41800000000E+01 0.  1.
         -5    1    3    3    0  502  0.16730703026E+02 -0.27405383346E+02 -0.43345436681E+02  0.54104258069E+02  0.41800000000E+01 0.  1.
        -11    1    1    2    0    0  0.59365544759E+01 -0.41692834641E+02  0.64657631988E+02  0.77163103318E+02  0.00000000000E+00 0. -1.
         11    1    1    2    0    0 -0.42668582265E+02  0.19152538016E+02  0.12842918623E+02  0.48501218373E+02  0.00000000000E+00 0.  1.
</event>
<event>
 7    1  0.8653652E-006  0.1247167E+03  0.7561462E-02  0.1235513E+00
         -2   -1    0    0    0  501 -0.00000000000E+00  0.00000000000E+00  0.16865365132E+02  0.16865365132E+02  0.00000000000E+00 0.  1.
          2   -1    0    0  501    0  0.00000000000E+00 -0.00000000000E+00 -0.14177468031E+04  0.14177468031E+04  0.00000000000E+00 0. -1.
         23    2    1    2    0    0  0.57129530307E+02 -0.93334019225E+02 -0.74156663282E+03  0.75996315600E+03  0.12509158719E+03 0.  0.
          5    1    3    3  502    0  0.86762069498E+01 -0.53129620078E+02 -0.62572838992E+03  0.62805375841E+03  0.41800000000E+01 0.  1.
         -5    1    3    3    0  502  0.48453323357E+02 -0.40204399147E+02 -0.11583824290E+03  0.13190939759E+03  0.41800000000E+01 0.  1.
        -11    1    1    2    0    0  0.12429725232E+02 -0.36808342976E+01 -0.17232550823E+02  0.21564030661E+02  0.00000000000E+00 0.  1.
         11    1    1    2    0    0 -0.69559255539E+02  0.97014853523E+02 -0.64208225428E+03  0.65308498152E+03  0.00000000000E+00 0. -1.
</event>
<event>
 7    1  0.8653652E-006  0.1081810E+03  0.7561462E-02  0.1263976E+00
          2   -1    0    0  501    0  0.00000000000E+00  0.00000000000E+00  0.10730370876E+03  0.10730370876E+03  0.00000000000E+00 0. -1.
         -2   -1    0    0    0  501 -0.00000000000E+00 -0.00000000000E+00 -0.13747529665E+03  0.13747529665E+03  0.00000000000E+00 0.  1.
         23    2    1    2    0    0  0.31760949943E+02 -0.18382492863E+02 -0.68465123075E+02  0.13653175373E+03  0.11227988561E+03 0.  0.
          5    1    3    3  502    0  0.16679745541E+02 -0.64360442615E+02 -0.24379341385E+02  0.70938742386E+02  0.41800000000E+01 0. -1.
         -5    1    3    3    0  502  0.15081204402E+02  0.45977949752E+02 -0.44085781690E+02  0.65593011341E+02  0.41800000000E+01 0.  1.
        -11    1    1    2    0    0  0.11678911069E+02 -0.32345771164E+02  0.14956817858E+02  0.37501363660E+02  0.00000000000E+00 0.  1.
         11    1    1    2    0    0 -0.43439861011E+02  0.50728264027E+02  0.23336717330E+02  0.70745888019E+02  0.00000000000E+00 0. -1.
</event>
<event>
 7    1  0.8653652E-006  0.1260373E+03  0.7561462E-02  0.1233457E+00
         -4   -1    0    0    0  501 -0.00000000000E+00  0.00000000000E+00  0.13015731390E+03  0.13015731390E+03  0.00000000000E+00 0.  1.
          4   -1    0    0  501    0  0.00000000000E+00 -0.00000000000E+00 -0.13112077625E+03  0.13112077625E+03  0.00000000000E+00 0. -1.
         23    2    1    2    0    0  0.71310829735E+02 -0.13024465523E+02 -0.10290854731E+01  0.14459497102E+03  0.12510705611E+03 0.  0.
          5    1    3    3  502    0 -0.29375154814E+02  0.15156515995E+02 -0.19103952093E+02  0.38406419815E+02  0.41800000000E+01 0.  1.
         -5    1    3    3    0  502  0.10068598455E+03 -0.28180981517E+02  0.18074866619E+02  0.10618855121E+03  0.41800000000E+01 0.  1.
        -11    1    1    2    0    0 -0.89911411006E+02 -0.24154948825E+01  0.10100535636E+02  0.90509210939E+02  0.00000000000E+00 0.  1.
         11    1    1    2    0    0  0.18600581271E+02  0.15439960405E+02 -0.10034912507E+02  0.26173908191E+02  0.00000000000E+00 0. -1.
</event>
<event>
 7    1  0.8653652E-006  0.1167238E+03  0.7561462E-02  0.1248602E+00
          2   -1    0    0  501    0  0.00000000000E+00  0.00000000000E+00  0.20518281504E+03  0.20518281504E+03  0.00000000000E+00 0.  1.
         -2   -1    0    0    0  501 -0.00000000000E+00 -0.00000000000E+00 -0.13769206593E+03  0.13769206593E+03  0.00000000000E+00 0. -1.
         23    2    1    2    0    0 -0.28545371807E+02 -0.10457383243E+03 -0.33105397979E+02  0.16873463858E+03  0.12499954480E+03 0.  0.
          5    1    3    3  502    0 -0.33579739694E+02 -0.63650476262E+02  0.41654614640E+02  0.83255998986E+02  0.41800000000E+01 0. -1.
         -5    1    3    3    0  502  0.50343678865E+01 -0.40923356164E+02 -0.74760012618E+02  0.85478639592E+02  0.41800000000E+01 0. -1.
        -11    1    1    2    0    0  0.43191779644E+02  0.86246044412E+02  0.11220360037E+03  0.14796471857E+03  0.00000000000E+00 0.  1.
         11    1    1    2    0    0 -0.14646407837E+02  0.18327788014E+02 -0.11607453282E+02  0.26175523829E+02  0.00000000000E+00 0. -1.
</event>
<event>
 7    1  0.8653652E-006  0.1821333E+03  0.7561462E-02  0.1165754E+00
         -2   -1    0    0    0  501 -0.00000000000E+00  0.00000000000E+00  0.90556639465E+02  0.90556639465E+02  0.00000000000E+00 0. -1.
          2   -1    0    0  501    0  0.00000000000E+00 -0.00000000000E+00 -0.42390011766E+03  0.42390011766E+03  0.00000000000E+00 0.  1.
         23    2    1    2    0    0  0.20143385144E-02 -0.15539349884E+03 -0.12278714260E+03  0.23424731036E+03  0.12509188838E+03 0.  0.
          5    1    3    3  502    0 -0.62762534742E+01 -0.17596054067E+03 -0.11747555506E+03  0.21170612099E+03  0.41800000000E+01 0. -1.
         -5    1    3    3    0  502  0.62782678128E+01  0.20567041823E+02 -0.53115875368E+01  0.22541189370E+02  0.41800000000E+01 0. -1.
        -11    1    1    2    0    0  0.23180855937E+02  0.12918191924E+03 -0.20691351632E+03  0.24502759758E+03  0.00000000000E+00 0.  1.
         11    1    1    2    0    0 -0.23182870276E+02  0.26211579604E+02 -0.36428192804E+01  0.35181849182E+02  0.00000000000E+00 0. -1.
</event>
<event>
 7    1  0.8653652E-006  0.1858880E+03  0.7561462E-02  0.1162223E+00
         -3   -1    0    0    0  501 -0.00000000000E+00  0.00000000000E+00  0.12397834623E+03  0.12397834623E+03  0.00000000000E+00 0.  1.
          3   -1    0    0  501    0  0.00000000000E+00 -0.00000000000E+00 -0.31509883518E+03  0.31509883518E+03  0.00000000000E+00 0. -1.
         23    2    1    2    0    0 -0.92519692386E+02  0.13643378620E+03 -0.90321768891E+02  0.22578473904E+03  0.12508658982E+03 0.  0.
          5    1    3    3  502    0  0.16642919762E+02 -0.10098189466E+02  0.36933770762E+01  0.20250275132E+02  0.41800000000E+01 0.  1.
         -5    1    3    3    0  502 -0.10916261215E+03  0.14653197566E+03 -0.94015145967E+02  0.20553446391E+03  0.41800000000E+01 0.  1.
        -11    1    1    2    0    0  0.16213932391E+02 -0.47439725236E+01 -0.50098558980E+02  0.52870242016E+02  0.00000000000E+00 0. -1.
         11    1    1    2    0    0  0.76305759995E+02 -0.13168981367E+03 -0.50700161073E+02  0.16042220035E+03  0.00000000000E+00 0.  1.
</event>
<event>
 7    1  0.8653652E-006  0.9652990E+02  0.7561462E-02  0.1287767E+00
         -2   -1    0    0    0  501 -0.00000000000E+00  0.00000000000E+00  0.50602349012E+02  0.50602349012E+02  0.00000000000E+00 0. -1.
          2   -1    0    0  501    0  0.00000000000E+00 -0.00000000000E+00 -0.38127717869E+03  0.38127717869E+03  0.00000000000E+00 0.  1.
         23    2    1    2    0    0 -0.27223963234E+02  0.57614795741E+02 -0.88755497257E+02  0.16608979667E+03  0.12509066073E+03 0.  0.
          5    1    3    3  502    0 -0.26626714395E+02  0.83893294242E+02 -0.17246875061E+02  0.89788606391E+02  0.41800000000E+01 0.  1.
         -5    1    3    3    0  502 -0.59724883889E+00 -0.26278498501E+02 -0.71508622196E+02  0.76301190279E+02  0.41800000000E+01 0.  1.
        -11    1    1    2    0    0 -0.10330663478E+02 -0.98568194113E+00  0.36438147476E+01  0.10998707319E+02  0.00000000000E+00 0. -1.
         11    1    1    2    0    0  0.37554626712E+02 -0.56629113800E+02 -0.24556314717E+03  0.25479102371E+03  0.00000000000E+00 0.  1.
</event>
<event>
 7    1  0.8653652E-006  0.2440617E+03  0.7561462E-02  0.1117116E+00
         -3   -1    0    0    0  501 -0.00000000000E+00  0.00000000000E+00  0.25614332932E+03  0.25614332932E+03  0.00000000000E+00 0.  1.
          3   -1    0    0  501    0  0.00000000000E+00 -0.00000000000E+00 -0.50957988349E+03  0.50957988349E+03  0.00000000000E+00 0. -1.
         23    2    1    2    0    0 -0.23595026432E+03 -0.40401598454E+02  0.13233654684E+03  0.30077440643E+03  0.12508982988E+03 0.  0.
          5    1    3    3  502    0 -0.12522073237E+03 -0.52869534447E+02  0.11690974484E+02  0.13649018563E+03  0.41800000000E+01 0. -1.
         -5    1    3    3    0  502 -0.11072953195E+03  0.12467935994E+02  0.12064557236E+03  0.16428422080E+03  0.41800000000E+01 0. -1.
        -11    1    1    2    0    0  0.15718760486E+03  0.38535779982E+02 -0.33263878134E+03  0.36992094874E+03  0.00000000000E+00 0. -1.
         11    1    1    2    0    0  0.78762659455E+02  0.18658184713E+01 -0.53134319674E+02  0.95027857653E+02  0.00000000000E+00 0.  1.
</event>
<event>
 7    1  0.8653652E-006  0.2180125E+03  0.7561462E-02  0.1135373E+00
          1   -1    0    0  501    0  0.00000000000E+00  0.00000000000E+00  0.14735820617E+03  0.14735820617E+03  0.00000000000E+00 0. -1.
         -1   -1    0    0    0  501 -0.00000000000E+00 -0.00000000000E+00 -0.42056124875E+03  0.42056124875E+03  0.00000000000E+00 0.  1.
         23    2    1    2    0    0  0.16688649073E+03 -0.12860760434E+03 -0.22678192364E+03  0.33386923268E+03  0.12509039514E+03 0.  0.
          5    1    3    3  502    0  0.60553736070E+02 -0.75758569849E+01 -0.13546564235E+03  0.14863566604E+03  0.41800000000E+01 0. -1.
         -5    1    3    3    0  502  0.10633275466E+03 -0.12103174736E+03 -0.91316281291E+02  0.18523356664E+03  0.41800000000E+01 0. -1.
        -11    1    1    2    0    0 -0.33179683294E+02  0.45328149778E+02 -0.51835372019E+02  0.76435844590E+02  0.00000000000E+00 0.  1.
         11    1    1    2    0    0 -0.13370680743E+03  0.83279454565E+02  0.54142530776E+01  0.15761437765E+03  0.00000000000E+00 0. -1.
</event>
<event>
 7    1  0.8653652E-006  0.9544793E+02  0.7561462E-02  0.1290170E+00
         -2   -1    0    0    0  501 -0.00000000000E+00  0.00000000000E+00  0.26087416659E+02  0.26087416659E+02  0.00000000000E+00 0.  1.
          2   -1    0    0  501    0  0.00000000000E+00 -0.00000000000E+00 -0.46355724248E+03  0.46355724248E+03  0.00000000000E+00 0. -1.
         23    2    1    2    0    0  0.36986247602E+01 -0.21969535299E+02 -0.25591409396E+03  0.28571940768E+03  0.12508883295E+03 0.  0.
          5    1    3    3  502    0  0.52261437219E+02 -0.45282913746E+01 -0.21009816552E+03  0.21658826099E+03  0.41800000000E+01 0.  1.
         -5    1    3    3    0  502 -0.48562812459E+02 -0.17441243924E+02 -0.45815928440E+02  0.69131146687E+02  0.41800000000E+01 0.  1.
        -11    1    1    2    0    0  0.38629827533E+02  0.21420868812E+02 -0.55383878437E+02  0.70841309888E+02  0.00000000000E+00 0.  1.
         11    1    1    2    0    0 -0.42328452294E+02  0.54866648625E+00 -0.12617185342E+03  0.13308394157E+03  0.00000000000E+00 0. -1.
</event>
<event>
 7    1  0.3426706E-005  0.1242235E+03  0.7561462E-02  0.1236288E+00
          2   -1    0    0  501    0  0.00000000000E+00  0.00000000000E+00  0.11852469305E+04  0.11852469305E+04  0.00000000000E+00 0. -1.
         -2   -1    0    0    0  501 -0.00000000000E+00 -0.00000000000E+00 -0.16611410015E+02  0.16611410015E+02  0.00000000000E+00 0.  1.
         23    2    1    2    0    0 -0.18585515784E+02  0.86615694666E+02  0.61140947442E+03  0.63033061481E+03  0.12508972217E+03 0.  0.
          5    1    3    3  502    0  0.84888805833E+01  0.92889091911E+02  0.23494050193E+03  0.25281407464E+03  0.41800000000E+01 0. -1.
         -5    1    3    3    0  502 -0.27074396367E+02 -0.62733972451E+01  0.37646897249E+03  0.37751654016E+03  0.41800000000E+01 0. -1.
        -11    1    1    2    0    0 -0.36980015920E+02 -0.39641622950E+02  0.22777817006E+03  0.23414071539E+03  0.00000000000E+00 0.  1.
         11    1    1    2    0    0  0.55565531704E+02 -0.46974071716E+02  0.32944787603E+03  0.33738701034E+03  0.00000000000E+00 0. -1.
</event>
<event>
 7    1  0.8653652E-006  0.1235529E+03  0.7561462E-02  0.1237348E+00
          1   -1    0    0  501    0  0.00000000000E+00  0.00000000000E+00  0.69714135836E+03  0.69714135836E+03  0.00000000000E+00 0. -1.
         -1   -1    0    0    0  501 -0.00000000000E+00 -0.00000000000E+00 -0.28751560241E+02  0.28751560241E+02  0.00000000000E+00 0.  1.
         23    2    1    2    0    0 -0.26031803032E+02  0.85469202861E+02  0.42821178573E+03  0.45496652121E+03  0.12508622055E+03 0.  0.
          5    1    3    3  502    0  0.16854590114E+02  0.90163065902E+02  0.37628932333E+03  0.38733006972E+03  0.41800000000E+01 0. -1.
         -5    1    3    3    0  502 -0.42886393145E+02 -0.46938630407E+01  0.51922462406E+02  0.67636451486E+02  0.41800000000E+01 0. -1.
        -11    1    1    2    0    0 -0.73280754661E+01 -0.77232775924E+02  0.99814284808E+02  0.12641793314E+03  0.00000000000E+00 0.  1.
         11    1    1    2    0    0  0.33359878498E+02 -0.82364269370E+01  0.14036372758E+03  0.14450846426E+03  0.00000000000E+00 0. -1.
</event>
<event>
 7    1  0.8653652E-006  0.1676194E+03  0.7561462E-02  0.1180353E+00
          1   -1    0    0  501    0  0.00000000000E+00  0.00000000000E+00  0.29310533959E+03  0.29310533959E+03  0.00000000000E+00 0. -1.
         -1   -1    0    0    0  501 -0.00000000000E+00 -0.00000000000E+00 -0.10340355444E+03  0.10340355444E+03  0.00000000000E+00 0.  1.
         23    2    1    2    0    0 -0.60314216533E+01 -0.13220412169E+03  0.47939279575E+02  0.18044178808E+03  0.11290153462E+03 0.  0.
          5    1    3    3  502    0  0.50213952132E+02 -0.38749554597E+02  0.28100595964E+02  0.69498811959E+02  0.41800000000E+01 0. -1.
         -5    1    3    3    0  502 -0.56245373786E+02 -0.93454567095E+02  0.19838683610E+02  0.11094297612E+03  0.41800000000E+01 0.  1.
        -11    1    1    2    0    0 -0.39755237887E+02  0.96786407380E+02  0.82718635061E+02  0.13338088386E+03  0.00000000000E+00 0.  1.
         11    1    1    2    0    0  0.45786659540E+02  0.35417714311E+02  0.59043870516E+02  0.82686222095E+02  0.00000000000E+00 0. -1.
</event>
<event>
 7    1  0.8653652E-006  0.1045841E+03  0.7561462E-02  0.1270941E+00
         -2   -1    0    0    0  501 -0.00000000000E+00  0.00000000000E+00  0.29805503020E+03  0.29805503020E+03  0.00000000000E+00 0.  1.
          2   -1    0    0  501    0  0.00000000000E+00 -0.00000000000E+00 -0.73015633609E+02  0.73015633609E+02  0.00000000000E+00 0. -1.
         23    2    1    2    0    0 -0.68820009549E+02 -0.64697848876E+02  0.16214524381E+03  0.22552356758E+03  0.12509114309E+03 0.  0.
          5    1    3    3  502    0 -0.43386602159E+02 -0.28503607742E+02 -0.52382615822E+01  0.52342761539E+02  0.41800000000E+01 0. -1.
         -5    1    3    3    0  502 -0.25433407391E+02 -0.36194241134E+02  0.16738350540E+03  0.17318080604E+03  0.41800000000E+01 0. -1.
        -11    1    1    2    0    0  0.70742377404E+02  0.28279424005E+02  0.75209632769E+02  0.10705465260E+03  0.00000000000E+00 0.  1.
         11    1    1    2    0    0 -0.19223678553E+01  0.36418424871E+02 -0.12315479996E+02  0.38492443619E+02  0.00000000000E+00 0. -1.
</event>
<event>
 6    1  0.8653652E-006  0.1632453E+03  0.7561462E-02  0.1185081E+00
          2   -1    0    0  501    0  0.00000000000E+00  0.00000000000E+00  0.32995840723E+03  0.32995840723E+03  0.00000000000E+00 0. -1.
         -2   -1    0    0    0  501 -0.00000000000E+00 -0.00000000000E+00 -0.13381392605E+03  0.13381392605E+03  0.00000000000E+00 0.  1.
          5    1    1    2  502    0 -0.16983002174E+02 -0.13695904748E+03  0.70804016811E+02  0.15516727827E+03  0.41800000000E+01 0. -1.
         -5    1    1    2    0  502  0.37092383010E+02  0.12505722687E+03 -0.23376929510E+02  0.13258622893E+03  0.41800000000E+01 0.  1.
        -11    1    1    2    0    0 -0.34133052649E+02 -0.65278319636E+01  0.11121823540E+02  0.36487982023E+02  0.00000000000E+00 0. -1.
         11    1    1    2    0    0  0.14023671813E+02  0.18429652575E+02  0.13759557035E+03  0.13953084406E+03  0.00000000000E+00 0.  1.
</event>
<event>
 7    1  0.8653652E-006  0.9281273E+02  0.7561462E-02  0.1296180E+00
          4   -1    0    0  501    0  0.00000000000E+00  0.00000000000E+00  0.24210407071E+02  0.24210407071E+02  0.00000000000E+00 0. -1.
         -4   -1    0    0    0  501 -0.00000000000E+00 -0.00000000000E+00 -0.84821760844E+03  0.84821760844E+03  0.00000000000E+00 0.  1.
         23    2    1    2    0    0  0.28891184240E+02  0.20206355057E+02 -0.71135303199E+03  0.72312785663E+03  0.12509102128E+03 0.  0.
          5    1    3    3  502    0 -0.32843854184E+02  0.49484149938E+02 -0.26904879905E+03  0.27555784969E+03  0.41800000000E+01 0. -1.
         -5    1    3    3    0  502  0.61735038425E+02 -0.29277794881E+02 -0.44230423293E+03  0.44757000694E+03  0.41800000000E+01 0. -1.
        -11    1    1    2    0    0 -0.21851386765E+02  0.11819176452E+02 -0.11380977479E+03  0.11648965994E+03  0.00000000000E+00 0.  1.
         11    1    1    2    0    0 -0.70397974753E+01 -0.32025531509E+02  0.11556054071E+01  0.32810498942E+02  0.00000000000E+00 0. -1.
</event>
<event>
 7    1  0.8653652E-006  0.1419057E+03  0.7561462E-02  0.1210787E+00
         -1   -1    0    0    0  501 -0.00000000000E+00  0.00000000000E+00  0.98471778650E+02  0.98471778650E+02  0.00000000000E+00 0.  1.
          1   -1    0    0  501    0  0.00000000000E+00 -0.00000000000E+00 -0.24695857728E+03  0.24695857728E+03  0.00000000000E+00 0. -1.
         23    2    1    2    0    0  0.11145359378E+03 -0.10217835795E+02 -0.75170218893E+02  0.18391396768E+03  0.12508987955E+03 0.  0.
          5    1    3    3  502    0  0.40124209143E+02  0.49702551351E+02  0.19667366263E+00  0.64014114465E+02  0.41800000000E+01 0.  1.
         -5    1    3    3    0  502  0.71329384635E+02 -0.59920387147E+02 -0.75366892556E+02  0.11989985322E+03  0.41800000000E+01 0.  1.
        -11    1    1    2    0    0 -0.57281003488E+02 -0.24395713262E+02  0.22547879000E+01  0.62300467532E+02  0.00000000000E+00 0.  1.
         11    1    1    2    0    0 -0.54172590290E+02  0.34613549057E+02 -0.75571367637E+02  0.99215920716E+02  0.00000000000E+00 0. -1.
</event>
<event>
 7    1  0.8653652E-006  0.7954301E+02  0.7561462E-02  0.1330353E+00
          1   -1    0    0  501    0  0.00000000000E+00  0.00000000000E+00  0.13049136665E+03  0.13049136665E+03  0.00000000000E+00 0. -1.
         -1   -1    0    0    0  501 -0.00000000000E+00 -0.00000000000E+00 -0.11943347399E+03  0.11943347399E+03  0.00000000000E+00 0.  1.
         23    2    1    2    0    0 -0.59063594187E+01 -0.57085901972E+02  0.49598404123E+01  0.13771571359E+03  0.12508929797E+03 0.  0.
          5    1    3    3  502    0  0.80638978319E+01 -0.29972633224E+02  0.63932220406E+02  0.71191196062E+02  0.41800000000E+01 0.  1.
         -5    1    3    3    0  502 -0.13970257251E+02 -0.27113268748E+02 -0.58972379994E+02  0.66524517526E+02  0.41800000000E+01 0.  1.
        -11    1    1    2    0    0 -0.28563426347E+02 -0.19385001295E+01 -0.24157924235E+02  0.37459743869E+02  0.00000000000E+00 0.  1.
         11    1    1    2    0    0  0.34469785765E+02  0.59024402102E+02  0.30255976477E+02  0.74749383187E+02  0.00000000000E+00 0. -1.
</event>
<event>
 7    1  0.8653652E-006  0.8295194E+02  0.7561462E-02  0.1320877E+00
          1   -1    0    0  501    0  0.00000000000E+00  0.00000000000E+00  0.54657336231E+03  0.54657336231E+03  0.00000000000E+00 0. -1.
         -1   -1    0    0    0  501 -0.00000000000E+00 -0.00000000000E+00 -0.26818974714E+02  0.26818974714E+02  0.00000000000E+00 0.  1.
         23    2    1    2    0    0  0.11800627424E+02  0.94471754761E+01  0.17253974194E+03  0.21364268457E+03  0.12507889587E+03 0.  0.
          5    1    3    3  502    0 -0.18763947712E+01 -0.29745228332E+02  0.16912609782E+03  0.17178302835E+03  0.41800000000E+01 0.  1.
         -5    1    3    3    0  502  0.13677022195E+02  0.39192403808E+02  0.34136441130E+01  0.41859656216E+02  0.41800000000E+01 0.  1.
        -11    1    1    2    0    0 -0.20558809034E+02  0.39410812411E+02  0.15822237587E+03  0.16434779277E+03  0.00000000000E+00 0. -1.
         11    1    1    2    0    0  0.87581816094E+01 -0.48857987887E+02  0.18899226979E+03  0.19540185968E+03  0.00000000000E+00 0.  1.
</event>
<event>
 7    1  0.8653652E-006  0.1169054E+03  0.7561462E-02  0.1248291E+00
         -2   -1    0    0    0  501 -0.00000000000E+00  0.00000000000E+00  0.22721778780E+02  0.22721778780E+02  0.00000000000E+00 0. -1.
          2   -1    0    0  501    0  0.00000000000E+00 -0.00000000000E+00 -0.95310987213E+03  0.95310987213E+03  0.00000000000E+00 0.  1.
         23    2    1    2    0    0 -0.59610650954E+02  0.81088086179E+02 -0.48467278915E+03  0.51057122722E+03  0.12508620267E+03 0.  0.
          5    1    3    3  502    0 -0.76202189897E+02  0.83048935088E+02 -0.23880204748E+03  0.26409806823E+03  0.41800000000E+01 0. -1.
         -5    1    3    3    0  502  0.16591538943E+02 -0.19608489096E+01 -0.24587074167E+03  0.24647315899E+03  0.41800000000E+01 0. -1.
        -11    1    1    2    0    0  0.59502536252E+02 -0.66591003776E+02 -0.44109555906E+03  0.45004467093E+03  0.00000000000E+00 0.  1.
         11    1    1    2    0    0  0.10811470179E+00 -0.14497082402E+02 -0.46197451398E+01  0.15215752762E+02  0.00000000000E+00 0. -1.
</event>
<event>
 7    1  0.8653652E-006  0.6599814E+02  0.7561462E-02  0.1374256E+00
          1   -1    0    0  501    0  0.00000000000E+00  0.00000000000E+00  0.52807450343E+03  0.52807450343E+03  0.00000000000E+00 0. -1.
         -1   -1    0    0    0  501 -0.00000000000E+00 -0.00000000000E+00 -0.29204512388E+02  0.29204512388E+02  0.00000000000E+00 0.  1.
         23    2    1    2    0    0 -0.62325488192E+02 -0.33088989540E+01  0.27262995335E+03  0.30638723797E+03  0.12510248934E+03 0.  0.
          5    1    3    3  502    0 -0.35853891452E+02 -0.12005139153E+02  0.62853064729E+01  0.38556482928E+02  0.41800000000E+01 0.  1.
         -5    1    3    3    0  502 -0.26471596741E+02  0.86962401993E+01  0.26634464688E+03  0.26783075504E+03  0.41800000000E+01 0.  1.
        -11    1    1    2    0    0  0.35939011883E+02 -0.84079021884E+01  0.21766805501E+03  0.22077519690E+03  0.00000000000E+00 0.  1.
         11    1    1    2    0    0  0.26386476310E+02  0.11716801142E+02  0.85719826878E+01  0.30116580952E+02  0.00000000000E+00 0. -1.
</event>
<event>
 6    1  0.8653652E-006  0.6707958E+02  0.7561462E-02  0.1370315E+00
          1   -1    0    0  501    0  0.00000000000E+00  0.00000000000E+00  0.42537686928E+02  0.42537686928E+02  0.00000000000E+00 0. -1.
         -1   -1    0    0    0  501 -0.00000000000E+00 -0.00000000000E+00 -0.38392978911E+03  0.38392978911E+03  0.00000000000E+00 0.  1.
          5    1    1    2  502    0 -0.13019823449E+02  0.26549477843E+02  0.19204050701E+02  0.35505753615E+02  0.41800000000E+01 0. -1.
         -5    1    1    2    0  502 -0.45831159675E+01 -0.22016681832E+02 -0.21837556975E+03  0.21957026459E+03  0.41800000000E+01 0.  1.
        -11    1    1    2    0    0  0.38458592362E+02  0.24555241032E+02 -0.32607461248E+02  0.56082704265E+02  0.00000000000E+00 0.  1.
         11    1    1    2    0    0 -0.20855652945E+02 -0.29088037043E+02 -0.10961312188E+03  0.11530875356E+03  0.00000000000E+00 0. -1.
</event>
<event>
 7    1  0.8653652E-006  0.1054429E+03  0.7561462E-02  0.1269250E+00
         -1   -1    0    0    0  501 -0.00000000000E+00  0.00000000000E+00  0.37142945271E+02  0.37142945271E+02  0.00000000000E+00 0.  1.
          1   -1    0    0  501    0  0.00000000000E+00 -0.00000000000E+00 -0.46294472262E+03  0.46294472262E+03  0.00000000000E+00 0. -1.
         23    2    1    2    0    0  0.68578615100E+02 -0.16682787250E+02 -0.19680677594E+03  0.24363769486E+03  0.12508028407E+03 0.  0.
          5    1    3    3  502    0  0.21493864555E+02 -0.45316241308E+02 -0.17843670725E+03  0.18539870235E+03  0.41800000000E+01 0. -1.
         -5    1    3    3    0  502  0.47084750545E+02  0.28633454057E+02 -0.18370068696E+02  0.58238992514E+02  0.41800000000E+01 0. -1.
        -11    1    1    2    0    0 -0.49087013258E+02  0.47837080920E+02 -0.19380901074E+03  0.20557201615E+03  0.00000000000E+00 0. -1.
         11    1    1    2    0    0 -0.19491601842E+02 -0.31154293669E+02 -0.35185990661E+02  0.50877956869E+02  0.00000000000E+00 0.  1.
</event>
<event>
 7    1  0.8653652E-006  0.1004904E+03  0.7561462E-02  0.1279268E+00
         -2   -1    0    0    0  501 -0.00000000000E+00  0.00000000000E+00  0.24501943062E+03  0.24501943062E+03  0.00000000000E+00 0.  1.
          2   -1    0    0  501    0  0.00000000000E+00 -0.00000000000E+00 -0.53661050540E+02  0.53661050540E+02  0.00000000000E+00 0. -1.
         23    2    1    2    0    0 -0.11387417844E+02 -0.12606265852E+01  0.16392867646E+03  0.20352200350E+03  0.12007219695E+03 0.  0.
          5    1    3    3  502    0  0.44638698366E+02  0.25542840848E+02  0.41653302965E+02  0.66313800662E+02  0.41800000000E+01 0. -1.
         -5    1    3    3    0  502 -0.56026116211E+02 -0.26803467433E+02  0.12227537349E+03  0.13720820284E+03  0.41800000000E+01 0.  1.
        -11    1    1    2    0    0 -0.37196715541E+02  0.81043307892E+01  0.25949734539E+02  0.46072383781E+02  0.00000000000E+00 0. -1.
         11    1    1    2    0    0  0.48584133386E+02 -0.68437042040E+01  0.14799690898E+01  0.49086093882E+02  0.00000000000E+00 0.  1.
</event>
<event>
 7    1  0.8653652E-006  0.1115758E+03  0.7561462E-02  0.1257679E+00
          2   -1    0    0  501    0  0.00000000000E+00  0.00000000000E+00  0.16161873284E+03  0.16161873284E+03  0.00000000000E+00 0.  1.
         -2   -1    0    0    0  501 -0.00000000000E+00 -0.00000000000E+00 -0.16741911302E+03  0.16741911302E+03  0.00000000000E+00 0. -1.
         23    2    1    2    0    0  0.76232146576E+02  0.50631590737E+02 -0.85500192830E+02  0.17699664136E+03  0.12507049982E+03 0.  0.
          5    1    3    3  502    0  0.39020404085E+02  0.75764652725E+02 -0.59249894394E+01  0.85530418199E+02  0.41800000000E+01 0.  1.
         -5    1    3    3    0  502  0.37211742492E+02 -0.25133061987E+02 -0.79575203391E+02  0.91466223158E+02  0.41800000000E+01 0.  1.
        -11    1    1    2    0    0 -0.36384251405E+02 -0.15291871238E+02  0.89564069476E+02  0.97874294978E+02  0.00000000000E+00 0.  1.
         11    1    1    2    0    0 -0.39847895172E+02 -0.35339719499E+02 -0.98642568253E+01  0.54166909517E+02  0.00000000000E+00 0. -1.
</event>
<event>
 6    1  0.8653652E-006  0.1216283E+03  0.7561462E-02  0.1240435E+00
          2   -1    0    0  501    0  0.00000000000E+00  0.00000000000E+00  0.27430405088E+03  0.27430405088E+03  0.00000000000E+00 0. -1.
         -2   -1    0    0    0  501 -0.00000000000E+00 -0.00000000000E+00 -0.74558614627E+02  0.74558614627E+02  0.00000000000E+00 0.  1.
          5    1    1    2  502    0  0.52403926052E+02  0.53485590972E+02 -0.14494884922E+02  0.76383597691E+02  0.41800000000E+01 0. -1.
         -5    1    1    2    0  502 -0.22769520601E+02 -0.67137647167E+02  0.90331209250E+02  0.11490480625E+03  0.41800000000E+01 0.  1.
        -11    1    1    2    0    0  0.13620262572E+02 -0.31742617330E+02  0.47493382949E+02  0.58725860840E+02  0.00000000000E+00 0. -1.
         11    1    1    2    0    0 -0.43254668023E+02  0.45394673525E+02  0.76415728973E+02  0.98848400719E+02  0.00000000000E+00 0.  1.
</event>
<event>
 7    1  0.8653652E-006  0.1033993E+03  0.7561462E-02  0.1273306E+00
          2   -1    0    0  501    0  0.00000000000E+00  0.00000000000E+00  0.14655136759E+03  0.14655136759E+03  0.00000000000E+00 0. -1.
         -2   -1    0    0    0  501 -0.00000000000E+00 -0.00000000000E+00 -0.21534404791E+03  0.21534404791E+03  0.00000000000E+00 0.  1.
         23    2    1    2    0    0 -0.90135267661E+02 -0.19670481421E+02 -0.14415438798E+03  0.21198564439E+03  0.12508449760E+03 0.  0.
          5    1    3    3  502    0 -0.71905097679E+02  0.27705126647E+01 -0.77581580899E+01  0.72496070442E+02  0.41800000000E+01 0.  1.
         -5    1    3    3    0  502 -0.18230169982E+02 -0.22440994086E+02 -0.13639622989E+03  0.13948957395E+03  0.41800000000E+01 0.  1.
        -11    1    1    2    0    0  0.34819334859E+02 -0.17392028452E+02 -0.11387506281E+02  0.40552978103E+02  0.00000000000E+00 0.  1.
         11    1    1    2    0    0  0.55315932802E+02  0.37062509873E+02  0.86749213935E+02  0.10935679301E+03  0.00000000000E+00 0. -1.
</event>
<event>
 7    1  0.8653652E-006  0.1649115E+03  0.7561462E-02  0.1183261E+00
         -1   -1    0    0    0  501 -0.00000000000E+00  0.00000000000E+00  0.53607256041E+02  0.53607256041E+02  0.00000000000E+00 0.  1.
          1   -1    0    0  501    0  0.00000000000E+00 -0.00000000000E+00 -0.73635572073E+03  0.73635572073E+03  0.00000000000E+00 0. -1.
         23    2    1    2    0    0  0.17496797745E+02 -0.13341571582E+03 -0.16560774199E+03  0.24753916201E+03  0.12547438529E+03 0.  0.
          5    1    3    3  502    0 -0.25204786316E+02  0.53113709194E+01 -0.67296838483E+02  0.72179143692E+02  0.41800000000E+01 0. -1.
         -5    1    3    3    0  502  0.42701584061E+02 -0.13872708674E+03 -0.98310903508E+02  0.17536001832E+03  0.41800000000E+01 0. -1.
        -11    1    1    2    0    0 -0.31810399771E+02  0.86942680345E+01 -0.61245124474E+02  0.69559018841E+02  0.00000000000E+00 0.  1.
         11    1    1    2    0    0  0.14313602026E+02  0.12472144778E+03 -0.45589559822E+03  0.47286479592E+03  0.00000000000E+00 0. -1.
</event>
<event>
 7    1  0.8653652E-006  0.8974304E+02  0.7561462E-02  0.1303475E+00
          2   -1    0    0  501    0  0.00000000000E+00  0.00000000000E+00  0.11515952138E+03  0.11515952138E+03  0.00000000000E+00 0. -1.
         -2   -1    0    0    0  501 -0.00000000000E+00 -0.00000000000E+00 -0.10669338093E+03  0.10669338093E+03  0.00000000000E+00 0.  1.
         23    2    1    2    0    0  0.95269462747E+01 -0.10809929915E+02 -0.50739801257E+01  0.12601912183E+03  0.12508979376E+03 0.  0.
          5    1    3    3  502    0  0.10221618761E+02  0.56821281647E+02  0.17626440850E+01  0.57911301594E+02  0.41800000000E+01 0.  1.
         -5    1    3    3    0  502 -0.69467248678E+00 -0.67631211562E+02 -0.68366242107E+01  0.68107820240E+02  0.41800000000E+01 0.  1.
        -11    1    1    2    0    0 -0.23150421145E+02  0.25064518803E+02 -0.31643768179E+02  0.46534934904E+02  0.00000000000E+00 0.  1.
         11    1    1    2    0    0  0.13623474871E+02 -0.14254588888E+02  0.45183888756E+02  0.49298845575E+02  0.00000000000E+00 0. -1.
</event>
<event>
 7    1  0.8653652E-006  0.1044234E+03  0.7561462E-02  0.1271260E+00
          2   -1    0    0  501    0  0.00000000000E+00  0.00000000000E+00  0.36500257339E+03  0.36500257339E+03  0.00000000000E+00 0. -1.
         -2   -1    0    0    0  501 -0.00000000000E+00 -0.00000000000E+00 -0.38470933518E+02  0.38470933518E+02  0.00000000000E+00 0.  1.
         23    2    1    2    0    0 -0.73216915880E+01  0.26410198563E+01  0.11930347667E+03  0.17303533125E+03  0.12508926478E+03 0.  0.
          5    1    3    3  502    0  0.45129662216E+01 -0.58491782483E+02  0.36034762839E+02  0.68975589994E+02  0.41800000000E+01 0. -1.
         -5    1    3    3    0  502 -0.11834657810E+02  0.61132802340E+02  0.83268713835E+02  0.10405974126E+03  0.41800000000E+01 0. -1.
        -11    1    1    2    0    0  0.36655412991E+02  0.27303104704E+02  0.50108041790E+02  0.67822523398E+02  0.00000000000E+00 0.  1.
         11    1    1    2    0    0 -0.29333721403E+02 -0.29944124561E+02  0.15712012141E+03  0.16261565225E+03  0.00000000000E+00 0. -1.
</event>
<event>
 7    1  0.8653652E-006  0.1224623E+03  0.7561462E-02  0.1239089E+00
          1   -1    0    0  501    0  0.00000000000E+00  0.00000000000E+00  0.23464418219E+02  0.23464418219E+02  0.00000000000E+00 0. -1.
         -1   -1    0    0    0  501 -0.00000000000E+00 -0.00000000000E+00 -0.74727784773E+03  0.74727784773E+03  0.00000000000E+00 0.  1.
         23    2    1    2    0    0  0.57878338729E+02  0.33918318635E+02 -0.49436756460E+03  0.51434081019E+03  0.12508727220E+03 0.  0.
          5    1    3    3  502    0 -0.69621026002E+01 -0.40326050245E+02 -0.18923033095E+03  0.19364981733E+03  0.41800000000E+01 0. -1.
         -5    1    3    3    0  502  0.64840441329E+02  0.74244368880E+02 -0.30513723365E+03  0.32069099286E+03  0.41800000000E+01 0. -1.
        -11    1    1    2    0    0  0.11254646970E+02 -0.34189845255E+02 -0.35722951831E+02  0.50712344498E+02  0.00000000000E+00 0. -1.
         11    1    1    2    0    0 -0.69132985699E+02  0.27152662036E+00 -0.19372291309E+03  0.20568911126E+03  0.00000000000E+00 0.  1.
</event>
<event>
 7    1  0.8653652E-006  0.1275198E+03  0.7561462E-02  0.1231183E+00
          3   -1    0    0  501    0  0.00000000000E+00  0.00000000000E+00  0.19077030293E+02  0.19077030293E+02  0.00000000000E+00 0. -1.
         -3   -1    0    0    0  501 -0.00000000000E+00 -0.00000000000E+00 -0.12126621406E+04  0.12126621406E+04  0.00000000000E+00 0.  1.
         23    2    1    2    0    0  0.87799372929E+02 -0.40057995476E+02 -0.81462370936E+03  0.82980285896E+03  0.12509046323E+03 0.  0.
          5    1    3    3  502    0  0.76887012871E+02 -0.75634502356E+02 -0.42916075462E+03  0.44252527205E+03  0.41800000000E+01 0. -1.
         -5    1    3    3    0  502  0.10912360058E+02  0.35576506880E+02 -0.38546295474E+03  0.38727758691E+03  0.41800000000E+01 0. -1.
        -11    1    1    2    0    0 -0.84559920550E+02  0.16844799915E+02 -0.36413203421E+03  0.37420083616E+03  0.00000000000E+00 0.  1.
         11    1    1    2    0    0 -0.32394523795E+01  0.23213195561E+02 -0.14829366785E+02  0.27735475823E+02  0.00000000000E+00 0. -1.
</event>
<event>
 7    1  0.8653652E-006  0.1236272E+03  0.7561462E-02  0.1237231E+00
          2   -1    0    0  501    0  0.00000000000E+00  0.00000000000E+00  0.18000946916E+03  0.18000946916E+03  0.00000000000E+00 0. -1.
         -2   -1    0    0    0  501 -0.00000000000E+00 -0.00000000000E+00 -0.11384219633E+03  0.11384219633E+03  0.00000000000E+00 0.  1.
         23    2    1    2    0    0 -0.57731075001E+02 -0.73533960715E+02  0.33906927043E+02  0.15980588408E+03  0.12509244775E+03 0.  0.
          5    1    3    3  502    0 -0.36931722784E+02 -0.86397603632E+02 -0.23777584431E+02  0.97012081631E+02  0.41800000000E+01 0. -1.
         -5    1    3    3    0  502 -0.20799352217E+02  0.12863642917E+02  0.57684511473E+02  0.62793802446E+02  0.41800000000E+01 0. -1.
        -11    1    1    2    0    0  0.81483248010E+02  0.57734950253E+02  0.33928504651E+02  0.10547031627E+03  0.00000000000E+00 0. -1.
         11    1    1    2    0    0 -0.23752173009E+02  0.15799010462E+02 -0.16681588639E+01  0.28575465144E+02  0.00000000000E+00 0.  1.
</event>
<event>
 6    1  0.8653652E-006  0.7112752E+02  0.7561462E-02  0.1356300E+00
         -2   -1    0    0    0  501 -0.00000000000E+00  0.00000000000E+00  0.58117850721E+03  0.58117850721E+03  0.00000000000E+00 0.  1.
          2   -1    0    0  501    0  0.00000000000E+00 -0.00000000000E+00 -0.26603828401E+02  0.26603828401E+02  0.00000000000E+00 0. -1.
          5    1    1    2  502    0  0.23034610389E+02 -0.21986110612E+02  0.10273361416E+02  0.33719381525E+02  0.41800000000E+01 0. -1.
         -5    1    1    2    0  502 -0.36615560426E+00  0.13118085968E+02  0.40000397995E+03  0.40024102066E+03  0.41800000000E+01 0.  1.
        -11    1    1    2    0    0  0.30172718736E+02  0.27011083965E+02  0.69883128016E+02  0.80769073253E+02  0.00000000000E+00 0.  1.
         11    1    1    2    0    0 -0.52841173520E+02 -0.18143059321E+02  0.74414209428E+02  0.93052860167E+02  0.00000000000E+00 0. -1.
</event>
<event>
 7    1  0.8653652E-006  0.1458546E+03  0.7561462E-02  0.1205661E+00
          2   -1    0    0  501    0  0.00000000000E+00  0.00000000000E+00  0.24031902745E+03  0.24031902745E+03  0.00000000000E+00 0. -1.
         -2   -1    0    0    0  501 -0.00000000000E+00 -0.00000000000E+00 -0.11252329200E+03  0.11252329200E+03  0.00000000000E+00 0.  1.
         23    2    1    2    0    0  0.38416013853E+02  0.11580414564E+03  0.49774862796E+02  0.18169212652E+03  0.12509237229E+03 0.  0.
          5    1    3    3  502    0 -0.54474563183E+01 -0.17506446478E+02  0.35998487433E+02  0.40614208672E+02  0.41800000000E+01 0.  1.
         -5    1    3    3    0  502  0.43863470171E+02  0.13331059212E+03  0.13776375364E+02  0.14107791785E+03  0.41800000000E+01 0.  1.
        -11    1    1    2    0    0 -0.19425798896E+02 -0.11130153258E+03  0.26490884475E+02  0.11604809252E+03  0.00000000000E+00 0.  1.
         11    1    1    2    0    0 -0.18990214957E+02 -0.45026130607E+01  0.51529988173E+02  0.55102100410E+02  0.00000000000E+00 0. -1.
</event>
<event>
 7    1  0.8653652E-006  0.1364922E+03  0.7561462E-02  0.1218128E+00
         -1   -1    0    0    0  501 -0.00000000000E+00  0.00000000000E+00  0.12943358569E+03  0.12943358569E+03  0.00000000000E+00 0.  1.
          1   -1    0    0  501    0  0.00000000000E+00 -0.00000000000E+00 -0.20143277578E+03  0.20143277578E+03  0.00000000000E+00 0. -1.
         23    2    1    2    0    0 -0.11651514010E+02 -0.10490849788E+03  0.18689342066E+02  0.16473736958E+03  0.12509020235E+03 0.  0.
          5    1    3    3  502    0  0.41841208101E+02  0.39818624872E+01  0.64991531300E+01  0.42734685159E+02  0.41800000000E+01 0.  1.
         -5    1    3    3    0  502 -0.53492722111E+02 -0.10889036036E+03  0.12190188936E+02  0.12200268442E+03  0.41800000000E+01 0.  1.
        -11    1    1    2    0    0 -0.95877579405E+01  0.35176378522E+02 -0.85618169821E+02  0.93057905154E+02  0.00000000000E+00 0.  1.
         11    1    1    2    0    0  0.21239271950E+02  0.69732119353E+02 -0.50703623355E+01  0.73071086735E+02  0.00000000000E+00 0. -1.
</event>
<event>
 7    1  0.8653652E-006  0.8859246E+02  0.7561462E-02  0.1306297E+00
          2   -1    0    0  501    0  0.00000000000E+00  0.00000000000E+00  0.41874971814E+03  0.41874971814E+03  0.00000000000E+00 0. -1.
         -2   -1    0    0    0  501 -0.00000000000E+00 -0.00000000000E+00 -0.44417305113E+02  0.44417305113E+02  0.00000000000E+00 0.  1.
         23    2    1    2    0    0  0.46398918639E+01 -0.36659123284E+02  0.80653122937E+02  0.15335562035E+03  0.12509036789E+03 0.  0.
          5    1    3    3  502    0  0.47489611420E+01  0.30720390439E+02  0.79907096783E+02  0.85842364465E+02  0.41800000000E+01 0.  1.
         -5    1    3    3    0  502 -0.10906927811E+00 -0.67379513723E+02  0.74602615420E+00  0.67513255888E+02  0.41800000000E+01 0.  1.
        -11    1    1    2    0    0  0.27390903516E+02 -0.27474347745E+01  0.27791277388E+02  0.39117324706E+02  0.00000000000E+00 0.  1.
         11    1    1    2    0    0 -0.32030795380E+02  0.39406558058E+02  0.26588801270E+03  0.27069407819E+03  0.00000000000E+00 0. -1.
</event>
<event>
 7    1  0.8653652E-006  0.9874937E+02  0.7561462E-02  0.1282948E+00
         -4   -1    0    0    0  501 -0.00000000000E+00  0.00000000000E+00  0.10567646513E+03  0.10567646513E+03  0.00000000000E+00 0.  1.
          4   -1    0    0  501    0  0.00000000000E+00 -0.00000000000E+00 -0.14322061795E+03  0.14322061795E+03  0.00000000000E+00 0. -1.
         23    2    1    2    0    0 -0.37941225647E+01  0.98575286592E+01  0.39775433869E+02  0.13168617324E+03  0.12509035473E+03 0.  0.
          5    1    3    3  502    0  0.50719907444E+02  0.32927974785E+02  0.67275452235E+00  0.60619184531E+02  0.41800000000E+01 0. -1.
         -5    1    3    3    0  502 -0.54514030009E+02 -0.23070446126E+02  0.39102679347E+02  0.71066988710E+02  0.41800000000E+01 0. -1.
        -11    1    1    2    0    0 -0.27491979715E+02 -0.29717527535E+02 -0.12194042319E+02  0.42280433530E+02  0.00000000000E+00 0.  1.
         11    1    1    2    0    0  0.31286102279E+02  0.19859998876E+02 -0.65125544371E+02  0.74930476315E+02  0.00000000000E+00 0. -1.
</event>
<event>
 7    1  0.8653652E-006  0.1204141E+03  0.7561462E-02  0.1242416E+00
          3   -1    0    0  501    0  0.00000000000E+00  0.00000000000E+00  0.33275256913E+03  0.33275256913E+03  0.00000000000E+00 0. -1.
         -3   -1    0    0    0  501 -0.00000000000E+00 -0.00000000000E+00 -0.54236343417E+02  0.54236343417E+02  0.00000000000E+00 0.  1.
         23    2    1    2    0    0 -0.70503796546E+02 -0.28135687118E+02  0.11504099920E+03  0.18613030663E+03  0.12509059649E+03 0.  0.
          5    1    3    3  502    0 -0.43769426602E+02  0.39694007571E+02  0.92246137236E+02  0.10962754753E+03  0.41800000000E+01 0. -1.
         -5    1    3    3    0  502 -0.26734369944E+02 -0.67829694689E+02  0.22794861965E+02  0.76502759100E+02  0.41800000000E+01 0. -1.
        -11    1    1    2    0    0  0.86407950451E+02  0.32093546164E+02  0.10309147051E+03  0.13829020536E+03  0.00000000000E+00 0.  1.
         11    1    1    2    0    0 -0.15904153905E+02 -0.39578590462E+01  0.60383756009E+02  0.62568400566E+02  0.00000000000E+00 0. -1.
</event>
<event>
 7    1  0.8653652E-006  0.1207962E+03  0.7561462E-02  0.1241789E+00
         -2   -1    0    0    0  501 -0.00000000000E+00  0.00000000000E+00  0.23057102160E+03  0.23057102160E+03  0.00000000000E+00 0. -1.
          2   -1    0    0  501    0  0.00000000000E+00 -0.00000000000E+00 -0.11187308238E+03  0.11187308238E+03  0.00000000000E+00 0.  1.
         23    2    1    2    0    0 -0.10719362166E+03  0.46723251616E+02  0.75375354432E+02  0.18708443970E+03  0.12508240785E+03 0.  0.
          5    1    3    3  502    0 -0.71679390246E+02  0.41692739494E+02 -0.19741820670E+02  0.85343021952E+02  0.41800000000E+01 0.  1.
         -5    1    3    3    0  502 -0.35514231416E+02  0.50305121221E+01  0.95117175101E+02  0.10174141774E+03  0.41800000000E+01 0.  1.
        -11    1    1    2    0    0  0.28095479070E+02 -0.30944501867E+02 -0.25815675530E+02  0.49126034269E+02  0.00000000000E+00 0.  1.
         11    1    1    2    0    0  0.79098142592E+02 -0.15778749748E+02  0.69138260319E+02  0.10623363001E+03  0.00000000000E+00 0. -1.
</event>
<event>
 7    1  0.8653652E-006  0.1633815E+03  0.7561462E-02  0.1184931E+00
         -2   -1    0    0    0  501 -0.00000000000E+00  0.00000000000E+00  0.19458329096E+04  0.19458329096E+04  0.00000000000E+00 0.  1.
          2   -1    0    0  501    0  0.00000000000E+00 -0.00000000000E+00 -0.16120347109E+02  0.16120347109E+02  0.00000000000E+00 0. -1.
         23    2    1    2    0    0 -0.21220876509E+02 -0.13089908360E+03  0.12897186871E+04  0.13025362338E+04  0.12506579416E+03 0.  0.
          5    1    3    3  502    0  0.41672987608E+02 -0.57722316250E+02  0.31140876485E+03  0.31947049146E+03  0.41800000000E+01 0.  1.
         -5    1    3    3    0  502 -0.62893864117E+02 -0.73176767352E+02  0.97830992226E+03  0.98306574236E+03  0.41800000000E+01 0.  1.
        -11    1    1    2    0    0 -0.20890529057E+02  0.10979003302E+03  0.44913271771E+03  0.46282876280E+03  0.00000000000E+00 0. -1.
         11    1    1    2    0    0  0.42111405565E+02  0.21109050579E+02  0.19086115772E+03  0.19658826013E+03  0.00000000000E+00 0.  1.
</event>
<event>
 7    1  0.8653652E-006  0.1433766E+03  0.7561462E-02  0.1208856E+00
          1   -1    0    0  501    0  0.00000000000E+00  0.00000000000E+00  0.13405621705E+03  0.13405621705E+03  0.00000000000E+00 0. -1.
         -1   -1    0    0    0  501 -0.00000000000E+00 -0.00000000000E+00 -0.15916178794E+03  0.15916178794E+03  0.00000000000E+00 0.  1.
         23    2    1    2    0    0 -0.55982847166E+02  0.80124511129E+02 -0.31758986823E+02  0.16191977862E+03  0.12512140107E+03 0.  0.
          5    1    3    3  502    0  0.21551939122E+02  0.78070827412E+02 -0.15893314265E+02  0.82641454555E+02  0.41800000000E+01 0. -1.
         -5    1    3    3    0  502 -0.77534786288E+02  0.20536837168E+01 -0.15865672558E+02  0.79278324069E+02  0.41800000000E+01 0. -1.
        -11    1    1    2    0    0  0.67969776963E+02 -0.26371247322E+02  0.17937461283E+02  0.75080528654E+02  0.00000000000E+00 0.  1.
         11    1    1    2    0    0 -0.11986929797E+02 -0.53753263806E+02 -0.11284045351E+02  0.56217697705E+02  0.00000000000E+00 0. -1.
</event>
<event>
 7    1  0.8653652E-006  0.1058719E+03  0.7561462E-02  0.1268411E+00
         -2   -1    0    0    0  501 -0.00000000000E+00  0.00000000000E+00  0.15487319090E+03  0.15487319090E+03  0.00000000000E+00 0.  1.
          2   -1    0    0  501    0  0.00000000000E+00 -0.00000000000E+00 -0.10949129436E+03  0.10949129436E+03  0.00000000000E+00 0. -1.
         23    2    1    2    0    0  0.83752232242E+01  0.74818734746E+02  0.54378416053E+02  0.14621893459E+03  0.11293793546E+03 0.  0.
          5    1    3    3  502    0 -0.45896148534E+02  0.38130136254E+01  0.17376778301E+02  0.49400610799E+02  0.41800000000E+01 0. -1.
         -5    1    3    3    0  502  0.54271371759E+02  0.71005721120E+02  0.37001637752E+02  0.96818323786E+02  0.41800000000E+01 0.  1.
        -11    1    1    2    0    0 -0.10874279366E+02 -0.55851941947E+02 -0.48168734840E+02  0.74551434507E+02  0.00000000000E+00 0. -1.
         11    1    1    2    0    0  0.24990561414E+01 -0.18966792799E+02  0.39172215330E+02  0.43594116169E+02  0.00000000000E+00 0.  1.
</event>
<event>
 7    1  0.8653652E-006  0.8039237E+02  0.7561462E-02  0.1327942E+00
         -2   -1    0    0    0  501 -0.00000000000E+00  0.00000000000E+00  0.19256660823E+02  0.19256660823E+02  0.00000000000E+00 0.  1.
          2   -1    0    0  501    0  0.00000000000E+00 -0.00000000000E+00 -0.75343272019E+03  0.75343272019E+03  0.00000000000E+00 0. -1.
         23    2    1    2    0    0 -0.54582669961E+02  0.36884880007E+02 -0.39436587274E+03  0.41894563865E+03  0.12510493326E+03 0.  0.
          5    1    3    3  502    0  0.51939784414E+00  0.20216405242E+02 -0.27711592654E+00  0.20652409261E+02  0.41800000000E+01 0. -1.
         -5    1    3    3    0  502 -0.55102067805E+02  0.16668474764E+02 -0.39408875681E+03  0.39829322938E+03  0.41800000000E+01 0. -1.
        -11    1    1    2    0    0  0.67563587521E+01  0.12160003289E+02 -0.10620049732E+02  0.17501414797E+02  0.00000000000E+00 0.  1.
         11    1    1    2    0    0  0.47826311209E+02 -0.49044883296E+02 -0.32919013689E+03  0.33624232757E+03  0.00000000000E+00 0. -1.
</event>
<event>
 7    1  0.8653652E-006  0.1363849E+03  0.7561462E-02  0.1218278E+00
          1   -1    0    0  501    0  0.00000000000E+00  0.00000000000E+00  0.33445365071E+02  0.33445365071E+02  0.00000000000E+00 0. -1.
         -1   -1    0    0    0  501 -0.00000000000E+00 -0.00000000000E+00 -0.69212275424E+03  0.69212275424E+03  0.00000000000E+00 0.  1.
         23    2    1    2    0    0 -0.42849911197E+02 -0.95906357768E+02 -0.36729261756E+03  0.40197643755E+03  0.12508814923E+03 0.  0.
          5    1    3    3  502    0 -0.52979345065E+02 -0.12104142142E+03 -0.26599143206E+03  0.29702988239E+03  0.41800000000E+01 0.  1.
         -5    1    3    3    0  502  0.10129433867E+02  0.25135063651E+02 -0.10130118550E+03  0.10494655516E+03  0.41800000000E+01 0.  1.
        -11    1    1    2    0    0  0.19747339999E+01  0.55985805905E+02 -0.24096328935E+03  0.24738960538E+03  0.00000000000E+00 0.  1.
         11    1    1    2    0    0  0.40875177198E+02  0.39920551863E+02 -0.50421482259E+02  0.76202076384E+02  0.00000000000E+00 0. -1.
</event>
<event>
 7    1  0.8653652E-006  0.1165682E+03  0.7561462E-02  0.1248868E+00
         -1   -1    0    0    0  501 -0.00000000000E+00  0.00000000000E+00  0.49125901063E+02  0.49125901063E+02  0.00000000000E+00 0.  1.
          1   -1    0    0  501    0  0.00000000000E+00 -0.00000000000E+00 -0.30472947585E+03  0.30472947585E+03  0.00000000000E+00 0. -1.
         23    2    1    2    0    0 -0.48924485685E+02  0.24268966691E+02 -0.15753485530E+03  0.20843486426E+03  0.12508106955E+03 0.  0.
          5    1    3    3  502    0 -0.75047619598E+02  0.49426794560E+02 -0.14341035931E+03  0.16929015560E+03  0.41800000000E+01 0.  1.
         -5    1    3    3    0  502  0.26123133913E+02 -0.25157827869E+02 -0.14124495989E+02  0.39144708652E+02  0.41800000000E+01 0.  1.
        -11    1    1    2    0    0 -0.82381431241E+00 -0.50447330046E+02 -0.54735769107E+02  0.74442032472E+02  0.00000000000E+00 0. -1.
         11    1    1    2    0    0  0.49748299998E+02  0.26178363355E+02 -0.43332950386E+02  0.70978480188E+02  0.00000000000E+00 0.  1.
</event>
<event>
 6    1  0.8653652E-006  0.5732084E+02  0.7561462E-02  0.1409432E+00
          2   -1    0    0  501    0  0.00000000000E+00  0.00000000000E+00  0.11761368890E+03  0.11761368890E+03  0.00000000000E+00 0. -1.
         -2   -1    0    0    0  501 -0.00000000000E+00 -0.00000000000E+00 -0.25290063655E+03  0.25290063655E+03  0.00000000000E+00 0.  1.
          5    1    1    2  502    0  0.44220809652E+01  0.55236194561E+02  0.70686582766E+02  0.89914722781E+02  0.41800000000E+01 0. -1.
         -5    1    1    2    0  502 -0.31518547383E+01 -0.51836165826E+01 -0.22468990578E+03  0.22481065417E+03  0.41800000000E+01 0.  1.
        -11    1    1    2    0    0 -0.53869190745E+01 -0.93264035480E+01 -0.21361100378E-01  0.10770383306E+02  0.00000000000E+00 0. -1.
         11    1    1    2    0    0  0.41166928476E+01 -0.40726174431E+02  0.18737736471E+02  0.45018565191E+02  0.00000000000E+00 0.  1.
</event>
<event>
 7    1  0.8653652E-006  0.1070956E+03  0.7561462E-02  0.1266045E+00
          1   -1    0    0  501    0  0.00000000000E+00  0.00000000000E+00  0.43951658180E+02  0.43951658180E+02  0.00000000000E+00 0. -1.
         -1   -1    0    0    0  501 -0.00000000000E+00 -0.00000000000E+00 -0.48773963195E+03  0.48773963195E+03  0.00000000000E+00 0.  1.
         23    2    1    2    0    0  0.47506654614E+01  0.66137794574E+02 -0.37523196036E+03  0.40105308436E+03  0.12509106965E+03 0.  0.
          5    1    3    3  502    0  0.23596147029E+02 -0.89440824795E+01 -0.26533051474E+03  0.26656055450E+03  0.41800000000E+01 0.  1.
         -5    1    3    3    0  502 -0.18845481567E+02  0.75081877054E+02 -0.10990144562E+03  0.13449252986E+03  0.41800000000E+01 0.  1.
        -11    1    1    2    0    0 -0.34422691471E+02 -0.72933711948E+02 -0.52389851290E+02  0.96171433101E+02  0.00000000000E+00 0.  1.
         11    1    1    2    0    0  0.29672026010E+02  0.67959173734E+01 -0.16166162121E+02  0.34466772669E+02  0.00000000000E+00 0. -1.
</event>
<event>
 7    1  0.8653652E-006  0.3160726E+03  0.7561462E-02  0.1077471E+00
         -2   -1    0    0    0  501 -0.00000000000E+00  0.00000000000E+00  0.37028668273E+03  0.37028668273E+03  0.00000000000E+00 0. -1.
          2   -1    0    0  501    0  0.00000000000E+00 -0.00000000000E+00 -0.32723016877E+03  0.32723016877E+03  0.00000000000E+00 0.  1.
         23    2    1    2    0    0  0.88131854901E+02 -0.29328758716E+03  0.14783515103E+03  0.36233573486E+03  0.12508844967E+03 0.  0.
          5    1    3    3  502    0  0.33902024121E+02 -0.23063108068E+03  0.15354927131E+03  0.27916821763E+03  0.41800000000E+01 0. -1.
         -5    1    3    3    0  502  0.54229830779E+02 -0.62656506483E+02 -0.57141202751E+01  0.83167517226E+02  0.41800000000E+01 0. -1.
        -11    1    1    2    0    0 -0.74842686962E+02  0.11477662181E+03 -0.65704652017E+02  0.15196118584E+03  0.00000000000E+00 0.  1.
         11    1    1    2    0    0 -0.13289167938E+02  0.17851096535E+03 -0.39073985053E+02  0.18321993080E+03  0.00000000000E+00 0. -1.
</event>
<event>
 6    1  0.8653652E-006  0.2039927E+03  0.7561462E-02  0.1146413E+00
         -1   -1    0    0    0  501 -0.00000000000E+00  0.00000000000E+00  0.34362565225E+03  0.34362565225E+03  0.00000000000E+00 0.  1.
          1   -1    0    0  501    0  0.00000000000E+00 -0.00000000000E+00 -0.26602787955E+03  0.26602787955E+03  0.00000000000E+00 0. -1.
          5    1    1    2  502    0  0.42110419889E+02 -0.58100872741E+01  0.11098313111E+03  0.11891918419E+03  0.41800000000E+01 0. -1.
         -5    1    1    2    0  502  0.34940427973E+01 -0.16573071264E+03  0.14715980955E+03  0.22170331390E+03  0.41800000000E+01 0.  1.
        -11    1    1    2    0    0  0.22271831784E+02  0.93066432355E+02 -0.86140843140E+02  0.12875418509E+03  0.00000000000E+00 0.  1.
         11    1    1    2    0    0 -0.67876294471E+02  0.78474367557E+02 -0.94404324816E+02  0.14027684862E+03  0.00000000000E+00 0. -1.
</event>
<event>
 7    1  0.8653652E-006  0.9709799E+02  0.7561462E-02  0.1286520E+00
         -2   -1    0    0    0  501 -0.00000000000E+00  0.00000000000E+00  0.58456761924E+02  0.58456761924E+02  0.00000000000E+00 0.  1.
          2   -1    0    0  501    0  0.00000000000E+00 -0.00000000000E+00 -0.30688180834E+03  0.30688180834E+03  0.00000000000E+00 0. -1.
         23    2    1    2    0    0  0.38283735182E+02  0.74206843488E+01 -0.44433673087E+02  0.13835645173E+03  0.12508974976E+03 0.  0.
          5    1    3    3  502    0  0.30805879551E+02  0.50499262840E+02  0.18043210417E+02  0.61985543511E+02  0.41800000000E+01 0.  1.
         -5    1    3    3    0  502  0.74778556310E+01 -0.43078578491E+02 -0.62476883503E+02  0.76370908217E+02  0.41800000000E+01 0.  1.
        -11    1    1    2    0    0 -0.64476003062E+02 -0.54753975106E+01 -0.95505371928E+02  0.11536208656E+03  0.00000000000E+00 0.  1.
         11    1    1    2    0    0  0.26192267880E+02 -0.19452868383E+01 -0.10848600141E+03  0.11162003198E+03  0.00000000000E+00 0. -1.
</event>
<event>
 7    1  0.8653652E-006  0.8838458E+02  0.7561462E-02  0.1306812E+00
         -2   -1    0    0    0  501 -0.00000000000E+00  0.00000000000E+00  0.13415771297E+03  0.13415771297E+03  0.00000000000E+00 0.  1.
          2   -1    0    0  501    0  0.00000000000E+00 -0.00000000000E+00 -0.10363507084E+03  0.10363507084E+03  0.00000000000E+00 0. -1.
         23    2    1    2    0    0 -0.57960919753E+01 -0.11201195384E+02  0.63047796362E+02  0.14064606780E+03  0.12508888960E+03 0.  0.
          5    1    3    3  502    0  0.45716685329E+02 -0.15023802386E+02  0.73333110679E+02  0.87812000760E+02  0.41800000000E+01 0. -1.
         -5    1    3    3    0  502 -0.51512777304E+02  0.38226070022E+01 -0.10285314316E+02  0.52834067044E+02  0.41800000000E+01 0. -1.
        -11    1    1    2    0    0 -0.76627477989E+00 -0.32471062960E+02  0.11818280474E+02  0.34563403480E+02  0.00000000000E+00 0.  1.
         11    1    1    2    0    0  0.65623667552E+01  0.43672258343E+02 -0.44343434702E+02  0.62583312532E+02  0.00000000000E+00 0. -1.
</event>
<event>
 7    1  0.8653652E-006  0.1541612E+03  0.7561462E-02  0.1195451E+00
         -2   -1    0    0    0  501 -0.00000000000E+00  0.00000000000E+00  0.38123016756E+02  0.38123016756E+02  0.00000000000E+00 0.  1.
          2   -1    0    0  501    0  0.00000000000E+00 -0.00000000000E+00 -0.89040106117E+03  0.89040106117E+03  0.00000000000E+00 0. -1.
         23    2    1    2    0    0 -0.61161642843E+02  0.10516577628E+03 -0.23480445953E+03  0.29254310431E+03  0.12509095334E+03 0.  0.
          5    1    3    3  502    0 -0.88510610283E+02  0.51923163112E+02 -0.19543944061E+03  0.22078086499E+03  0.41800000000E+01 0.  1.
         -5    1    3    3    0  502  0.27348967441E+02  0.53242613169E+02 -0.39365018913E+02  0.71762239312E+02  0.41800000000E+01 0.  1.
        -11    1    1    2    0    0  0.53116359185E+02 -0.15136371195E+02 -0.33129612558E+03  0.33586839710E+03  0.00000000000E+00 0. -1.
         11    1    1    2    0    0  0.80452836572E+01 -0.90029405086E+02 -0.28617745931E+03  0.30011257652E+03  0.00000000000E+00 0.  1.
</event>
<event>
 7    1  0.8653652E-006  0.9915328E+02  0.7561462E-02  0.1282087E+00
         -1   -1    0    0    0  501 -0.00000000000E+00  0.00000000000E+00  0.15228777640E+03  0.15228777640E+03  0.00000000000E+00 0.  1.
          1   -1    0    0  501    0  0.00000000000E+00 -0.00000000000E+00 -0.87982703066E+02  0.87982703066E+02  0.00000000000E+00 0. -1.
         23    2    1    2    0    0 -0.15507059716E+02  0.41193405559E+02  0.42186615109E+02  0.13915789947E+03  0.12509134633E+03 0.  0.
          5    1    3    3  502    0  0.35314840429E+02  0.32446661723E+02  0.66415975366E+02  0.82027300304E+02  0.41800000000E+01 0.  1.
         -5    1    3    3    0  502 -0.50821900145E+02  0.87467438360E+01 -0.24229360257E+02  0.57130599161E+02  0.41800000000E+01 0.  1.
        -11    1    1    2    0    0  0.29912698828E+02  0.19724793270E+02  0.11420469936E+02  0.37606703581E+02  0.00000000000E+00 0.  1.
         11    1    1    2    0    0 -0.14405639112E+02 -0.60918198829E+02  0.10697988292E+02  0.63505876423E+02  0.00000000000E+00 0. -1.
</event>
<event>
 7    1  0.8653652E-006  0.1084045E+03  0.7561462E-02  0.1263553E+00
         -1   -1    0    0    0  501 -0.00000000000E+00  0.00000000000E+00  0.49756344698E+02  0.49756344698E+02  0.00000000000E+00 0.  1.
          1   -1    0    0  501    0  0.00000000000E+00 -0.00000000000E+00 -0.30732143748E+03  0.30732143748E+03  0.00000000000E+00 0. -1.
         23    2    1    2    0    0 -0.35065025972E+02 -0.48236564093E+02 -0.15813164011E+03  0.21025914370E+03  0.12508784810E+03 0.  0.
          5    1    3    3  502    0  0.34772662836E+02  0.19933579193E+02 -0.55320951171E+02  0.68442426159E+02  0.41800000000E+01 0. -1.
         -5    1    3    3    0  502 -0.69837688808E+02 -0.68170143286E+02 -0.10281068894E+03  0.14181671754E+03  0.41800000000E+01 0. -1.
        -11    1    1    2    0    0  0.46398015126E+02  0.24373679438E+02 -0.97297354261E+01  0.53305907819E+02  0.00000000000E+00 0.  1.
         11    1    1    2    0    0 -0.11332989154E+02  0.23862884656E+02 -0.89703717247E+02  0.93512730658E+02  0.00000000000E+00 0. -1.
</event>
<event>
 7    1  0.8653652E-006  0.1185261E+03  0.7561462E-02  0.1245549E+00
          2   -1    0    0  501    0  0.00000000000E+00  0.00000000000E+00  0.72067603950E+03  0.72067603950E+03  0.00000000000E+00 0. -1.
         -2   -1    0    0    0  501 -0.00000000000E+00 -0.00000000000E+00 -0.28466321039E+02  0.28466321039E+02  0.00000000000E+00 0.  1.
         23    2    1    2    0    0 -0.67264909026E+02 -0.69774961612E+02  0.35749044453E+03  0.39094765247E+03  0.12509011068E+03 0.  0.
          5    1    3    3  502    0 -0.68354265844E+02 -0.36428339765E+02  0.34723480602E+03  0.35579321594E+03  0.41800000000E+01 0. -1.
         -5    1    3    3    0  502  0.10893568183E+01 -0.33346621847E+02  0.10255638512E+02  0.35154436536E+02  0.41800000000E+01 0. -1.
        -11    1    1    2    0    0 -0.18641142837E+02  0.95492694157E+01  0.80441556810E+02  0.83123551504E+02  0.00000000000E+00 0.  1.
         11    1    1    2    0    0  0.85906051863E+02  0.60225692196E+02  0.25427771712E+03  0.27507115656E+03  0.00000000000E+00 0. -1.
</event>
<event>
 7    1  0.8653652E-006  0.2023558E+03  0.7561462E-02  0.1147766E+00
          2   -1    0    0  501    0  0.00000000000E+00  0.00000000000E+00  0.47043022617E+02  0.47043022617E+02  0.00000000000E+00 0. -1.
         -2   -1    0    0    0  501 -0.00000000000E+00 -0.00000000000E+00 -0.14534827660E+04  0.14534827660E+04  0.00000000000E+00 0.  1.
         23    2    1    2    0    0  0.16379403775E+02 -0.18661030539E+03 -0.98760086692E+03  0.10129626708E+04  0.12508480794E+03 0.  0.
          5    1    3    3  502    0 -0.23281437451E+02 -0.12202202711E+03 -0.36137239512E+03  0.38215033794E+03  0.41800000000E+01 0.  1.
         -5    1    3    3    0  502  0.39660841226E+02 -0.64588278277E+02 -0.62622847180E+03  0.63081233287E+03  0.41800000000E+01 0.  1.
        -11    1    1    2    0    0 -0.39499387729E+02  0.40467107578E+02 -0.27659927444E+03  0.28232064581E+03  0.00000000000E+00 0.  1.
         11    1    1    2    0    0  0.23119983954E+02  0.14614319781E+03 -0.14223960200E+03  0.20524247197E+03  0.00000000000E+00 0. -1.
</event>
<event>
 7    1  0.8653652E-006  0.1739616E+03  0.7561462E-02  0.1173778E+00
          1   -1    0    0  501    0  0.00000000000E+00  0.00000000000E+00  0.80059218816E+02  0.80059218816E+02  0.00000000000E+00 0. -1.
         -1   -1    0    0    0  501 -0.00000000000E+00 -0.00000000000E+00 -0.41263711051E+03  0.41263711051E+03  0.00000000000E+00 0.  1.
         23    2    1    2    0    0 -0.13036212773E+02 -0.14410230562E+03 -0.15185260222E+03  0.24421546505E+03  0.12508622322E+03 0.  0.
          5    1    3    3  502    0 -0.67792015393E+02 -0.89461101452E+02 -0.74786011944E+02  0.13494245443E+03  0.41800000000E+01 0.  1.
         -5    1    3    3    0  502  0.54755802620E+02 -0.54641204170E+02 -0.77066590280E+02  0.10927301063E+03  0.41800000000E+01 0.  1.
        -11    1    1    2    0    0 -0.23903498160E+02  0.86172587230E+02 -0.14670980030E+03  0.17181634823E+03  0.00000000000E+00 0.  1.
         11    1    1    2    0    0  0.36939710933E+02  0.57929718392E+02 -0.34015489166E+02  0.76664516043E+02  0.00000000000E+00 0. -1.
</event>
<event>
 7    1  0.8653652E-006  0.1331231E+03  0.7561462E-02  0.1222894E+00
          3   -1    0    0  501    0  0.00000000000E+00  0.00000000000E+00  0.33970216244E+03  0.33970216244E+03  0.00000000000E+00 0. -1.
         -3   -1    0    0    0  501 -0.00000000000E+00 -0.00000000000E+00 -0.76326749435E+02  0.76326749435E+02  0.00000000000E+00 0.  1.
         23    2    1    2    0    0 -0.11928212877E+03 -0.48951252167E+01  0.14647694782E+03  0.22661964702E+03  0.12509508254E+03 0.  0.
          5    1    3    3  502    0 -0.11214697274E+03  0.20603241914E+02  0.16006242981E+03  0.19656777688E+03  0.41800000000E+01 0. -1.
         -5    1    3    3    0  502 -0.71351560213E+01 -0.25498367130E+02 -0.13585481984E+02  0.30051870133E+02  0.41800000000E+01 0. -1.
        -11    1    1    2    0    0  0.44105042909E+02  0.20377868348E+02  0.99468797296E+02  0.11070028891E+03  0.00000000000E+00 0. -1.
         11    1    1    2    0    0  0.75177085856E+02 -0.15482743131E+02  0.17429667884E+02  0.78708975951E+02  0.00000000000E+00 0.  1.
</event>
<event>
 7    1  0.8653652E-006  0.1720168E+03  0.7561462E-02  0.1175761E+00
         -2   -1    0    0    0  501 -0.00000000000E+00  0.00000000000E+00  0.24179403447E+02  0.24179403447E+02  0.00000000000E+00 0.  1.
          2   -1    0    0  501    0  0.00000000000E+00 -0.00000000000E+00 -0.13914224389E+04  0.13914224389E+04  0.00000000000E+00 0. -1.
         23    2    1    2    0    0 -0.14669973649E+03 -0.57953357386E+01 -0.67780412583E+03  0.70471228231E+03  0.12508624722E+03 0.  0.
          5    1    3    3  502    0 -0.11324033610E+03  0.34346235549E+02 -0.59529553729E+03  0.60695740108E+03  0.41800000000E+01 0. -1.
         -5    1    3    3    0  502 -0.33459400398E+02 -0.40141571288E+02 -0.82508588543E+02  0.97754881228E+02  0.41800000000E+01 0. -1.
        -11    1    1    2    0    0  0.45940982145E+02  0.45725647866E+02 -0.27059803810E+03  0.27825295494E+03  0.00000000000E+00 0. -1.
         11    1    1    2    0    0  0.10075875435E+03 -0.39930312127E+02 -0.41884087152E+03  0.43263660509E+03  0.00000000000E+00 0.  1.
</event>
<event>
 7    1  0.8653652E-006  0.1192472E+03  0.7561462E-02  0.1244344E+00
         -2   -1    0    0    0  501 -0.00000000000E+00  0.00000000000E+00  0.12340780989E+03  0.12340780989E+03  0.00000000000E+00 0. -1.
          2   -1    0    0  501    0  0.00000000000E+00 -0.00000000000E+00 -0.14503041678E+03  0.14503041678E+03  0.00000000000E+00 0.  1.
         23    2    1    2    0    0  0.37042307202E+00 -0.70420756856E+02 -0.25470318873E+02  0.14578131040E+03  0.12507690877E+03 0.  0.
          5    1    3    3  502    0 -0.53918442411E+02 -0.68287513574E+02 -0.39606454307E+01  0.87198291579E+02  0.41800000000E+01 0.  1.
         -5    1    3    3    0  502  0.54288865483E+02 -0.21332432820E+01 -0.21509673442E+02  0.58583018819E+02  0.41800000000E+01 0.  1.
        -11    1    1    2    0    0 -0.29252773408E+02  0.58966914689E+02 -0.33676662259E+02  0.73938754121E+02  0.00000000000E+00 0.  1.
         11    1    1    2    0    0  0.28882350336E+02  0.11453842166E+02  0.37524374239E+02  0.48718162151E+02  0.00000000000E+00 0. -1.
</event>
<event>
 7    1  0.8653652E-006  0.6907944E+02  0.7561462E-02  0.1363252E+00
          1   -1    0    0  501    0  0.00000000000E+00  0.00000000000E+00  0.70375407984E+02  0.70375407984E+02  0.00000000000E+00 0.  1.
         -1   -1    0    0    0  501 -0.00000000000E+00 -0.00000000000E+00 -0.18503491825E+03  0.18503491825E+03  0.00000000000E+00 0. -1.
         23    2    1    2    0    0 -0.34618152340E+02  0.32192118547E+01 -0.85784901496E+02  0.15561303403E+03  0.12509031633E+03 0.  0.
          5    1    3    3  502    0 -0.35121147617E+02  0.32394284362E+02 -0.10834967468E+03  0.11849054423E+03  0.41800000000E+01 0.  1.
         -5    1    3    3    0  502  0.50299527723E+00 -0.29175072507E+02  0.22564773184E+02  0.37122489799E+02  0.41800000000E+01 0.  1.
        -11    1    1    2    0    0  0.47325719852E+01 -0.23907801901E+02 -0.51505012688E+02  0.56980229566E+02  0.00000000000E+00 0. -1.
         11    1    1    2    0    0  0.29885580354E+02  0.20688590047E+02  0.22630403919E+02  0.42817062636E+02  0.00000000000E+00 0.  1.
</event>
<event>
 7    1  0.8653652E-006  0.9094446E+02  0.7561462E-02  0.1300581E+00
          2   -1    0    0  501    0  0.00000000000E+00  0.00000000000E+00  0.91683266842E+02  0.91683266842E+02  0.00000000000E+00 0. -1.
         -2   -1    0    0    0  501 -0.00000000000E+00 -0.00000000000E+00 -0.13776021433E+03  0.13776021433E+03  0.00000000000E+00 0.  1.
         23    2    1    2    0    0 -0.21326007182E+02  0.17363086864E+01 -0.48484943020E+02  0.13585464880E+03  0.12509149672E+03 0.  0.
          5    1    3    3  502    0  0.12189587208E+02  0.58832444188E+02 -0.18093470709E+02  0.62886314948E+02  0.41800000000E+01 0. -1.
         -5    1    3    3    0  502 -0.33515594390E+02 -0.57096135501E+02 -0.30391472310E+02  0.72968333856E+02  0.41800000000E+01 0. -1.
        -11    1    1    2    0    0 -0.27770187952E+01  0.21598130772E+02 -0.36322038529E+02  0.42349516752E+02  0.00000000000E+00 0.  1.
         11    1    1    2    0    0  0.24103025977E+02 -0.23334439458E+02  0.38730034064E+02  0.51239315614E+02  0.00000000000E+00 0. -1.
</event>
<event>
 7    1  0.8653652E-006  0.2008332E+03  0.7561462E-02  0.1149038E+00
         -1   -1    0    0    0  501 -0.00000000000E+00  0.00000000000E+00  0.53954544858E+02  0.53954544858E+02  0.00000000000E+00 0.  1.
          1   -1    0    0  501    0  0.00000000000E+00 -0.00000000000E+00 -0.99680334012E+03  0.99680334012E+03  0.00000000000E+00 0. -1.
         23    2    1    2    0    0 -0.17241251680E+03  0.79942293658E+02 -0.31352531683E+03  0.38737890823E+03  0.12508975970E+03 0.  0.
          5    1    3    3  502    0 -0.16436253639E+02  0.35631611072E+02 -0.15730991125E+03  0.16218397800E+03  0.41800000000E+01 0. -1.
         -5    1    3    3    0  502 -0.15597626316E+03  0.44310682586E+02 -0.15621540558E+03  0.22519493023E+03  0.41800000000E+01 0. -1.
        -11    1    1    2    0    0  0.11681126298E+03 -0.20477088468E+02 -0.46649120703E+03  0.48132964645E+03  0.00000000000E+00 0. -1.
         11    1    1    2    0    0  0.55601253821E+02 -0.59465205190E+02 -0.16283227139E+03  0.18204933029E+03  0.00000000000E+00 0.  1.
</event>
<event>
 7    1  0.8653652E-006  0.1002454E+03  0.7561462E-02  0.1279781E+00
          1   -1    0    0  501    0  0.00000000000E+00  0.00000000000E+00  0.13770269214E+03  0.13770269214E+03  0.00000000000E+00 0. -1.
         -1   -1    0    0    0  501 -0.00000000000E+00 -0.00000000000E+00 -0.98902800827E+02  0.98902800827E+02  0.00000000000E+00 0.  1.
         23    2    1    2    0    0  0.27934273408E+02 -0.32156751387E+02  0.14906976040E+02  0.13298368691E+03  0.12509221702E+03 0.  0.
          5    1    3    3  502    0 -0.21281320537E+02  0.18800367786E+02 -0.35710026401E+02  0.45815137435E+02  0.41800000000E+01 0.  1.
         -5    1    3    3    0  502  0.49215593944E+02 -0.50957119173E+02  0.50617002440E+02  0.87168549476E+02  0.41800000000E+01 0.  1.
        -11    1    1    2    0    0  0.10061318536E+02 -0.27953904515E+02  0.64508778449E+01  0.30401722539E+02  0.00000000000E+00 0.  1.
         11    1    1    2    0    0 -0.37995591944E+02  0.60110655903E+02  0.17442037427E+02  0.73220083514E+02  0.00000000000E+00 0. -1.
</event>
<event>
 6    1  0.8653652E-006  0.1143156E+03  0.7561462E-02  0.1252781E+00
         -1   -1    0    0    0  501 -0.00000000000E+00  0.00000000000E+00  0.10019268128E+03  0.10019268128E+03  0.00000000000E+00 0.  1.
          1   -1    0    0  501    0  0.00000000000E+00 -0.00000000000E+00 -0.16587401282E+03  0.16587401282E+03  0.00000000000E+00 0. -1.
          5    1    1    2  502    0 -0.60970204087E+02 -0.60918776829E+02 -0.47103786603E+02  0.98309217621E+02  0.41800000000E+01 0. -1.
         -5    1    1    2    0  502  0.62302663863E+01  0.32913266936E+02  0.32752978005E+02  0.47035405046E+02  0.41800000000E+01 0.  1.
        -11    1    1    2    0    0  0.68288154075E+02  0.48681790505E+02 -0.33809435657E+02  0.90422710937E+02  0.00000000000E+00 0.  1.
         11    1    1    2    0    0 -0.13548216374E+02 -0.20676280611E+02 -0.17521087288E+02  0.30299360498E+02  0.00000000000E+00 0. -1.
</event>
<event>
 7    1  0.8653652E-006  0.1113169E+03  0.7561462E-02  0.1258150E+00
          2   -1    0    0  501    0  0.00000000000E+00  0.00000000000E+00  0.15480805556E+03  0.15480805556E+03  0.00000000000E+00 0. -1.
         -2   -1    0    0    0  501 -0.00000000000E+00 -0.00000000000E+00 -0.92431974944E+02  0.92431974944E+02  0.00000000000E+00 0.  1.
         23    2    1    2    0    0  0.37083017892E+02  0.55662083110E+01 -0.65267240144E-01  0.13058926803E+03  0.12508964695E+03 0.  0.
          5    1    3    3  502    0  0.19356432462E+02  0.62142372226E+02  0.19403626708E+02  0.68046447614E+02  0.41800000000E+01 0. -1.
         -5    1    3    3    0  502  0.17726585429E+02 -0.56576163915E+02 -0.19468893948E+02  0.62542820418E+02  0.41800000000E+01 0. -1.
        -11    1    1    2    0    0 -0.54681934438E+02  0.26981258803E+02  0.44768468695E+02  0.75646004982E+02  0.00000000000E+00 0. -1.
         11    1    1    2    0    0  0.17598916546E+02 -0.32547467114E+02  0.17672879165E+02  0.41004757493E+02  0.00000000000E+00 0.  1.
</event>
<event>
 7    1  0.8653652E-006  0.1038299E+03  0.7561462E-02  0.1272442E+00
          2   -1    0    0  501    0  0.00000000000E+00  0.00000000000E+00  0.46062640012E+03  0.46062640012E+03  0.00000000000E+00 0.  1.
         -2   -1    0    0    0  501 -0.00000000000E+00 -0.00000000000E+00 -0.27944233214E+02  0.27944233214E+02  0.00000000000E+00 0. -1.
         23    2    1    2    0    0  0.13655548871E+02 -0.48524890053E+02  0.25381611104E+03  0.28742094009E+03  0.12508812736E+03 0.  0.
          5    1    3    3  502    0  0.55286398257E+02 -0.36915240334E+01  0.19382562313E+03  0.20163347381E+03  0.41800000000E+01 0.  1.
         -5    1    3    3    0  502 -0.41630849387E+02 -0.44833366020E+02  0.59990487913E+02  0.85787466272E+02  0.41800000000E+01 0.  1.
        -11    1    1    2    0    0  0.28385398716E+02  0.25956408228E+01  0.72459427722E+02  0.77864220778E+02  0.00000000000E+00 0.  1.
         11    1    1    2    0    0 -0.42040947587E+02  0.45929249231E+02  0.10640662815E+03  0.12328547247E+03  0.00000000000E+00 0. -1.
</event>
<event>
 7    1  0.8653652E-006  0.1245536E+03  0.7561462E-02  0.1235769E+00
          1   -1    0    0  501    0  0.00000000000E+00  0.00000000000E+00  0.53753885487E+03  0.53753885487E+03  0.00000000000E+00 0. -1.
         -1   -1    0    0    0  501 -0.00000000000E+00 -0.00000000000E+00 -0.35084807092E+02  0.35084807092E+02  0.00000000000E+00 0.  1.
         23    2    1    2    0    0  0.63351051910E+02  0.49132466279E+02  0.22215211233E+03  0.26725815296E+03  0.12509198331E+03 0.  0.
          5    1    3    3  502    0 -0.12967750468E+02 -0.22061429627E+02  0.11395550823E+03  0.11686829974E+03  0.41800000000E+01 0. -1.
         -5    1    3    3    0  502  0.76318802378E+02  0.71193895906E+02  0.10819660410E+03  0.15038985322E+03  0.41800000000E+01 0. -1.
        -11    1    1    2    0    0  0.73083779858E+01  0.19128795608E+02  0.28652096661E+02  0.35217408384E+02  0.00000000000E+00 0.  1.
         11    1    1    2    0    0 -0.70659429896E+02 -0.68261261887E+02  0.25164983879E+03  0.27014810063E+03  0.00000000000E+00 0. -1.
</event>
<event>
 7    1  0.8653652E-006  0.1116558E+03  0.7561462E-02  0.1257534E+00
         -3   -1    0    0    0  501 -0.00000000000E+00  0.00000000000E+00  0.37255466694E+03  0.37255466694E+03  0.00000000000E+00 0.  1.
          3   -1    0    0  501    0  0.00000000000E+00 -0.00000000000E+00 -0.50634363614E+02  0.50634363614E+02  0.00000000000E+00 0. -1.
         23    2    1    2    0    0 -0.37783865132E+02 -0.16529994697E+02  0.28895754712E+03  0.31756065668E+03  0.12508974955E+03 0.  0.
          5    1    3    3  502    0  0.31016222011E+02 -0.46732040087E+02  0.13264910954E+03  0.14408035348E+03  0.41800000000E+01 0. -1.
         -5    1    3    3    0  502 -0.68800087144E+02  0.30202045390E+02  0.15630843758E+03  0.17348030320E+03  0.41800000000E+01 0. -1.
        -11    1    1    2    0    0  0.21981833449E+02  0.50100509164E+02 -0.18611279960E+01  0.54742358532E+02  0.00000000000E+00 0.  1.
         11    1    1    2    0    0  0.15802031683E+02 -0.33570514467E+02  0.34823884202E+02  0.50886015346E+02  0.00000000000E+00 0. -1.
</event>
<event>
 7    1  0.8653652E-006  0.9568679E+02  0.7561462E-02  0.1289637E+00
         -2   -1    0    0    0  501 -0.00000000000E+00  0.00000000000E+00  0.33451883072E+02  0.33451883072E+02  0.00000000000E+00 0.  1.
          2   -1    0    0  501    0  0.00000000000E+00 -0.00000000000E+00 -0.41321741358E+03  0.41321741358E+03  0.00000000000E+00 0. -1.
         23    2    1    2    0    0 -0.25667207694E+02 -0.15552908957E+02 -0.14867946987E+03  0.19660781916E+03  0.12509337019E+03 0.  0.
          5    1    3    3  502    0 -0.59367191833E+02 -0.22026490125E+02 -0.14909202339E+03  0.16203559354E+03  0.41800000000E+01 0.  1.
         -5    1    3    3    0  502  0.33699984139E+02  0.64735811676E+01  0.41255351772E+00  0.34572225623E+02  0.41800000000E+01 0.  1.
        -11    1    1    2    0    0 -0.30061457836E+02 -0.10478928146E+02 -0.55096013571E+02  0.63632302282E+02  0.00000000000E+00 0.  1.
         11    1    1    2    0    0  0.55728665530E+02  0.26031837103E+02 -0.17599004706E+03  0.18642917521E+03  0.00000000000E+00 0. -1.
</event>
<event>
 7    1  0.8653652E-006  0.9071275E+02  0.7561462E-02  0.1301135E+00
          1   -1    0    0  501    0  0.00000000000E+00  0.00000000000E+00  0.18685486495E+03  0.18685486495E+03  0.00000000000E+00 0. -1.
         -1   -1    0    0    0  501 -0.00000000000E+00 -0.00000000000E+00 -0.65815370447E+02  0.65815370447E+02  0.00000000000E+00 0.  1.
         23    2    1    2    0    0  0.23342340958E+02 -0.12195719306E+01  0.71405609823E+02  0.14591961261E+03  0.12508964782E+03 0.  0.
          5    1    3    3  502    0 -0.47235590317E+02  0.19201588589E+02  0.43706474123E+02  0.67287668091E+02  0.41800000000E+01 0.  1.
         -5    1    3    3    0  502  0.70577931275E+02 -0.20421160519E+02  0.27699135700E+02  0.78631944517E+02  0.41800000000E+01 0.  1.
        -11    1    1    2    0    0 -0.20393621226E+02  0.25253253365E+02  0.68666483761E+02  0.75952041344E+02  0.00000000000E+00 0. -1.
         11    1    1    2    0    0 -0.29487197322E+01 -0.24033681435E+02 -0.19032599079E+02  0.30798581446E+02  0.00000000000E+00 0.  1.
</event>
<event>
 6    1  0.8653652E-006  0.1904409E+03  0.7561462E-02  0.1158064E+00
          1   -1    0    0  501    0  0.00000000000E+00  0.00000000000E+00  0.43204393853E+03  0.43204393853E+03  0.00000000000E+00 0. -1.
         -1   -1    0    0    0  501 -0.00000000000E+00 -0.00000000000E+00 -0.16186047755E+03  0.16186047755E+03  0.00000000000E+00 0.  1.
          5    1    1    2  502    0 -0.40710869082E+02 -0.72767338345E+02 -0.15505730770E+02  0.84913841497E+02  0.41800000000E+01 0. -1.
         -5    1    1    2    0  502 -0.83181599107E+02  0.12773552811E+03 -0.27163931529E+02  0.15488994528E+03  0.41800000000E+01 0.  1.
        -11    1    1    2    0    0  0.21372175268E+02 -0.34161072507E+02  0.18283716699E+03  0.18722494061E+03  0.00000000000E+00 0. -1.
         11    1    1    2    0    0  0.10252029292E+03 -0.20807117260E+02  0.13001595628E+03  0.16687568870E+03  0.00000000000E+00 0.  1.
</event>
<event>
 7    1  0.8653652E-006  0.9246234E+02  0.7561462E-02  0.1296996E+00
          4   -1    0    0  501    0  0.00000000000E+00  0.00000000000E+00  0.77081694784E+02  0.77081694784E+02  0.00000000000E+00 0.  1.
         -4   -1    0    0    0  501 -0.00000000000E+00 -0.00000000000E+00 -0.27357851634E+03  0.27357851634E+03  0.00000000000E+00 0. -1.
         23    2    1    2    0    0  0.41254389647E+02 -0.47588979274E+02 -0.19447167361E+03  0.23964766980E+03  0.12508052682E+03 0.  0.
          5    1    3    3  502    0  0.50234007839E+02 -0.11688419971E+02 -0.11609120390E+02  0.53031300015E+02  0.41800000000E+01 0. -1.
         -5    1    3    3    0  502 -0.89796181921E+01 -0.35900559302E+02 -0.18286255322E+03  0.18661636979E+03  0.41800000000E+01 0. -1.
        -11    1    1    2    0    0 -0.20093354004E+02 -0.18026550817E+02  0.25161404520E+02  0.36902515997E+02  0.00000000000E+00 0.  1.
         11    1    1    2    0    0 -0.21161035643E+02  0.65615530091E+02 -0.27186552462E+02  0.74110025323E+02  0.00000000000E+00 0. -1.
</event>
<event>
 7    1  0.8653652E-006  0.1086448E+03  0.7561462E-02  0.1263100E+00
          2   -1    0    0  501    0  0.00000000000E+00  0.00000000000E+00  0.17938017655E+03  0.17938017655E+03  0.00000000000E+00 0. -1.
         -2   -1    0    0    0  501 -0.00000000000E+00 -0.00000000000E+00 -0.72948718285E+02  0.72948718285E+02  0.00000000000E+00 0.  1.
         23    2    1    2    0    0 -0.17332152919E+02  0.76173735272E+01  0.32298802015E+02  0.13057870525E+03  0.12509659368E+03 0.  0.
          5    1    3    3  502    0 -0.39056797496E+02 -0.49860199827E+02  0.65020343498E+01  0.63806126729E+02  0.41800000000E+01 0. -1.
         -5    1    3    3    0  502  0.21724644577E+02  0.57477573354E+02  0.25796767665E+02  0.66772578523E+02  0.41800000000E+01 0. -1.
        -11    1    1    2    0    0 -0.24576968725E+02  0.27979600864E+02  0.12803507022E+02  0.39380391672E+02  0.00000000000E+00 0.  1.
         11    1    1    2    0    0  0.41909121644E+02 -0.35596974391E+02  0.61329149232E+02  0.82369797913E+02  0.00000000000E+00 0. -1.
</event>
<event>
 7    1  0.8653652E-006  0.1334348E+03  0.7561462E-02  0.1222446E+00
         -2   -1    0    0    0  501 -0.00000000000E+00  0.00000000000E+00  0.91207548523E+02  0.91207548523E+02  0.00000000000E+00 0.  1.
          2   -1    0    0  501    0  0.00000000000E+00 -0.00000000000E+00 -0.25392062104E+03  0.25392062104E+03  0.00000000000E+00 0. -1.
         23    2    1    2    0    0 -0.72072907187E+02  0.66836627038E+02 -0.27603341429E+02  0.16146716648E+03  0.12509221690E+03 0.  0.
          5    1    3    3  502    0 -0.10028975040E+03  0.71820870223E+02 -0.40315791722E+02  0.12984262358E+03  0.41800000000E+01 0.  1.
         -5    1    3    3    0  502  0.28216843216E+02 -0.49842431848E+01  0.12712450294E+02  0.31624542900E+02  0.41800000000E+01 0.  1.
        -11    1    1    2    0    0  0.54576940934E+02 -0.10605908290E+02 -0.29992392135E+02  0.63171760766E+02  0.00000000000E+00 0.  1.
         11    1    1    2    0    0  0.17495966253E+02 -0.56230718748E+02 -0.10511733895E+03  0.12048924232E+03  0.00000000000E+00 0. -1.
</event>
<event>
 7    1  0.8653652E-006  0.8922579E+02  0.7561462E-02  0.1304737E+00
         -2   -1    0    0    0  501 -0.00000000000E+00  0.00000000000E+00  0.16174452752E+03  0.16174452752E+03  0.00000000000E+00 0.  1.
          2   -1    0    0  501    0  0.00000000000E+00 -0.00000000000E+00 -0.10037783156E+03  0.10037783156E+03  0.00000000000E+00 0. -1.
         23    2    1    2    0    0  0.50295560334E+02 -0.20043243702E+02  0.74556691435E+02  0.15536371690E+03  0.12509120386E+03 0.  0.
          5    1    3    3  502    0  0.25692794895E+02 -0.47937548183E+02  0.97314139776E+02  0.11156003960E+03  0.41800000000E+01 0.  1.
         -5    1    3    3    0  502  0.24602765439E+02  0.27894304481E+02 -0.22757448341E+02  0.43803677296E+02  0.41800000000E+01 0.  1.
        -11    1    1    2    0    0  0.16225708238E+02 -0.21078020863E+01  0.22709417883E+02  0.27989892783E+02  0.00000000000E+00 0.  1.
         11    1    1    2    0    0 -0.66521268572E+02  0.22151045788E+02 -0.35899413361E+02  0.78768749397E+02  0.00000000000E+00 0. -1.
</event>
<event>
 7    1  0.8653652E-006  0.8659601E+02  0.7561462E-02  0.1311311E+00
         -2   -1    0    0    0  501 -0.00000000000E+00  0.00000000000E+00  0.31807450306E+03  0.31807450306E+03  0.00000000000E+00 0. -1.
          2   -1    0    0  501    0  0.00000000000E+00 -0.00000000000E+00 -0.71296004031E+02  0.71296004031E+02  0.00000000000E+00 0.  1.
         23    2    1    2    0    0  0.22523060025E+02  0.40108195059E+02  0.25390305705E+03  0.28675835466E+03  0.12509051142E+03 0.  0.
          5    1    3    3  502    0  0.16001947365E+02 -0.30390492324E+02  0.15288399846E+02  0.37826603244E+02  0.41800000000E+01 0. -1.
         -5    1    3    3    0  502  0.65211126599E+01  0.70498687382E+02  0.23861465720E+03  0.24893175142E+03  0.41800000000E+01 0. -1.
        -11    1    1    2    0    0 -0.91371867470E+01  0.11308819815E+02  0.32981282359E+02  0.36043620425E+02  0.00000000000E+00 0. -1.
         11    1    1    2    0    0 -0.13385873278E+02 -0.51417014874E+02 -0.40105840371E+02  0.66568532009E+02  0.00000000000E+00 0.  1.
</event>
<event>
 7    1  0.8653652E-006  0.2520485E+03  0.7561462E-02  0.1112017E+00
         -2   -1    0    0    0  501 -0.00000000000E+00  0.00000000000E+00  0.10336298014E+04  0.10336298014E+04  0.00000000000E+00 0.  1.
          2   -1    0    0  501    0  0.00000000000E+00 -0.00000000000E+00 -0.77527842043E+02  0.77527842043E+02  0.00000000000E+00 0. -1.
         23    2    1    2    0    0 -0.24037880890E+03  0.70437600094E+02  0.63015255022E+03  0.68955224287E+03  0.12508649738E+03 0.  0.
          5    1    3    3  502    0 -0.15686123329E+03  0.64631091805E+02  0.26335441245E+03  0.31329801067E+03  0.41800000000E+01 0. -1.
         -5    1    3    3    0  502 -0.83517575617E+02  0.58065082899E+01  0.36679813777E+03  0.37625423220E+03  0.41800000000E+01 0. -1.
        -11    1    1    2    0    0  0.13901756833E+03 -0.37447545672E+02  0.25722740617E+03  0.29477812243E+03  0.00000000000E+00 0.  1.
         11    1    1    2    0    0  0.10136124058E+03 -0.32990054422E+02  0.68722002921E+02  0.12682727809E+03  0.00000000000E+00 0. -1.
</event>
<event>
 7    1  0.8653652E-006  0.1772394E+03  0.7561462E-02  0.1170502E+00
          2   -1    0    0  501    0  0.00000000000E+00  0.00000000000E+00  0.27133563738E+03  0.27133563738E+03  0.00000000000E+00 0.  1.
         -2   -1    0    0    0  501 -0.00000000000E+00 -0.00000000000E+00 -0.12297308054E+03  0.12297308054E+03  0.00000000000E+00 0. -1.
         23    2    1    2    0    0 -0.71532582038E+02 -0.12801628352E+03  0.75839419265E+02  0.20713300981E+03  0.12508951634E+03 0.  0.
          5    1    3    3  502    0  0.17769458790E+02 -0.83412566514E+02  0.67314024531E+01  0.85651585491E+02  0.41800000000E+01 0.  1.
         -5    1    3    3    0  502 -0.89302040827E+02 -0.44603717001E+02  0.69108016812E+02  0.12148142432E+03  0.41800000000E+01 0.  1.
        -11    1    1    2    0    0  0.54641846435E+02  0.17488717584E+02  0.42515243155E+02  0.71408210488E+02  0.00000000000E+00 0.  1.
         11    1    1    2    0    0  0.16890735603E+02  0.11052756593E+03  0.30007894413E+02  0.11576749763E+03  0.00000000000E+00 0. -1.
</event>
<event>
 7    1  0.8683519E-006  0.2366636E+03  0.7561462E-02  0.1122036E+00
         -2   -1    0    0    0  501 -0.00000000000E+00  0.00000000000E+00  0.35783429713E+02  0.35783429713E+02  0.00000000000E+00 0.  1.
          2   -1    0    0  501    0  0.00000000000E+00 -0.00000000000E+00 -0.17314060205E+04  0.17314060205E+04  0.00000000000E+00 0. -1.
         23    2    1    2    0    0  0.18868271858E+03 -0.11781945308E+03 -0.79641355257E+03  0.83630425848E+03  0.12509066402E+03 0.  0.
          5    1    3    3  502    0 -0.48511667247E+01 -0.13310768632E+02 -0.61632503599E+01  0.16005262733E+02  0.41800000000E+01 0. -1.
         -5    1    3    3    0  502  0.19353388531E+03 -0.10450868445E+03 -0.79025030221E+03  0.82029899575E+03  0.41800000000E+01 0. -1.
        -11    1    1    2    0    0 -0.19063047580E+03  0.90224030051E+02 -0.74790229383E+03  0.77707026389E+03  0.00000000000E+00 0. -1.
         11    1    1    2    0    0  0.19477572118E+01  0.27595423027E+02 -0.15130674438E+03  0.15381492783E+03  0.00000000000E+00 0.  1.
</event>
<event>
 7    1  0.8653652E-006  0.1235391E+03  0.7561462E-02  0.1237370E+00
          2   -1    0    0  501    0  0.00000000000E+00  0.00000000000E+00  0.82418463031E+03  0.82418463031E+03  0.00000000000E+00 0. -1.
         -2   -1    0    0    0  501 -0.00000000000E+00 -0.00000000000E+00 -0.20022206163E+02  0.20022206163E+02  0.00000000000E+00 0.  1.
         23    2    1    2    0    0 -0.17670068984E+02 -0.71198639449E+02  0.48885722879E+03  0.50991152432E+03  0.12508754892E+03 0.  0.
          5    1    3    3  502    0 -0.59373249414E+02 -0.48631194959E+01  0.13765977462E+03  0.15005505198E+03  0.41800000000E+01 0.  1.
         -5    1    3    3    0  502  0.41703180430E+02 -0.66335519953E+02  0.35119745417E+03  0.35985647234E+03  0.41800000000E+01 0.  1.
        -11    1    1    2    0    0  0.48143805269E+02  0.58795613079E+02  0.24795483373E+03  0.25933829195E+03  0.00000000000E+00 0. -1.
         11    1    1    2    0    0 -0.30473736285E+02  0.12403026370E+02  0.67350361625E+02  0.74957020200E+02  0.00000000000E+00 0.  1.
</event>
<event>
 7    1  0.8653652E-006  0.1049273E+03  0.7561462E-02  0.1270263E+00
         -1   -1    0    0    0  501 -0.00000000000E+00  0.00000000000E+00  0.34486821444E+03  0.34486821444E+03  0.00000000000E+00 0.  1.
          1   -1    0    0  501    0  0.00000000000E+00 -0.00000000000E+00 -0.34535667857E+02  0.34535667857E+02  0.00000000000E+00 0. -1.
         23    2    1    2    0    0  0.19542369448E+02  0.63675679433E+00  0.19080694097E+03  0.22564253905E+03  0.11884846253E+03 0.  0.
          5    1    3    3  502    0 -0.64054870385E+01  0.56180163467E+02  0.11363838332E+03  0.12699762043E+03  0.41800000000E+01 0. -1.
         -5    1    3    3    0  502  0.25947856487E+02 -0.55543406673E+02  0.77168557652E+02  0.98644918628E+02  0.41800000000E+01 0.  1.
        -11    1    1    2    0    0 -0.30380621574E+02 -0.40369446296E+02  0.89562735179E+02  0.10283072447E+03  0.00000000000E+00 0.  1.
         11    1    1    2    0    0  0.10838252126E+02  0.39732689502E+02  0.29962870438E+02  0.50930618778E+02  0.00000000000E+00 0. -1.
</event>
<event>
 7    1  0.8653652E-006  0.7207814E+02  0.7561462E-02  0.1353166E+00
          2   -1    0    0  501    0  0.00000000000E+00  0.00000000000E+00  0.37279474485E+03  0.37279474485E+03  0.00000000000E+00 0. -1.
         -2   -1    0    0    0  501 -0.00000000000E+00 -0.00000000000E+00 -0.17048458498E+02  0.17048458498E+02  0.00000000000E+00 0.  1.
         23    2    1    2    0    0 -0.11316841981E+02  0.19937035321E+02  0.23108035938E+03  0.25739936393E+03  0.11104388218E+03 0.  0.
          5    1    3    3  502    0 -0.29871909832E+02 -0.32697358646E+02  0.16456511675E+03  0.17047169357E+03  0.41800000000E+01 0. -1.
         -5    1    3    3    0  502  0.18555067850E+02  0.52634393967E+02  0.66515242632E+02  0.86927670356E+02  0.41800000000E+01 0.  1.
        -11    1    1    2    0    0  0.25003248221E+02 -0.10716410953E+02  0.90519603545E+02  0.94518794487E+02  0.00000000000E+00 0. -1.
         11    1    1    2    0    0 -0.13686406239E+02 -0.92206243671E+01  0.34146323430E+02  0.37925044935E+02  0.00000000000E+00 0.  1.
</event>
<event>
 7    1  0.8653652E-006  0.1043790E+03  0.7561462E-02  0.1271348E+00
         -2   -1    0    0    0  501 -0.00000000000E+00  0.00000000000E+00  0.29763669571E+03  0.29763669571E+03  0.00000000000E+00 0.  1.
          2   -1    0    0  501    0  0.00000000000E+00 -0.00000000000E+00 -0.39596739786E+02  0.39596739786E+02  0.00000000000E+00 0. -1.
         23    2    1    2    0    0 -0.28411442722E+01  0.98889630622E+01  0.15727476944E+03  0.20121660388E+03  0.12508758886E+03 0.  0.
          5    1    3    3  502    0  0.56857928467E+02  0.19889332198E+02  0.10502354428E+03  0.12114382699E+03  0.41800000000E+01 0.  1.
         -5    1    3    3    0  502 -0.59699072740E+02 -0.10000369136E+02  0.52251225153E+02  0.80072776890E+02  0.41800000000E+01 0.  1.
        -11    1    1    2    0    0  0.76573079834E+01  0.38408714275E+02  0.26465332052E+02  0.47268144648E+02  0.00000000000E+00 0.  1.
         11    1    1    2    0    0 -0.48161637112E+01 -0.48297677337E+02  0.74299854439E+02  0.88748686969E+02  0.00000000000E+00 0. -1.
</event>
<event>
 7    1  0.8653652E-006  0.1008086E+03  0.7561462E-02  0.1278605E+00
         -1   -1    0    0    0  501 -0.00000000000E+00  0.00000000000E+00  0.18741398628E+03  0.18741398628E+03  0.00000000000E+00 0.  1.
          1   -1    0    0  501    0  0.00000000000E+00 -0.00000000000E+00 -0.14132574675E+03  0.14132574675E+03  0.00000000000E+00 0. -1.
         23    2    1    2    0    0  0.26391575100E+02  0.43111544015E+02  0.13536441553E+03  0.19111272782E+03  0.12508169043E+03 0.  0.
          5    1    3    3  502    0  0.19230067962E+02 -0.31251087745E+02  0.56035280636E+00  0.36935245963E+02  0.41800000000E+01 0. -1.
         -5    1    3    3    0  502  0.71615071379E+01  0.74362631760E+02  0.13480406272E+03  0.15417748186E+03  0.41800000000E+01 0. -1.
        -11    1    1    2    0    0 -0.43765601477E+02 -0.53885185754E+02 -0.31294943331E+02  0.76147321650E+02  0.00000000000E+00 0. -1.
         11    1    1    2    0    0  0.17374026378E+02  0.10773641739E+02 -0.57981232667E+02  0.61479683559E+02  0.00000000000E+00 0.  1.
</event>
<event>
 7    1  0.8653652E-006  0.9272529E+02  0.7561462E-02  0.1296383E+00
          1   -1    0    0  501    0  0.00000000000E+00  0.00000000000E+00  0.37467726985E+03  0.37467726985E+03  0.00000000000E+00 0. -1.
         -1   -1    0    0    0  501 -0.00000000000E+00 -0.00000000000E+00 -0.45806559710E+02  0.45806559710E+02  0.00000000000E+00 0.  1.
         23    2    1    2    0    0 -0.32248889431E+02  0.30833497747E+02  0.93412171058E+02  0.16237174546E+03  0.12509218428E+03 0.  0.
          5    1    3    3  502    0 -0.50152898360E+02 -0.16875152049E+02  0.97570173818E+02  0.11107427780E+03  0.41800000000E+01 0. -1.
         -5    1    3    3    0  502  0.17904008930E+02  0.47708649795E+02 -0.41580027595E+01  0.51297467657E+02  0.41800000000E+01 0. -1.
        -11    1    1    2    0    0  0.46319223624E+02 -0.42576471613E+02  0.23077365330E+03  0.23919595621E+03  0.00000000000E+00 0. -1.
         11    1    1    2    0    0 -0.14070334194E+02  0.11742973866E+02  0.46848857883E+01  0.18916127891E+02  0.00000000000E+00 0.  1.
</event>
<event>
 7    1  0.8653652E-006  0.1073645E+03  0.7561462E-02  0.1265530E+00
          3   -1    0    0  501    0  0.00000000000E+00  0.00000000000E+00  0.40303765718E+03  0.40303765718E+03  0.00000000000E+00 0. -1.
         -3   -1    0    0    0  501 -0.00000000000E+00 -0.00000000000E+00 -0.44806611081E+02  0.44806611081E+02  0.00000000000E+00 0.  1.
         23    2    1    2    0    0 -0.41273703736E+02 -0.58578454836E+02  0.13281745716E+03  0.19601856984E+03  0.12509136184E+03 0.  0.
          5    1    3    3  502    0 -0.17523598162E+02  0.35441443557E+02  0.13020914418E+02  0.41835260561E+02  0.41800000000E+01 0. -1.
         -5    1    3    3    0  502 -0.23750105574E+02 -0.94019898392E+02  0.11979654274E+03  0.15418330928E+03  0.41800000000E+01 0. -1.
        -11    1    1    2    0    0 -0.94351075101E+00  0.22083094281E+02  0.27477830639E+01  0.22273382710E+02  0.00000000000E+00 0.  1.
         11    1    1    2    0    0  0.42217214487E+02  0.36495360554E+02  0.22266580587E+03  0.22955231570E+03  0.00000000000E+00 0. -1.
</event>
<event>
 7    1  0.8653652E-006  0.1051772E+03  0.7561462E-02  0.1269771E+00
          2   -1    0    0  501    0  0.00000000000E+00  0.00000000000E+00  0.34973368473E+03  0.34973368473E+03  0.00000000000E+00 0. -1.
         -2   -1    0    0    0  501 -0.00000000000E+00 -0.00000000000E+00 -0.37384652638E+02  0.37384652638E+02  0.00000000000E+00 0.  1.
         23    2    1    2    0    0  0.29964860924E+02 -0.11031790854E+02  0.14673902463E+03  0.19545069716E+03  0.12509612452E+03 0.  0.
          5    1    3    3  502    0  0.72282011717E+02  0.17731647370E+01  0.12837244177E+03  0.14739331578E+03  0.41800000000E+01 0. -1.
         -5    1    3    3    0  502 -0.42317150793E+02 -0.12804955591E+02  0.18366582868E+02  0.48057381380E+02  0.41800000000E+01 0. -1.
        -11    1    1    2    0    0 -0.54575469873E+02  0.30156385685E+02  0.86429591833E+02  0.10657374843E+03  0.00000000000E+00 0.  1.
         11    1    1    2    0    0  0.24610608948E+02 -0.19124594831E+02  0.79180415629E+02  0.85093891787E+02  0.00000000000E+00 0. -1.
</event>
<event>
 7    1  0.8653652E-006  0.1055752E+03  0.7561462E-02  0.1268990E+00
          1   -1    0    0  501    0  0.00000000000E+00  0.00000000000E+00  0.10228424229E+03  0.10228424229E+03  0.00000000000E+00 0. -1.
         -1   -1    0    0    0  501 -0.00000000000E+00 -0.00000000000E+00 -0.20823148755E+03  0.20823148755E+03  0.00000000000E+00 0.  1.
         23    2    1    2    0    0 -0.88367096753E+02 -0.82464731820E+01 -0.12787030493E+02  0.15390915376E+03  0.12509105226E+03 0.  0.
          5    1    3    3  502    0 -0.21014721563E+02 -0.14241177647E+02  0.53351298608E+02  0.59230592824E+02  0.41800000000E+01 0. -1.
         -5    1    3    3    0  502 -0.67352375190E+02  0.59947044647E+01 -0.66138329100E+02  0.94678560939E+02  0.41800000000E+01 0. -1.
        -11    1    1    2    0    0 -0.82480026654E+01 -0.16055934934E+02  0.28193938361E+01  0.18269416416E+02  0.00000000000E+00 0. -1.
         11    1    1    2    0    0  0.96615099419E+02  0.24302408116E+02 -0.95979608608E+02  0.13833715967E+03  0.00000000000E+00 0.  1.
</event>
<event>
 7    1  0.8653652E-006  0.9853765E+02  0.7561462E-02  0.1283401E+00
         -1   -1    0    0    0  501 -0.00000000000E+00  0.00000000000E+00  0.71265195727E+03  0.71265195727E+03  0.00000000000E+00 0.  1.
          1   -1    0    0  501    0  0.00000000000E+00 -0.00000000000E+00 -0.20570239412E+02  0.20570239412E+02  0.00000000000E+00 0. -1.
         23    2    1    2    0    0 -0.42349673799E+02  0.16863738199E+02  0.43783029301E+03  0.45762614692E+03  0.12509374217E+03 0.  0.
          5    1    3    3  502    0 -0.74090105821E+02  0.41947277583E+02  0.21815810512E+03  0.23422072732E+03  0.41800000000E+01 0.  1.
         -5    1    3    3    0  502  0.31740432022E+02 -0.25083539384E+02  0.21967218789E+03  0.22340541960E+03  0.41800000000E+01 0.  1.
        -11    1    1    2    0    0  0.26316831587E+02 -0.37010862884E+02  0.24349136835E+03  0.24769018159E+03  0.00000000000E+00 0.  1.
         11    1    1    2    0    0  0.16032842212E+02  0.20147124686E+02  0.10760056496E+02  0.27905868169E+02  0.00000000000E+00 0. -1.
</event>
<event>
 7    1  0.8653652E-006  0.1017062E+03  0.7561462E-02  0.1276749E+00
          2   -1    0    0  501    0  0.00000000000E+00  0.00000000000E+00  0.87841065366E+02  0.87841065366E+02  0.00000000000E+00 0.  1.
         -2   -1    0    0    0  501 -0.00000000000E+00 -0.00000000000E+00 -0.16844831251E+03  0.16844831251E+03  0.00000000000E+00 0. -1.
         23    2    1    2    0    0  0.36113224134E+02 -0.11378721560E+02 -0.83336372128E+02  0.15500994383E+03  0.12509792766E+03 0.  0.
          5    1    3    3  502    0  0.46317385874E+02 -0.46289741546E+02 -0.95989990216E+02  0.11627377619E+03  0.41800000000E+01 0.  1.
         -5    1    3    3    0  502 -0.10204161740E+02  0.34911019986E+02  0.12653618088E+02  0.38736167647E+02  0.41800000000E+01 0.  1.
        -11    1    1    2    0    0  0.31035830674E+02  0.13859643044E+02 -0.70038126350E+00  0.33997103183E+02  0.00000000000E+00 0. -1.
         11    1    1    2    0    0 -0.67149054808E+02 -0.24809214841E+01  0.34295062463E+01  0.67282330861E+02  0.00000000000E+00 0.  1.
</event>
<event>
 7    1  0.8653652E-006  0.2268044E+03  0.7561462E-02  0.1128909E+00
          2   -1    0    0  501    0  0.00000000000E+00  0.00000000000E+00  0.12355612330E+04  0.12355612330E+04  0.00000000000E+00 0. -1.
         -2   -1    0    0    0  501 -0.00000000000E+00 -0.00000000000E+00 -0.45069209761E+02  0.45069209761E+02  0.00000000000E+00 0.  1.
         23    2    1    2    0    0 -0.15442192106E+03 -0.13647006611E+03  0.52609999555E+03  0.57870502013E+03  0.12509231134E+03 0.  0.
          5    1    3    3  502    0 -0.98101918847E+02 -0.11182558058E+02  0.27862427448E+03  0.29563151864E+03  0.41800000000E+01 0.  1.
         -5    1    3    3    0  502 -0.56320002208E+02 -0.12528750806E+03  0.24747572108E+03  0.28307350149E+03  0.41800000000E+01 0.  1.
        -11    1    1    2    0    0  0.50508694861E+02  0.64594709725E+01  0.25427197777E+03  0.25932044212E+03  0.00000000000E+00 0. -1.
         11    1    1    2    0    0  0.10391322619E+03  0.13001059514E+03  0.41012004988E+03  0.44260498048E+03  0.00000000000E+00 0.  1.
</event>
<event>
 7    1  0.8653652E-006  0.1329922E+03  0.7561462E-02  0.1223082E+00
         -2   -1    0    0    0  501 -0.00000000000E+00  0.00000000000E+00  0.69091901952E+02  0.69091901952E+02  0.00000000000E+00 0.  1.
          2   -1    0    0  501    0  0.00000000000E+00 -0.00000000000E+00 -0.28366810178E+03  0.28366810178E+03  0.00000000000E+00 0. -1.
         23    2    1    2    0    0  0.12878552888E+01 -0.95467226265E+02 -0.71362305288E+02  0.17278972120E+03  0.12509220309E+03 0.  0.
          5    1    3    3  502    0 -0.48763226348E+02 -0.95304375677E+02 -0.48111886956E+02  0.11744361342E+03  0.41800000000E+01 0. -1.
         -5    1    3    3    0  502  0.50051081636E+02 -0.16285058780E+00 -0.23250418331E+02  0.55346107775E+02  0.41800000000E+01 0. -1.
        -11    1    1    2    0    0 -0.25323294341E+02  0.65382944693E+02 -0.99382987959E+02  0.12162720497E+03  0.00000000000E+00 0. -1.
         11    1    1    2    0    0  0.24035439052E+02  0.30084281572E+02 -0.43830906584E+02  0.58343077569E+02  0.00000000000E+00 0.  1.
</event>
<event>
 7    1  0.8653652E-006  0.1659943E+03  0.7561462E-02  0.1182091E+00
         -1   -1    0    0    0  501 -0.00000000000E+00  0.00000000000E+00  0.21845311503E+03  0.21845311503E+03  0.00000000000E+00 0.  1.
          1   -1    0    0  501    0  0.00000000000E+00 -0.00000000000E+00 -0.20573183942E+03  0.20573183942E+03  0.00000000000E+00 0. -1.
         23    2    1    2    0    0 -0.75717202834E+02 -0.13459624052E+03  0.10769255811E+03  0.22603502211E+03  0.12507958019E+03 0.  0.
          5    1    3    3  502    0 -0.33283267419E+02 -0.18365589114E+01 -0.18169252546E+02  0.38193493906E+02  0.41800000000E+01 0. -1.
         -5    1    3    3    0  502 -0.42433935415E+02 -0.13275968161E+03  0.12586181066E+03  0.18784152820E+03  0.41800000000E+01 0. -1.
        -11    1    1    2    0    0  0.55413645248E+02  0.60128571817E+02 -0.84511556118E+01  0.82204253294E+02  0.00000000000E+00 0.  1.
         11    1    1    2    0    0  0.20303557585E+02  0.74467668702E+02 -0.86520126890E+02  0.11594567905E+03  0.00000000000E+00 0. -1.
</event>
<event>
 7    1  0.8653652E-006  0.7629607E+02  0.7561462E-02  0.1339904E+00
         -1   -1    0    0    0  501 -0.00000000000E+00  0.00000000000E+00  0.51008301892E+03  0.51008301892E+03  0.00000000000E+00 0.  1.
          1   -1    0    0  501    0  0.00000000000E+00 -0.00000000000E+00 -0.26048182651E+02  0.26048182651E+02  0.00000000000E+00 0. -1.
         23    2    1    2    0    0 -0.24873814802E+02  0.46072627503E+01  0.34495789265E+03  0.36780830604E+03  0.12508824387E+03 0.  0.
          5    1    3    3  502    0  0.22708695211E+02  0.77073446837E+01  0.54531681565E+01  0.24945890307E+02  0.41800000000E+01 0.  1.
         -5    1    3    3    0  502 -0.47582510013E+02 -0.31000819334E+01  0.33950472449E+03  0.34286241573E+03  0.41800000000E+01 0.  1.
        -11    1    1    2    0    0  0.44969337154E+02 -0.25250945583E+02  0.40362442086E+02  0.65490291402E+02  0.00000000000E+00 0. -1.
         11    1    1    2    0    0 -0.20095522352E+02  0.20643682833E+02  0.98714501532E+02  0.10283260413E+03  0.00000000000E+00 0.  1.
</event>
<event>
 7    1  0.8653652E-006  0.1268132E+03  0.7561462E-02  0.1232262E+00
          2   -1    0    0  501    0  0.00000000000E+00  0.00000000000E+00  0.33307045950E+02  0.33307045950E+02  0.00000000000E+00 0.  1.
         -2   -1    0    0    0  501 -0.00000000000E+00 -0.00000000000E+00 -0.50178306335E+03  0.50178306335E+03  0.00000000000E+00 0. -1.
         23    2    1    2    0    0  0.65753464692E+02  0.62716958660E+01 -0.29726493698E+03  0.32920660823E+03  0.12509075047E+03 0.  0.
          5    1    3    3  502    0  0.28930008927E+01  0.58905807632E+02 -0.11506573642E+03  0.12936715087E+03  0.41800000000E+01 0. -1.
         -5    1    3    3    0  502  0.62860463800E+02 -0.52634111766E+02 -0.18219920056E+03  0.19983945735E+03  0.41800000000E+01 0. -1.
        -11    1    1    2    0    0 -0.88456486927E+02  0.13310777985E+01 -0.14866804989E+03  0.17299858643E+03  0.00000000000E+00 0.  1.
         11    1    1    2    0    0  0.22703022235E+02 -0.76027736645E+01 -0.22543030531E+02  0.32884914650E+02  0.00000000000E+00 0. -1.
</event>
<event>
 7    1  0.8653652E-006  0.1227580E+03  0.7561462E-02  0.1238615E+00
          1   -1    0    0  501    0  0.00000000000E+00  0.00000000000E+00  0.47918833587E+02  0.47918833587E+02  0.00000000000E+00 0.  1.
         -1   -1    0    0    0  501 -0.00000000000E+00 -0.00000000000E+00 -0.49678270689E+03  0.49678270689E+03  0.00000000000E+00 0. -1.
         23    2    1    2    0    0  0.97097917351E+02 -0.16209902653E+01 -0.33064233701E+03  0.36660941508E+03  0.12508986783E+03 0.  0.
          5    1    3    3  502    0  0.37311682600E+02 -0.39542012668E+02 -0.26303281880E+03  0.26862514512E+03  0.41800000000E+01 0.  1.
         -5    1    3    3    0  502  0.59786234751E+02  0.37921022403E+02 -0.67609518213E+02  0.97984269956E+02  0.41800000000E+01 0.  1.
        -11    1    1    2    0    0 -0.46938226886E+02  0.36087485623E+02 -0.19906142770E+02  0.62464055918E+02  0.00000000000E+00 0.  1.
         11    1    1    2    0    0 -0.50159690465E+02 -0.34466495357E+02 -0.98315393521E+02  0.11562806949E+03  0.00000000000E+00 0. -1.
</event>
<event>
 7    1  0.8653652E-006  0.1601994E+03  0.7561462E-02  0.1188472E+00
          2   -1    0    0  501    0  0.00000000000E+00  0.00000000000E+00  0.94596858000E+03  0.94596858000E+03  0.00000000000E+00 0. -1.
         -2   -1    0    0    0  501 -0.00000000000E+00 -0.00000000000E+00 -0.27967806506E+02  0.27967806506E+02  0.00000000000E+00 0.  1.
         23    2    1    2    0    0 -0.10951172676E+03  0.29086749434E+02  0.55524778769E+03  0.58033262580E+03  0.12508794324E+03 0.  0.
          5    1    3    3  502    0  0.25451620657E+02  0.20818311220E+02  0.12484985276E+03  0.12917486292E+03  0.41800000000E+01 0. -1.
         -5    1    3    3    0  502 -0.13496334741E+03  0.82684382142E+01  0.43039793493E+03  0.45115776288E+03  0.41800000000E+01 0. -1.
        -11    1    1    2    0    0  0.20341857067E+02 -0.55386975254E+02  0.16066489107E+03  0.17115699050E+03  0.00000000000E+00 0. -1.
         11    1    1    2    0    0  0.89169869689E+02  0.26300225820E+02  0.20208809474E+03  0.22244677020E+03  0.00000000000E+00 0.  1.
</event>
<event>
 7    1  0.8653652E-006  0.1168665E+03  0.7561462E-02  0.1248358E+00
         -1   -1    0    0    0  501 -0.00000000000E+00  0.00000000000E+00  0.26476833846E+03  0.26476833846E+03  0.00000000000E+00 0.  1.
          1   -1    0    0  501    0  0.00000000000E+00 -0.00000000000E+00 -0.10538527172E+03  0.10538527172E+03  0.00000000000E+00 0. -1.
         23    2    1    2    0    0  0.30774401646E+02  0.10077288761E+03  0.16349883375E+03  0.23120769687E+03  0.12499156684E+03 0.  0.
          5    1    3    3  502    0  0.11338388301E+02  0.76971861734E+02  0.14797951684E+02  0.79307492220E+02  0.41800000000E+01 0.  1.
         -5    1    3    3    0  502  0.19436013345E+02  0.23801025879E+02  0.14870088206E+03  0.15190020465E+03  0.41800000000E+01 0.  1.
        -11    1    1    2    0    0 -0.46778139787E+02 -0.97962551320E+02  0.19484686981E+02  0.11029283227E+03  0.00000000000E+00 0.  1.
         11    1    1    2    0    0  0.16003738142E+02 -0.28103362927E+01 -0.23600453990E+02  0.28653081041E+02  0.00000000000E+00 0. -1.
</event>
<event>
 7    1  0.8653652E-006  0.1507097E+03  0.7561462E-02  0.1199604E+00
         -2   -1    0    0    0  501 -0.00000000000E+00  0.00000000000E+00  0.78383008367E+02  0.78383008367E+02  0.00000000000E+00 0.  1.
          2   -1    0    0  501    0  0.00000000000E+00 -0.00000000000E+00 -0.40430932168E+03  0.40430932168E+03  0.00000000000E+00 0. -1.
         23    2    1    2    0    0  0.33882345257E+02 -0.11639574565E+03 -0.75608048634E+02  0.18989618084E+03  0.12509196439E+03 0.  0.
          5    1    3    3  502    0  0.75758656847E+02 -0.61545893913E+02 -0.16796530291E+02  0.99130555202E+02  0.41800000000E+01 0. -1.
         -5    1    3    3    0  502 -0.41876311590E+02 -0.54849851742E+02 -0.58811518343E+02  0.90765625642E+02  0.41800000000E+01 0. -1.
        -11    1    1    2    0    0  0.11400118956E+02  0.65411350256E+02 -0.55997375682E+02  0.86858007908E+02  0.00000000000E+00 0.  1.
         11    1    1    2    0    0 -0.45282464213E+02  0.50984395399E+02 -0.19432088900E+03  0.20593814130E+03  0.00000000000E+00 0. -1.
</event>
<event>
 7    1  0.8653652E-006  0.2065533E+03  0.7561462E-02  0.1144325E+00
         -2   -1    0    0    0  501 -0.00000000000E+00  0.00000000000E+00  0.41467012164E+02  0.41467012164E+02  0.00000000000E+00 0.  1.
          2   -1    0    0  501    0  0.00000000000E+00 -0.00000000000E+00 -0.12775163751E+04  0.12775163751E+04  0.00000000000E+00 0. -1.
         23    2    1    2    0    0  0.11407808399E+02 -0.18942070980E+03 -0.43849480695E+03  0.49389797810E+03  0.12508866320E+03 0.  0.
          5    1    3    3  502    0 -0.39316358034E+02 -0.67833430798E+02 -0.26266114152E+03  0.27414503098E+03  0.41800000000E+01 0. -1.
         -5    1    3    3    0  502  0.50724166433E+02 -0.12158727900E+03 -0.17583366543E+03  0.21975294713E+03  0.41800000000E+01 0. -1.
        -11    1    1    2    0    0 -0.41230479195E+02  0.12850410260E+03 -0.63060583049E+03  0.64488523804E+03  0.00000000000E+00 0. -1.
         11    1    1    2    0    0  0.29822670796E+02  0.60916607194E+02 -0.16694872551E+03  0.18020017113E+03  0.00000000000E+00 0.  1.
</event>
<event>
 7    1  0.8653652E-006  0.1701494E+03  0.7561462E-02  0.1177692E+00
         -2   -1    0    0    0  501 -0.00000000000E+00  0.00000000000E+00  0.21994968090E+03  0.21994968090E+03  0.00000000000E+00 0.  1.
          2   -1    0    0  501    0  0.00000000000E+00 -0.00000000000E+00 -0.16351647676E+03  0.16351647676E+03  0.00000000000E+00 0. -1.
         23    2    1    2    0    0 -0.49100060937E+02 -0.12994763764E+03  0.98736752139E+02  0.21140694603E+03  0.12508695412E+03 0.  0.
          5    1    3    3  502    0  0.42843955113E+01 -0.12953003770E+03  0.88223801106E+02  0.15683525813E+03  0.41800000000E+01 0.  1.
         -5    1    3    3    0  502 -0.53384456448E+02 -0.41759994048E+00  0.10512951033E+02  0.54571687892E+02  0.41800000000E+01 0.  1.
        -11    1    1    2    0    0  0.30670053700E+02  0.53565740956E+01  0.13954807081E+02  0.34118641835E+02  0.00000000000E+00 0. -1.
         11    1    1    2    0    0  0.18430007236E+02  0.12459106355E+03 -0.56258355080E+02  0.13794056981E+03  0.00000000000E+00 0.  1.
</event>
<event>
 7    1  0.8653652E-006  0.1349497E+03  0.7561462E-02  0.1220291E+00
         -1   -1    0    0    0  501 -0.00000000000E+00  0.00000000000E+00  0.72865233953E+03  0.72865233953E+03  0.00000000000E+00 0.  1.
          1   -1    0    0  501    0  0.00000000000E+00 -0.00000000000E+00 -0.25329769294E+02  0.25329769294E+02  0.00000000000E+00 0. -1.
         23    2    1    2    0    0  0.73645036266E+02  0.37474747823E+02  0.40221315373E+03  0.42924455911E+03  0.12509005718E+03 0.  0.
          5    1    3    3  502    0 -0.66212298042E+01  0.63978215888E+02  0.19654641549E+03  0.20684539790E+03  0.41800000000E+01 0. -1.
         -5    1    3    3    0  502  0.80266266070E+02 -0.26503468065E+02  0.20566673824E+03  0.22239916121E+03  0.41800000000E+01 0. -1.
        -11    1    1    2    0    0 -0.86202520186E+02 -0.52731349717E+02  0.26430802624E+03  0.28296678686E+03  0.00000000000E+00 0. -1.
         11    1    1    2    0    0  0.12557483920E+02  0.15256601893E+02  0.36801390261E+02  0.41770762848E+02  0.00000000000E+00 0.  1.
</event>
<event>
 7    1  0.8653652E-006  0.7968395E+02  0.7561462E-02  0.1329951E+00
         -2   -1    0    0    0  501 -0.00000000000E+00  0.00000000000E+00  0.38731880736E+03  0.38731880736E+03  0.00000000000E+00 0.  1.
          2   -1    0    0  501    0  0.00000000000E+00 -0.00000000000E+00 -0.39558272013E+02  0.39558272013E+02  0.00000000000E+00 0. -1.
         23    2    1    2    0    0  0.52475505704E+02 -0.20894857813E+02  0.22249665775E+03  0.26142289327E+03  0.12508753987E+03 0.  0.
          5    1    3    3  502    0 -0.13302251748E+02  0.14289629685E+02 -0.61401678952E+01  0.20888213899E+02  0.41800000000E+01 0.  1.
         -5    1    3    3    0  502  0.65777757452E+02 -0.35184487498E+02  0.22863682565E+03  0.24053467937E+03  0.41800000000E+01 0.  1.
        -11    1    1    2    0    0 -0.39325898760E+02  0.29336526700E+02  0.13725310718E+03  0.14575861395E+03  0.00000000000E+00 0.  1.
         11    1    1    2    0    0 -0.13149606945E+02 -0.84416688867E+01 -0.11989229584E+02  0.19695572152E+02  0.00000000000E+00 0. -1.
</event>
<event>
 7    1  0.8653652E-006  0.2171085E+03  0.7561462E-02  0.1136057E+00
         -1   -1    0    0    0  501 -0.00000000000E+00  0.00000000000E+00  0.42049844318E+03  0.42049844318E+03  0.00000000000E+00 0.  1.
          1   -1    0    0  501    0  0.00000000000E+00 -0.00000000000E+00 -0.12382457377E+03  0.12382457377E+03  0.00000000000E+00 0. -1.
         23    2    1    2    0    0 -0.17734025617E+03  0.88228822778E+02  0.13827936110E+03  0.27203629292E+03  0.12509464950E+03 0.  0.
          5    1    3    3  502    0 -0.14940405336E+03  0.11945307066E+03  0.12185633760E+03  0.22684145711E+03  0.41800000000E+01 0. -1.
         -5    1    3    3    0  502 -0.27936202800E+02 -0.31224247884E+02  0.16423023505E+02  0.45194835810E+02  0.41800000000E+01 0. -1.
        -11    1    1    2    0    0  0.85048473496E+02 -0.24107691283E+02  0.12854989851E+03  0.15601121764E+03  0.00000000000E+00 0.  1.
         11    1    1    2    0    0  0.92291782669E+02 -0.64121131495E+02  0.29844609793E+02  0.11627550639E+03  0.00000000000E+00 0. -1.
</event>
<event>
 7    1  0.8653652E-006  0.1156909E+03  0.7561462E-02  0.1250380E+00
         -4   -1    0    0    0  501 -0.00000000000E+00  0.00000000000E+00  0.17297196053E+02  0.17297196053E+02  0.00000000000E+00 0.  1.
          4   -1    0    0  501    0  0.00000000000E+00 -0.00000000000E+00 -0.85755523482E+03  0.85755523482E+03  0.00000000000E+00 0. -1.
         23    2    1    2    0    0  0.43359825038E+01  0.43005530851E+02 -0.35064926842E+03  0.37479390165E+03  0.12508909964E+03 0.  0.
          5    1    3    3  502    0  0.40556060096E+02  0.72478669482E+02 -0.25602668792E+03  0.26919340420E+03  0.41800000000E+01 0.  1.
         -5    1    3    3    0  502 -0.36220077592E+02 -0.29473138631E+02 -0.94622580499E+02  0.10560049745E+03  0.41800000000E+01 0.  1.
        -11    1    1    2    0    0 -0.44222771686E+02 -0.42668835138E+02 -0.31692686071E+03  0.32282954955E+03  0.00000000000E+00 0.  1.
         11    1    1    2    0    0  0.39886789182E+02 -0.33669571266E+00 -0.17268190964E+03  0.17722897966E+03  0.00000000000E+00 0. -1.
</event>
<event>
 7    1  0.8653652E-006  0.1735408E+03  0.7561462E-02  0.1174205E+00
         -2   -1    0    0    0  501 -0.00000000000E+00  0.00000000000E+00  0.72308250892E+02  0.72308250892E+02  0.00000000000E+00 0.  1.
          2   -1    0    0  501    0  0.00000000000E+00 -0.00000000000E+00 -0.48383206992E+03  0.48383206992E+03  0.00000000000E+00 0. -1.
         23    2    1    2    0    0  0.59129113319E+02 -0.13871339840E+03 -0.18613555115E+03  0.27024190924E+03  0.12508631889E+03 0.  0.
          5    1    3    3  502    0  0.13227864431E+02  0.10462074999E+02 -0.78994056083E+02  0.80882412841E+02  0.41800000000E+01 0. -1.
         -5    1    3    3    0  502  0.45901248888E+02 -0.14917547340E+03 -0.10714149507E+03  0.18935949640E+03  0.41800000000E+01 0. -1.
        -11    1    1    2    0    0 -0.56116116975E+02  0.27811570318E+02 -0.59899910347E+02  0.86663148382E+02  0.00000000000E+00 0. -1.
         11    1    1    2    0    0 -0.30129963439E+01  0.11090182808E+03 -0.16548835753E+03  0.19923526318E+03  0.00000000000E+00 0.  1.
</event>
<event>
 7    1  0.8653652E-006  0.1663236E+03  0.7561462E-02  0.1181737E+00
          1   -1    0    0  501    0  0.00000000000E+00  0.00000000000E+00  0.50816041201E+03  0.50816041201E+03  0.00000000000E+00 0. -1.
         -1   -1    0    0    0  501 -0.00000000000E+00 -0.00000000000E+00 -0.84287469793E+02  0.84287469793E+02  0.00000000000E+00 0.  1.
         23    2    1    2    0    0 -0.79978109955E+02 -0.12824158750E+03  0.92140767465E+02  0.21674829269E+03  0.12508996170E+03 0.  0.
          5    1    3    3  502    0 -0.82850624775E+02 -0.12652390101E+03  0.11703932649E+03  0.19128042215E+03  0.41800000000E+01 0.  1.
         -5    1    3    3    0  502  0.28725148207E+01 -0.17176864901E+01 -0.24898559025E+02  0.25467870539E+02  0.41800000000E+01 0.  1.
        -11    1    1    2    0    0  0.56183554501E+02  0.13896941131E+03  0.27344827321E+03  0.31183817470E+03  0.00000000000E+00 0.  1.
         11    1    1    2    0    0  0.23794555453E+02 -0.10727823804E+02  0.58283901541E+02  0.63861414419E+02  0.00000000000E+00 0. -1.
</event>
<event>
 7    1  0.8653652E-006  0.7208695E+02  0.7561462E-02  0.1353137E+00
          2   -1    0    0  501    0  0.00000000000E+00  0.00000000000E+00  0.15547429860E+03  0.15547429860E+03  0.00000000000E+00 0. -1.
         -2   -1    0    0    0  501 -0.00000000000E+00 -0.00000000000E+00 -0.97304558757E+02  0.97304558757E+02  0.00000000000E+00 0.  1.
         23    2    1    2    0    0  0.49299854897E+02 -0.47183625578E+01  0.32786587927E+01  0.13457763357E+03  0.12509057204E+03 0.  0.
          5    1    3    3  502    0  0.21679902965E+02 -0.18291174395E+02 -0.58658138768E+02  0.65290389010E+02  0.41800000000E+01 0.  1.
         -5    1    3    3    0  502  0.27619951933E+02  0.13572811837E+02  0.61936797561E+02  0.69287244555E+02  0.41800000000E+01 0.  1.
        -11    1    1    2    0    0 -0.45111713429E+02  0.32975723886E+02 -0.49631076235E+00  0.55881225636E+02  0.00000000000E+00 0.  1.
         11    1    1    2    0    0 -0.41881414685E+01 -0.28257361328E+02  0.55387391811E+02  0.62319998153E+02  0.00000000000E+00 0. -1.
</event>
<event>
 7    1  0.8653652E-006  0.6915538E+02  0.7561462E-02  0.1362989E+00
          2   -1    0    0  501    0  0.00000000000E+00  0.00000000000E+00  0.83758673191E+02  0.83758673191E+02  0.00000000000E+00 0. -1.
         -2   -1    0    0    0  501 -0.00000000000E+00 -0.00000000000E+00 -0.17781197718E+03  0.17781197718E+03  0.00000000000E+00 0.  1.
         23    2    1    2    0    0  0.47737591057E+02  0.36091903518E+01 -0.82704663760E+02  0.15741675880E+03  0.12509224871E+03 0.  0.
          5    1    3    3  502    0  0.84190938457E+01  0.93116890892E+01 -0.10886383720E+03  0.10966492669E+03  0.41800000000E+01 0.  1.
         -5    1    3    3    0  502  0.39318497211E+02 -0.57024987375E+01  0.26159173441E+02  0.47751832110E+02  0.41800000000E+01 0.  1.
        -11    1    1    2    0    0 -0.26194956282E+02 -0.37035896003E+02 -0.35521622189E+02  0.57616134635E+02  0.00000000000E+00 0.  1.
         11    1    1    2    0    0 -0.21542634775E+02  0.33426705651E+02  0.24172981963E+02  0.46537756937E+02  0.00000000000E+00 0. -1.
</event>
<event>
 7    1  0.8653652E-006  0.1523049E+03  0.7561462E-02  0.1197669E+00
          2   -1    0    0  501    0  0.00000000000E+00  0.00000000000E+00  0.95216700081E+03  0.95216700081E+03  0.00000000000E+00 0. -1.
         -2   -1    0    0    0  501 -0.00000000000E+00 -0.00000000000E+00 -0.28978194417E+02  0.28978194417E+02  0.00000000000E+00 0.  1.
         23    2    1    2    0    0 -0.74181842147E+02  0.82276632441E+02  0.66881055294E+03  0.68936772246E+03  0.12509161079E+03 0.  0.
          5    1    3    3  502    0 -0.10843487046E+03  0.60895394295E+02  0.45338768422E+03  0.47015341621E+03  0.41800000000E+01 0. -1.
         -5    1    3    3    0  502  0.34253028309E+02  0.21381238146E+02  0.21542286872E+03  0.21921430624E+03  0.41800000000E+01 0. -1.
        -11    1    1    2    0    0  0.52907081832E+02 -0.99179848716E+02  0.22643248556E+03  0.25279927258E+03  0.00000000000E+00 0. -1.
         11    1    1    2    0    0  0.21274760316E+02  0.16903216275E+02  0.27945767885E+02  0.38978200185E+02  0.00000000000E+00 0.  1.
</event>
<event>
 7    1  0.8653652E-006  0.1408019E+03  0.7561462E-02  0.1212254E+00
         -1   -1    0    0    0  501 -0.00000000000E+00  0.00000000000E+00  0.56136082811E+03  0.56136082811E+03  0.00000000000E+00 0.  1.
          1   -1    0    0  501    0  0.00000000000E+00 -0.00000000000E+00 -0.39563845977E+02  0.39563845977E+02  0.00000000000E+00 0. -1.
         23    2    1    2    0    0  0.97743582000E+02 -0.70115310854E+01  0.33344677576E+03  0.36937398723E+03  0.12508965100E+03 0.  0.
          5    1    3    3  502    0  0.12554231685E+03  0.73947028704E+01  0.28497077027E+03  0.31151463410E+03  0.41800000000E+01 0. -1.
         -5    1    3    3    0  502 -0.27798734854E+02 -0.14406233956E+02  0.48476005483E+02  0.57859353123E+02  0.41800000000E+01 0. -1.
        -11    1    1    2    0    0 -0.19401798410E+02 -0.31418851184E+02  0.20159100203E+02  0.42070931915E+02  0.00000000000E+00 0. -1.
         11    1    1    2    0    0 -0.78341783591E+02  0.38430382269E+02  0.16819110617E+03  0.18947975494E+03  0.00000000000E+00 0.  1.
</event>
<event>
 7    1  0.8653652E-006  0.1711906E+03  0.7561462E-02  0.1176612E+00
         -2   -1    0    0    0  501 -0.00000000000E+00  0.00000000000E+00  0.57957466530E+03  0.57957466530E+03  0.00000000000E+00 0.  1.
          2   -1    0    0  501    0  0.00000000000E+00 -0.00000000000E+00 -0.93367687210E+02  0.93367687210E+02  0.00000000000E+00 0. -1.
         23    2    1    2    0    0  0.13635282238E+03  0.35631146063E+02  0.47699221943E+03  0.51286489950E+03  0.12508859661E+03 0.  0.
          5    1    3    3  502    0  0.15939107770E+03  0.32507693229E+02  0.43829343573E+03  0.46752633506E+03  0.41800000000E+01 0. -1.
         -5    1    3    3    0  502 -0.23038255318E+02  0.31234528342E+01  0.38698783701E+02  0.45338564442E+02  0.41800000000E+01 0. -1.
        -11    1    1    2    0    0 -0.13959109333E+03 -0.21137546719E+02  0.18760226278E+02  0.14242336644E+03  0.00000000000E+00 0.  1.
         11    1    1    2    0    0  0.32382709468E+01 -0.14493599344E+02 -0.95454676167E+01  0.17654086572E+02  0.00000000000E+00 0. -1.
</event>
<event>
 7    1  0.8653652E-006  0.1224831E+03  0.7561462E-02  0.1239056E+00
          1   -1    0    0  501    0  0.00000000000E+00  0.00000000000E+00  0.38135899999E+02  0.38135899999E+02  0.00000000000E+00 0. -1.
         -1   -1    0    0    0  501 -0.00000000000E+00 -0.00000000000E+00 -0.71911171869E+03  0.71911171869E+03  0.00000000000E+00 0.  1.
         23    2    1    2    0    0  0.14483730435E+02 -0.92693388541E+02 -0.54901245746E+03  0.57084575995E+03  0.12509340699E+03 0.  0.
          5    1    3    3  502    0  0.25638270591E+02 -0.10522493912E+03 -0.54107057094E+03  0.55181921303E+03  0.41800000000E+01 0. -1.
         -5    1    3    3    0  502 -0.11154540156E+02  0.12531550579E+02 -0.79418865232E+01  0.19026546916E+02  0.41800000000E+01 0. -1.
        -11    1    1    2    0    0 -0.38883089888E+02  0.22375133827E+02 -0.14138490746E+02  0.47036562519E+02  0.00000000000E+00 0.  1.
         11    1    1    2    0    0  0.24399359453E+02  0.70318254714E+02 -0.11782487048E+03  0.13936529623E+03  0.00000000000E+00 0. -1.
</event>
<event>
 7    1  0.8653652E-006  0.3580966E+03  0.7561462E-02  0.1059340E+00
          1   -1    0    0  501    0  0.00000000000E+00  0.00000000000E+00  0.60481089426E+03  0.60481089426E+03  0.00000000000E+00 0. -1.
         -1   -1    0    0    0  501 -0.00000000000E+00 -0.00000000000E+00 -0.22066780396E+03  0.22066780396E+03  0.00000000000E+00 0.  1.
         23    2    1    2    0    0 -0.33816684012E+03 -0.74789224666E+02  0.15132261141E+03  0.39811448559E+03  0.12508545488E+03 0.  0.
          5    1    3    3  502    0 -0.48039428448E+02  0.22355312135E+02  0.56960884750E+02  0.77907390264E+02  0.41800000000E+01 0.  1.
         -5    1    3    3    0  502 -0.29012741168E+03 -0.97144536801E+02  0.94361726664E+02  0.32020709532E+03  0.41800000000E+01 0.  1.
        -11    1    1    2    0    0  0.20019535529E+03  0.16542956354E+00  0.14864610653E+03  0.24934689216E+03  0.00000000000E+00 0. -1.
         11    1    1    2    0    0  0.13797148484E+03  0.74623795103E+02  0.84174372359E+02  0.17801732046E+03  0.00000000000E+00 0.  1.
</event>
<event>
 7    1  0.8653652E-006  0.8558049E+02  0.7561462E-02  0.1313921E+00
          2   -1    0    0  501    0  0.00000000000E+00  0.00000000000E+00  0.67012923181E+03  0.67012923181E+03  0.00000000000E+00 0. -1.
         -2   -1    0    0    0  501 -0.00000000000E+00 -0.00000000000E+00 -0.20095254526E+02  0.20095254526E+02  0.00000000000E+00 0.  1.
         23    2    1    2    0    0 -0.16528811621E+02  0.29650271004E+02  0.29612969942E+03  0.32325330388E+03  0.12509020509E+03 0.  0.
          5    1    3    3  502    0  0.15983162084E+02 -0.12517341204E+02 -0.15830823197E+01  0.20787588862E+02  0.41800000000E+01 0. -1.
         -5    1    3    3    0  502 -0.32511973705E+02  0.42167612208E+02  0.29771278174E+03  0.30246571502E+03  0.41800000000E+01 0. -1.
        -11    1    1    2    0    0  0.36374184851E+02  0.21434449820E+02  0.14943746617E+03  0.15528706726E+03  0.00000000000E+00 0.  1.
         11    1    1    2    0    0 -0.19845373230E+02 -0.51084720824E+02  0.20446681169E+03  0.21168411519E+03  0.00000000000E+00 0. -1.
</event>
<event>
 7    1  0.8653652E-006  0.9696359E+02  0.7561462E-02  0.1286814E+00
         -1   -1    0    0    0  501 -0.00000000000E+00  0.00000000000E+00  0.70140725341E+02  0.70140725341E+02  0.00000000000E+00 0.  1.
          1   -1    0    0  501    0  0.00000000000E+00 -0.00000000000E+00 -0.30352372291E+03  0.30352372291E+03  0.00000000000E+00 0. -1.
         23    2    1    2    0    0  0.46097898193E+02 -0.37415270356E+02 -0.27027626302E+02  0.14107555543E+03  0.12508757365E+03 0.  0.
          5    1    3    3  502    0  0.36115932355E+02  0.17279785515E+02  0.38041874780E+02  0.55385992761E+02  0.41800000000E+01 0.  1.
         -5    1    3    3    0  502  0.99819658375E+01 -0.54695055871E+02 -0.65069501082E+02  0.85689562666E+02  0.41800000000E+01 0.  1.
        -11    1    1    2    0    0 -0.24631085723E+01  0.51886904417E+02 -0.15592153132E+03  0.16434671181E+03  0.00000000000E+00 0. -1.
         11    1    1    2    0    0 -0.43634789620E+02 -0.14471634060E+02 -0.50433839940E+02  0.68242181008E+02  0.00000000000E+00 0.  1.
</event>
<event>
 6    1  0.8653652E-006  0.1519687E+03  0.7561462E-02  0.1198075E+00
          3   -1    0    0  501    0  0.00000000000E+00  0.00000000000E+00  0.13277252195E+03  0.13277252195E+03  0.00000000000E+00 0. -1.
         -3   -1    0    0    0  501 -0.00000000000E+00 -0.00000000000E+00 -0.22588217932E+03  0.22588217932E+03  0.00000000000E+00 0.  1.
          5    1    1    2  502    0  0.29522112052E+02 -0.13647825726E+02 -0.34058309772E+02  0.47278526960E+02  0.41800000000E+01 0. -1.
         -5    1    1    2    0  502 -0.12695064072E+03  0.48323889415E+02 -0.98274435869E+02  0.16771106288E+03  0.41800000000E+01 0.  1.
        -11    1    1    2    0    0  0.84448408006E+02 -0.62153737360E+02  0.42414305930E+02  0.11310877079E+03  0.00000000000E+00 0. -1.
         11    1    1    2    0    0  0.12980120660E+02  0.27477673672E+02 -0.31912176568E+01  0.30556340633E+02  0.00000000000E+00 0.  1.
</event>
<event>
 7    1  0.8653652E-006  0.1300822E+03  0.7561462E-02  0.1227334E+00
         -1   -1    0    0    0  501 -0.00000000000E+00  0.00000000000E+00  0.72057689909E+02  0.72057689909E+02  0.00000000000E+00 0.  1.
          1   -1    0    0  501    0  0.00000000000E+00 -0.00000000000E+00 -0.27242953884E+03  0.27242953884E+03  0.00000000000E+00 0. -1.
         23    2    1    2    0    0  0.34815441179E+02  0.79405211470E+02 -0.84710016656E+02  0.17418671497E+03  0.12509165519E+03 0.  0.
          5    1    3    3  502    0  0.68739636381E+02  0.15365352471E+02 -0.12240967979E+02  0.71613862928E+02  0.41800000000E+01 0.  1.
         -5    1    3    3    0  502 -0.33924195202E+02  0.64039858999E+02 -0.72469048677E+02  0.10257285205E+03  0.41800000000E+01 0.  1.
        -11    1    1    2    0    0  0.19353714439E+02  0.17588324615E+01 -0.61383741556E+00  0.19443162052E+02  0.00000000000E+00 0.  1.
         11    1    1    2    0    0 -0.54169155618E+02 -0.81164043931E+02 -0.11504799486E+03  0.15085735172E+03  0.00000000000E+00 0. -1.
</event>
<event>
 7    1  0.8653652E-006  0.1779719E+03  0.7561462E-02  0.1169780E+00
         -3   -1    0    0    0  501 -0.00000000000E+00  0.00000000000E+00  0.12934811084E+03  0.12934811084E+03  0.00000000000E+00 0.  1.
          3   -1    0    0  501    0  0.00000000000E+00 -0.00000000000E+00 -0.25134575042E+03  0.25134575042E+03  0.00000000000E+00 0. -1.
         23    2    1    2    0    0 -0.26884690104E+02  0.14107963932E+03 -0.68171150664E+02  0.20228656094E+03  0.12508515405E+03 0.  0.
          5    1    3    3  502    0 -0.67820888556E+02  0.12583180603E+03 -0.34863928960E+02  0.14719470872E+03  0.41800000000E+01 0. -1.
         -5    1    3    3    0  502  0.40936198452E+02  0.15247833296E+02 -0.33307221704E+02  0.55091852225E+02  0.41800000000E+01 0. -1.
        -11    1    1    2    0    0  0.59972611720E+02 -0.87443989867E+02 -0.43203657487E+02  0.11449769229E+03  0.00000000000E+00 0. -1.
         11    1    1    2    0    0 -0.33087921616E+02 -0.53635649456E+02 -0.10622831429E+02  0.63909608018E+02  0.00000000000E+00 0.  1.
</event>
<event>
 7    1  0.8653652E-006  0.1954331E+03  0.7561462E-02  0.1153650E+00
          2   -1    0    0  501    0  0.00000000000E+00  0.00000000000E+00  0.35790546789E+03  0.35790546789E+03  0.00000000000E+00 0. -1.
         -2   -1    0    0    0  501 -0.00000000000E+00 -0.00000000000E+00 -0.15468604657E+03  0.15468604657E+03  0.00000000000E+00 0.  1.
         23    2    1    2    0    0  0.51296656025E+02 -0.16167477586E+03 -0.27504422417E+02  0.21254045001E+03  0.12508744770E+03 0.  0.
          5    1    3    3  502    0  0.56138272843E+02 -0.18140088388E+03 -0.26546922646E+02  0.19178111965E+03  0.41800000000E+01 0.  1.
         -5    1    3    3    0  502 -0.48416168175E+01  0.19726108028E+02 -0.95749977035E+00  0.20759330363E+02  0.41800000000E+01 0.  1.
        -11    1    1    2    0    0 -0.96351533851E+01 -0.31878553086E+01  0.53454827762E+02  0.54409716166E+02  0.00000000000E+00 0. -1.
         11    1    1    2    0    0 -0.41661502640E+02  0.16486263116E+03  0.17726901598E+03  0.24564134827E+03  0.00000000000E+00 0.  1.
</event>
<event>
 7    1  0.8653652E-006  0.1126004E+03  0.7561462E-02  0.1255829E+00
          1   -1    0    0  501    0  0.00000000000E+00  0.00000000000E+00  0.12216357693E+03  0.12216357693E+03  0.00000000000E+00 0. -1.
         -1   -1    0    0    0  501 -0.00000000000E+00 -0.00000000000E+00 -0.13024493575E+03  0.13024493575E+03  0.00000000000E+00 0.  1.
         23    2    1    2    0    0 -0.55543596846E+02  0.34723750763E+01 -0.39883113248E+02  0.14260007368E+03  0.12508784814E+03 0.  0.
          5    1    3    3  502    0 -0.74040132558E+02  0.38120942440E+02 -0.55459058176E+02  0.10014153492E+03  0.41800000000E+01 0.  1.
         -5    1    3    3    0  502  0.18496535712E+02 -0.34648567364E+02  0.15575944928E+02  0.42458538765E+02  0.41800000000E+01 0.  1.
        -11    1    1    2    0    0  0.29115286075E+02 -0.44701754713E+02  0.40062630077E+01  0.53497634536E+02  0.00000000000E+00 0.  1.
         11    1    1    2    0    0  0.26428310770E+02  0.41229379637E+02  0.27795491426E+02  0.56310804461E+02  0.00000000000E+00 0. -1.
</event>
<event>
 7    1  0.8653652E-006  0.1252399E+03  0.7561462E-02  0.1234695E+00
          4   -1    0    0  501    0  0.00000000000E+00  0.00000000000E+00  0.66399843870E+03  0.66399843870E+03  0.00000000000E+00 0. -1.
         -4   -1    0    0    0  501 -0.00000000000E+00 -0.00000000000E+00 -0.35867636911E+02  0.35867636911E+02  0.00000000000E+00 0.  1.
         23    2    1    2    0    0 -0.58388733491E+02  0.47058811786E+02  0.15537147078E+03  0.21309912098E+03  0.12508863043E+03 0.  0.
          5    1    3    3  502    0  0.28027491645E+02  0.46077877416E+02  0.33465627288E+02  0.63609210692E+02  0.41800000000E+01 0. -1.
         -5    1    3    3    0  502 -0.86416225136E+02  0.98093437023E+00  0.12190584349E+03  0.14948991028E+03  0.41800000000E+01 0. -1.
        -11    1    1    2    0    0  0.12019700990E+02 -0.60422524237E+02  0.33938444011E+03  0.34493064931E+03  0.00000000000E+00 0.  1.
         11    1    1    2    0    0  0.46369032501E+02  0.13363712450E+02  0.13337489090E+03  0.14183630532E+03  0.00000000000E+00 0. -1.
</event>
<event>
 7    1  0.8653652E-006  0.1381305E+03  0.7561462E-02  0.1215867E+00
          1   -1    0    0  501    0  0.00000000000E+00  0.00000000000E+00  0.10167287591E+03  0.10167287591E+03  0.00000000000E+00 0. -1.
         -1   -1    0    0    0  501 -0.00000000000E+00 -0.00000000000E+00 -0.23963379869E+03  0.23963379869E+03  0.00000000000E+00 0.  1.
         23    2    1    2    0    0 -0.68873159324E+02  0.86392742217E+02 -0.93079842470E+02  0.19109683093E+03  0.12508766420E+03 0.  0.
          5    1    3    3  502    0  0.80727206145E+01 -0.16590830982E+02 -0.53153720394E+02  0.56419986552E+02  0.41800000000E+01 0.  1.
         -5    1    3    3    0  502 -0.76945879938E+02  0.10298357320E+03 -0.39926122076E+02  0.13467684438E+03  0.41800000000E+01 0.  1.
        -11    1    1    2    0    0  0.77538781364E+02 -0.52262958729E+02 -0.60831137495E+02  0.11155315665E+03  0.00000000000E+00 0.  1.
         11    1    1    2    0    0 -0.86656220406E+01 -0.34129783488E+02  0.15950057182E+02  0.38656687007E+02  0.00000000000E+00 0. -1.
</event>
<event>
 7    1  0.8653652E-006  0.8872231E+02  0.7561462E-02  0.1305976E+00
         -1   -1    0    0    0  501 -0.00000000000E+00  0.00000000000E+00  0.29464624900E+02  0.29464624900E+02  0.00000000000E+00 0.  1.
          1   -1    0    0  501    0  0.00000000000E+00 -0.00000000000E+00 -0.44093406627E+03  0.44093406627E+03  0.00000000000E+00 0. -1.
         23    2    1    2    0    0 -0.35622724605E+02  0.39610395213E+01 -0.22459629690E+03  0.25956524837E+03  0.12508378487E+03 0.  0.
          5    1    3    3  502    0 -0.21241261510E+02 -0.40197431027E+02 -0.20213441770E+02  0.49930754850E+02  0.41800000000E+01 0. -1.
         -5    1    3    3    0  502 -0.14381463095E+02  0.44158470549E+02 -0.20438285513E+03  0.20963449352E+03  0.41800000000E+01 0. -1.
        -11    1    1    2    0    0  0.81432351037E+01  0.35862272222E+02 -0.32577512798E+02  0.49129514418E+02  0.00000000000E+00 0.  1.
         11    1    1    2    0    0  0.27479489501E+02 -0.39823311743E+02 -0.15429563167E+03  0.16170392838E+03  0.00000000000E+00 0. -1.
</event>
<event>
 7    1  0.8653652E-006  0.8892422E+02  0.7561462E-02  0.1305478E+00
         -1   -1    0    0    0  501 -0.00000000000E+00  0.00000000000E+00  0.13183404944E+03  0.13183404944E+03  0.00000000000E+00 0.  1.
          1   -1    0    0  501    0  0.00000000000E+00 -0.00000000000E+00 -0.10365625131E+03  0.10365625131E+03  0.00000000000E+00 0. -1.
         23    2    1    2    0    0 -0.35233121281E+02 -0.24538879000E+02  0.14029867760E+02  0.13299701330E+03  0.12509132240E+03 0.  0.
          5    1    3    3  502    0  0.33189013668E+02  0.27520343179E+02 -0.82224687871E+01  0.44090376613E+02  0.41800000000E+01 0.  1.
         -5    1    3    3    0  502 -0.68422134949E+02 -0.52059222179E+02  0.22252336547E+02  0.88906636685E+02  0.41800000000E+01 0.  1.
        -11    1    1    2    0    0  0.25045407752E+02  0.37778295528E+01  0.52168315365E+02  0.57992047503E+02  0.00000000000E+00 0.  1.
         11    1    1    2    0    0  0.10187713530E+02  0.20761049447E+02 -0.38020385000E+02  0.44501239946E+02  0.00000000000E+00 0. -1.
</event>
<event>
 7    1  0.8653652E-006  0.1183862E+03  0.7561462E-02  0.1245783E+00
          1   -1    0    0  501    0  0.00000000000E+00  0.00000000000E+00  0.92718728961E+03  0.92718728961E+03  0.00000000000E+00 0. -1.
         -1   -1    0    0    0  501 -0.00000000000E+00 -0.00000000000E+00 -0.16611375624E+02  0.16611375624E+02  0.00000000000E+00 0.  1.
         23    2    1    2    0    0  0.50716365030E+02 -0.44812068200E+01  0.39114546260E+03  0.41380537402E+03  0.12509150153E+03 0.  0.
          5    1    3    3  502    0  0.37348880983E+02  0.58380302756E+02  0.17503699995E+03  0.18830460008E+03  0.41800000000E+01 0. -1.
         -5    1    3    3    0  502  0.13367484046E+02 -0.62861509576E+02  0.21610846265E+03  0.22550077394E+03  0.41800000000E+01 0. -1.
        -11    1    1    2    0    0 -0.54601267036E+02 -0.33960428340E+02  0.37556730366E+03  0.38103203098E+03  0.00000000000E+00 0. -1.
         11    1    1    2    0    0  0.38849020063E+01  0.38441635160E+02  0.14386314772E+03  0.14896126023E+03  0.00000000000E+00 0.  1.
</event>
<event>
 7    1  0.8653652E-006  0.1093449E+03  0.7561462E-02  0.1261788E+00
          2   -1    0    0  501    0  0.00000000000E+00  0.00000000000E+00  0.80047183510E+02  0.80047183510E+02  0.00000000000E+00 0.  1.
         -2   -1    0    0    0  501 -0.00000000000E+00 -0.00000000000E+00 -0.23408581633E+03  0.23408581633E+03  0.00000000000E+00 0. -1.
         23    2    1    2    0    0 -0.40529314283E+02  0.69503722692E+02 -0.64556012101E+02  0.16213454259E+03  0.12508692344E+03 0.  0.
          5    1    3    3  502    0  0.71385130650E+01 -0.20523259481E+02 -0.55536811677E+02  0.59782709873E+02  0.41800000000E+01 0.  1.
         -5    1    3    3    0  502 -0.47667827348E+02  0.90026982174E+02 -0.90192004234E+01  0.10235183271E+03  0.41800000000E+01 0.  1.
        -11    1    1    2    0    0  0.47755596959E+02 -0.34620203442E+02 -0.36854321983E+01  0.59099390334E+02  0.00000000000E+00 0.  1.
         11    1    1    2    0    0 -0.72262826768E+01 -0.34883519250E+02 -0.85797188526E+02  0.92899066925E+02  0.00000000000E+00 0. -1.
</event>
<event>
 7    1  0.8653652E-006  0.1062476E+03  0.7561462E-02  0.1267681E+00
         -4   -1    0    0    0  501 -0.00000000000E+00  0.00000000000E+00  0.17122152896E+03  0.17122152896E+03  0.00000000000E+00 0.  1.
          4   -1    0    0  501    0  0.00000000000E+00 -0.00000000000E+00 -0.12111402435E+03  0.12111402435E+03  0.00000000000E+00 0. -1.
         23    2    1    2    0    0  0.11551657742E+02  0.36744826505E+02  0.23570711233E+02  0.13298991725E+03  0.12508843508E+03 0.  0.
          5    1    3    3  502    0 -0.47280771173E+02  0.12948327370E+02 -0.22853649632E+02  0.54248430446E+02  0.41800000000E+01 0.  1.
         -5    1    3    3    0  502  0.58832428915E+02  0.23796499136E+02  0.46424360865E+02  0.78741486809E+02  0.41800000000E+01 0.  1.
        -11    1    1    2    0    0  0.24390058303E+02  0.20661815158E+02  0.71315480785E+02  0.78151668884E+02  0.00000000000E+00 0.  1.
         11    1    1    2    0    0 -0.35941716045E+02 -0.57406641664E+02 -0.44778687409E+02  0.81193967174E+02  0.00000000000E+00 0. -1.
</event>
<event>
 7    1  0.8653652E-006  0.1125836E+03  0.7561462E-02  0.1255859E+00
         -1   -1    0    0    0  501 -0.00000000000E+00  0.00000000000E+00  0.51017081496E+02  0.51017081496E+02  0.00000000000E+00 0.  1.
          1   -1    0    0  501    0  0.00000000000E+00 -0.00000000000E+00 -0.52806923338E+03  0.52806923338E+03  0.00000000000E+00 0. -1.
         23    2    1    2    0    0 -0.44443183794E+02 -0.44835617566E+02 -0.47635089747E+02  0.13558185036E+03  0.11012677778E+03 0.  0.
          5    1    3    3  502    0 -0.21850837825E+02  0.36196811159E+02 -0.12192580110E+02  0.44201806089E+02  0.41800000000E+01 0. -1.
         -5    1    3    3    0  502 -0.22592345969E+02 -0.81032428725E+02 -0.35442509637E+02  0.91380044270E+02  0.41800000000E+01 0.  1.
        -11    1    1    2    0    0 -0.20947392371E+02  0.18540523960E+02 -0.47390185744E+02  0.55030664004E+02  0.00000000000E+00 0.  1.
         11    1    1    2    0    0  0.65390576165E+02  0.26295093606E+02 -0.38202687639E+03  0.38847380051E+03  0.00000000000E+00 0. -1.
</event>
<event>
 7    1  0.8653652E-006  0.1509164E+03  0.7561462E-02  0.1199351E+00
         -1   -1    0    0    0  501 -0.00000000000E+00  0.00000000000E+00  0.66723860027E+02  0.66723860027E+02  0.00000000000E+00 0.  1.
          1   -1    0    0  501    0  0.00000000000E+00 -0.00000000000E+00 -0.35959538832E+03  0.35959538832E+03  0.00000000000E+00 0. -1.
         23    2    1    2    0    0 -0.11007648381E+03  0.22859125225E+01 -0.13488362253E+03  0.21438898801E+03  0.12508792455E+03 0.  0.
          5    1    3    3  502    0 -0.73968882405E+02  0.62075126802E+02 -0.76859869766E+02  0.12348938785E+03  0.41800000000E+01 0. -1.
         -5    1    3    3    0  502 -0.36107601403E+02 -0.59789214279E+02 -0.58023752768E+02  0.90899600156E+02  0.41800000000E+01 0. -1.
        -11    1    1    2    0    0  0.77947805233E+02 -0.38380039307E+02 -0.70113129479E+02  0.11164559411E+03  0.00000000000E+00 0.  1.
         11    1    1    2    0    0  0.32128678574E+02  0.36094126784E+02 -0.87874776279E+02  0.10028466623E+03  0.00000000000E+00 0. -1.
</event>
<event>
 7    1  0.8653652E-006  0.1833317E+03  0.7561462E-02  0.1164617E+00
         -2   -1    0    0    0  501 -0.00000000000E+00  0.00000000000E+00  0.19791660958E+03  0.19791660958E+03  0.00000000000E+00 0.  1.
          2   -1    0    0  501    0  0.00000000000E+00 -0.00000000000E+00 -0.18903841702E+03  0.18903841702E+03  0.00000000000E+00 0. -1.
         23    2    1    2    0    0 -0.15261044860E+03  0.31749445436E+02  0.38804731823E+02  0.20360243202E+03  0.12510062671E+03 0.  0.
          5    1    3    3  502    0 -0.12247035849E+02 -0.39813572273E+02  0.13419535068E+02  0.43962105792E+02  0.41800000000E+01 0. -1.
         -5    1    3    3    0  502 -0.14036341275E+03  0.71563017709E+02  0.25385196754E+02  0.15964032623E+03  0.41800000000E+01 0. -1.
        -11    1    1    2    0    0  0.84970459617E+02  0.13182053735E+02 -0.50318521809E+02  0.99627803274E+02  0.00000000000E+00 0. -1.
         11    1    1    2    0    0  0.67639988986E+02 -0.44931499172E+02  0.20391982547E+02  0.83724791311E+02  0.00000000000E+00 0.  1.
</event>
<event>
 7    1  0.8653652E-006  0.2015551E+03  0.7561462E-02  0.1148434E+00
         -1   -1    0    0    0  501 -0.00000000000E+00  0.00000000000E+00  0.11479091916E+03  0.11479091916E+03  0.00000000000E+00 0.  1.
          1   -1    0    0  501    0  0.00000000000E+00 -0.00000000000E+00 -0.55928060600E+03  0.55928060600E+03  0.00000000000E+00 0. -1.
         23    2    1    2    0    0 -0.49062630694E+02  0.16218331796E+03 -0.24571431274E+02  0.21204071080E+03  0.12508771900E+03 0.  0.
          5    1    3    3  502    0 -0.46082400061E+02 -0.19864785703E+01 -0.35330481309E+01  0.46448773090E+02  0.41800000000E+01 0. -1.
         -5    1    3    3    0  502 -0.29802306325E+01  0.16416979653E+03 -0.21038383143E+02  0.16559193771E+03  0.41800000000E+01 0. -1.
        -11    1    1    2    0    0 -0.16582272354E+02 -0.10247635654E+03 -0.23616318874E+03  0.25797175644E+03  0.00000000000E+00 0.  1.
         11    1    1    2    0    0  0.65644903048E+02 -0.59706961420E+02 -0.18375506682E+03  0.20405905793E+03  0.00000000000E+00 0. -1.
</event>
<event>
 7    1  0.8653652E-006  0.1066167E+03  0.7561462E-02  0.1266967E+00
          2   -1    0    0  501    0  0.00000000000E+00  0.00000000000E+00  0.49308479028E+03  0.49308479028E+03  0.00000000000E+00 0. -1.
         -2   -1    0    0    0  501 -0.00000000000E+00 -0.00000000000E+00 -0.25222978724E+02  0.25222978724E+02  0.00000000000E+00 0.  1.
         23    2    1    2    0    0  0.22033265378E+02  0.82102343710E+01  0.29483658872E+03  0.32113655465E+03  0.12508876828E+03 0.  0.
          5    1    3    3  502    0  0.63995083689E+02 -0.24961056450E+02  0.20772833097E+03  0.21883088668E+03  0.41800000000E+01 0. -1.
         -5    1    3    3    0  502 -0.41961818311E+02  0.33171290821E+02  0.87108257745E+02  0.10230566797E+03  0.41800000000E+01 0. -1.
        -11    1    1    2    0    0  0.32770451398E+02  0.77657704649E+01  0.92697002430E+02  0.98625270267E+02  0.00000000000E+00 0. -1.
         11    1    1    2    0    0 -0.54803716776E+02 -0.15976004836E+02  0.80328220409E+02  0.98545944093E+02  0.00000000000E+00 0.  1.
</event>
<event>
 7    1  0.8653652E-006  0.3184920E+03  0.7561462E-02  0.1076345E+00
          2   -1    0    0  501    0  0.00000000000E+00  0.00000000000E+00  0.18071011374E+04  0.18071011374E+04  0.00000000000E+00 0.  1.
         -2   -1    0    0    0  501 -0.00000000000E+00 -0.00000000000E+00 -0.63163233257E+02  0.63163233257E+02  0.00000000000E+00 0. -1.
         23    2    1    2    0    0  0.25578065532E+03 -0.18362079852E+03  0.72009566095E+03  0.79582278867E+03  0.12512317435E+03 0.  0.
          5    1    3    3  502    0  0.80078561597E+02 -0.52530261018E+02  0.10193435013E+03  0.13992886938E+03  0.41800000000E+01 0.  1.
         -5    1    3    3    0  502  0.17570209373E+03 -0.13109053750E+03  0.61816131082E+03  0.65589391929E+03  0.41800000000E+01 0.  1.
        -11    1    1    2    0    0 -0.76629520885E+02  0.94820990840E+02  0.47203148785E+03  0.48752110651E+03  0.00000000000E+00 0.  1.
         11    1    1    2    0    0 -0.17915113444E+03  0.88799807680E+02  0.55181075533E+03  0.58692047546E+03  0.00000000000E+00 0. -1.
</event>
<event>
 7    1  0.8653652E-006  0.1296345E+03  0.7561462E-02  0.1227999E+00
         -1   -1    0    0    0  501 -0.00000000000E+00  0.00000000000E+00  0.22830639885E+02  0.22830639885E+02  0.00000000000E+00 0.  1.
          1   -1    0    0  501    0  0.00000000000E+00 -0.00000000000E+00 -0.11808574973E+04  0.11808574973E+04  0.00000000000E+00 0. -1.
         23    2    1    2    0    0  0.53484483793E+02  0.11278722236E+03 -0.53858011340E+03  0.56683118426E+03  0.12508998905E+03 0.  0.
          5    1    3    3  502    0  0.39161208973E+02  0.10710715600E+03 -0.21986854843E+03  0.24771999141E+03  0.41800000000E+01 0. -1.
         -5    1    3    3    0  502  0.14323274821E+02  0.56800663589E+01 -0.31871156497E+03  0.31911119285E+03  0.41800000000E+01 0. -1.
        -11    1    1    2    0    0 -0.28428266116E+02 -0.93029749709E+02 -0.56835539284E+03  0.57661993827E+03  0.00000000000E+00 0. -1.
         11    1    1    2    0    0 -0.25056217677E+02 -0.19757472650E+02 -0.51091351194E+02  0.60237014672E+02  0.00000000000E+00 0.  1.
</event>
<event>
 6    1  0.8653652E-006  0.1060130E+03  0.7561462E-02  0.1268137E+00
          1   -1    0    0  501    0  0.00000000000E+00  0.00000000000E+00  0.10474219049E+03  0.10474219049E+03  0.00000000000E+00 0. -1.
         -1   -1    0    0    0  501 -0.00000000000E+00 -0.00000000000E+00 -0.19029354318E+03  0.19029354318E+03  0.00000000000E+00 0.  1.
          5    1    1    2  502    0  0.62874174551E+02 -0.39483509600E+02 -0.10151990333E+03  0.12584066326E+03  0.41800000000E+01 0. -1.
         -5    1    1    2    0  502  0.35763100399E+01  0.48847498808E+02  0.23490372574E+02  0.54480621664E+02  0.41800000000E+01 0.  1.
        -11    1    1    2    0    0 -0.77208438561E+02 -0.91473223706E+01 -0.34956302974E+02  0.85245290833E+02  0.00000000000E+00 0.  1.
         11    1    1    2    0    0  0.10757953971E+02 -0.21666683714E+00  0.27434481041E+02  0.29469157914E+02  0.00000000000E+00 0. -1.
</event>
<event>
 7    1  0.8653652E-006  0.9771490E+02  0.7561462E-02  0.1285176E+00
         -2   -1    0    0    0  501 -0.00000000000E+00  0.00000000000E+00  0.10679553710E+03  0.10679553710E+03  0.00000000000E+00 0.  1.
          2   -1    0    0  501    0  0.00000000000E+00 -0.00000000000E+00 -0.16382192216E+03  0.16382192216E+03  0.00000000000E+00 0. -1.
         23    2    1    2    0    0 -0.54884828983E+02  0.42458240710E+02 -0.43813899674E+01  0.14311939481E+03  0.12509563516E+03 0.  0.
          5    1    3    3  502    0 -0.80185655018E+02  0.48166083670E+01  0.30211565113E+02  0.85925258530E+02  0.41800000000E+01 0.  1.
         -5    1    3    3    0  502  0.25300826034E+02  0.37641632343E+02 -0.34592955081E+02  0.57194136279E+02  0.41800000000E+01 0.  1.
        -11    1    1    2    0    0  0.18026135258E+02 -0.15584250997E+02 -0.73554905647E+02  0.77318397398E+02  0.00000000000E+00 0. -1.
         11    1    1    2    0    0  0.36858693725E+02 -0.26873989712E+02  0.20909910556E+02  0.50179667054E+02  0.00000000000E+00 0.  1.
</event>
<event>
 7    1  0.8653652E-006  0.1052792E+03  0.7561462E-02  0.1269570E+00
         -2   -1    0    0    0  501 -0.00000000000E+00  0.00000000000E+00  0.80907567306E+02  0.80907567306E+02  0.00000000000E+00 0.  1.
          2   -1    0    0  501    0  0.00000000000E+00 -0.00000000000E+00 -0.38866883216E+03  0.38866883216E+03  0.00000000000E+00 0. -1.
         23    2    1    2    0    0 -0.57206939267E+02 -0.53326788242E+02 -0.93258955134E+01  0.14782291538E+03  0.12509301236E+03 0.  0.
          5    1    3    3  502    0 -0.67718518741E+02 -0.72223487420E+02 -0.42647253758E+02  0.10788090920E+03  0.41800000000E+01 0.  1.
         -5    1    3    3    0  502  0.10511579474E+02  0.18896699178E+02  0.33321358245E+02  0.39942006186E+02  0.41800000000E+01 0.  1.
        -11    1    1    2    0    0  0.40904874949E+02  0.85497125252E+01 -0.36395552273E+02  0.55416086149E+02  0.00000000000E+00 0.  1.
         11    1    1    2    0    0  0.16302064318E+02  0.44777075717E+02 -0.26203981707E+03  0.26633739794E+03  0.00000000000E+00 0. -1.
</event>
<event>
 7    1  0.8653652E-006  0.2355270E+03  0.7561462E-02  0.1122809E+00
         -2   -1    0    0    0  501 -0.00000000000E+00  0.00000000000E+00  0.10548979594E+03  0.10548979594E+03  0.00000000000E+00 0.  1.
          2   -1    0    0  501    0  0.00000000000E+00 -0.00000000000E+00 -0.80204484057E+03  0.80204484057E+03  0.00000000000E+00 0. -1.
         23    2    1    2    0    0  0.19123075059E+03 -0.13081879163E+03 -0.14112256934E+03  0.29874106047E+03  0.12509150819E+03 0.  0.
          5    1    3    3  502    0  0.12778097403E+03 -0.10581661964E+03 -0.30530295324E+02  0.16874449812E+03  0.41800000000E+01 0.  1.
         -5    1    3    3    0  502  0.63449776560E+02 -0.25002171995E+02 -0.11059227402E+03  0.12999656235E+03  0.41800000000E+01 0.  1.
        -11    1    1    2    0    0 -0.13496388051E+03  0.11750234933E+03 -0.32279470142E+03  0.36907786496E+03  0.00000000000E+00 0.  1.
         11    1    1    2    0    0 -0.56266870073E+02  0.13316442306E+02 -0.23263777388E+03  0.23971571108E+03  0.00000000000E+00 0. -1.
</event>
<event>
 7    1  0.8653652E-006  0.1095243E+03  0.7561462E-02  0.1261453E+00
          2   -1    0    0  501    0  0.00000000000E+00  0.00000000000E+00  0.31201918345E+03  0.31201918345E+03  0.00000000000E+00 0. -1.
         -2   -1    0    0    0  501 -0.00000000000E+00 -0.00000000000E+00 -0.53084055169E+02  0.53084055169E+02  0.00000000000E+00 0.  1.
         23    2    1    2    0    0 -0.34773301712E+02 -0.44660630607E+02  0.12329041648E+03  0.18453176690E+03  0.12509073410E+03 0.  0.
          5    1    3    3  502    0 -0.15810094335E+02  0.31181841664E+02 -0.36418284125E+01  0.35397763300E+02  0.41800000000E+01 0.  1.
         -5    1    3    3    0  502 -0.18963207378E+02 -0.75842472271E+02  0.12693224490E+03  0.14913400360E+03  0.41800000000E+01 0.  1.
        -11    1    1    2    0    0  0.40291613710E+01 -0.27143357720E+02  0.43273277008E+01  0.27779880754E+02  0.00000000000E+00 0.  1.
         11    1    1    2    0    0  0.30744140341E+02  0.71803988327E+02  0.13131738410E+03  0.15279159097E+03  0.00000000000E+00 0. -1.
</event>
<event>
 7    1  0.1483499E-005  0.1339043E+03  0.7561462E-02  0.1221775E+00
          2   -1    0    0  501    0  0.00000000000E+00  0.00000000000E+00  0.69284158864E+03  0.69284158864E+03  0.00000000000E+00 0. -1.
         -2   -1    0    0    0  501 -0.00000000000E+00 -0.00000000000E+00 -0.32457098590E+02  0.32457098590E+02  0.00000000000E+00 0.  1.
         23    2    1    2    0    0  0.14501850864E+02 -0.97108229881E+02  0.27806646256E+03  0.32032640839E+03  0.12509092022E+03 0.  0.
          5    1    3    3  502    0  0.54755808202E+02 -0.26280999722E+01  0.11676893405E+03  0.12906417706E+03  0.41800000000E+01 0. -1.
         -5    1    3    3    0  502 -0.40253957338E+02 -0.94480129909E+02  0.16129752851E+03  0.19126223133E+03  0.41800000000E+01 0. -1.
        -11    1    1    2    0    0  0.15913400152E+02  0.59963133701E+02  0.32179268372E+03  0.32771839284E+03  0.00000000000E+00 0. -1.
         11    1    1    2    0    0 -0.30415251016E+02  0.37145096180E+02  0.60525343772E+02  0.77253886008E+02  0.00000000000E+00 0.  1.
</event>
<event>
 7    1  0.8653652E-006  0.1719181E+03  0.7561462E-02  0.1175862E+00
          2   -1    0    0  501    0  0.00000000000E+00  0.00000000000E+00  0.40940959817E+03  0.40940959817E+03  0.00000000000E+00 0.  1.
         -2   -1    0    0    0  501 -0.00000000000E+00 -0.00000000000E+00 -0.91016901626E+02  0.91016901626E+02  0.00000000000E+00 0. -1.
         23    2    1    2    0    0  0.82251501501E+02  0.11803097585E+03  0.78150102495E+02  0.20603768048E+03  0.12508983372E+03 0.  0.
          5    1    3    3  502    0  0.98255149453E+02  0.13319207836E+03  0.79288677363E+02  0.18357116029E+03  0.41800000000E+01 0. -1.
         -5    1    3    3    0  502 -0.16003647951E+02 -0.15161102507E+02 -0.11385748676E+01  0.22466520196E+02  0.41800000000E+01 0. -1.
        -11    1    1    2    0    0 -0.90408826273E+02 -0.93847368363E+02  0.23442910832E+03  0.26821277234E+03  0.00000000000E+00 0.  1.
         11    1    1    2    0    0  0.81573247719E+01 -0.24183607490E+02  0.58134857226E+01  0.26176046969E+02  0.00000000000E+00 0. -1.
</event>
<event>
 7    1  0.8653652E-006  0.1010183E+03  0.7561462E-02  0.1278169E+00
          2   -1    0    0  501    0  0.00000000000E+00  0.00000000000E+00  0.35966755195E+03  0.35966755195E+03  0.00000000000E+00 0. -1.
         -2   -1    0    0    0  501 -0.00000000000E+00 -0.00000000000E+00 -0.39455514252E+02  0.39455514252E+02  0.00000000000E+00 0.  1.
         23    2    1    2    0    0 -0.15965327563E+02 -0.26846167806E+02  0.11649035348E+03  0.17376378814E+03  0.12509293826E+03 0.  0.
          5    1    3    3  502    0 -0.68144630168E+02 -0.20744139404E+02  0.42930201128E+02  0.83273552280E+02  0.41800000000E+01 0.  1.
         -5    1    3    3    0  502  0.52179302606E+02 -0.61020284024E+01  0.73560152357E+02  0.90490235859E+02  0.41800000000E+01 0.  1.
        -11    1    1    2    0    0 -0.22369123027E+01  0.49145285718E+02  0.54639969959E+02  0.73524072263E+02  0.00000000000E+00 0.  1.
         11    1    1    2    0    0  0.18202239865E+02 -0.22299117912E+02  0.14908171426E+03  0.15183520580E+03  0.00000000000E+00 0. -1.
</event>
<event>
 7    1  0.8653652E-006  0.1161409E+03  0.7561462E-02  0.1249603E+00
          2   -1    0    0  501    0  0.00000000000E+00  0.00000000000E+00  0.19143539810E+03  0.19143539810E+03  0.00000000000E+00 0. -1.
         -2   -1    0    0    0  501 -0.00000000000E+00 -0.00000000000E+00 -0.10896509951E+03  0.10896509951E+03  0.00000000000E+00 0.  1.
         23    2    1    2    0    0 -0.13375269478E+02 -0.69570729434E+02 -0.21212651809E+02  0.14530872224E+03  0.12508262842E+03 0.  0.
          5    1    3    3  502    0  0.19541870274E+01 -0.10349333048E+03 -0.29586166073E+01  0.10363838147E+03  0.41800000000E+01 0.  1.
         -5    1    3    3    0  502 -0.15329456505E+02  0.33922601047E+02 -0.18254035201E+02  0.41670340768E+02  0.41800000000E+01 0.  1.
        -11    1    1    2    0    0  0.33229877366E+02  0.22475846431E+02  0.69935119158E+00  0.40123278962E+02  0.00000000000E+00 0.  1.
         11    1    1    2    0    0 -0.19854607888E+02  0.47094883003E+02  0.10298359921E+03  0.11496849641E+03  0.00000000000E+00 0. -1.
</event>
<event>
 7    1  0.8653652E-006  0.1206727E+03  0.7561462E-02  0.1241991E+00
         -2   -1    0    0    0  501 -0.00000000000E+00  0.00000000000E+00  0.20687145836E+03  0.20687145836E+03  0.00000000000E+00 0.  1.
          2   -1    0    0  501    0  0.00000000000E+00 -0.00000000000E+00 -0.10673122545E+03  0.10673122545E+03  0.00000000000E+00 0. -1.
         23    2    1    2    0    0 -0.56752444413E+02  0.68433339554E+02  0.10499045553E+03  0.18593893114E+03  0.12508528472E+03 0.  0.
          5    1    3    3  502    0 -0.31135434815E+02 -0.86732362546E+01 -0.18936671913E+02  0.37692310507E+02  0.41800000000E+01 0.  1.
         -5    1    3    3    0  502 -0.25617009598E+02  0.77106575808E+02  0.12392712744E+03  0.14824662064E+03  0.41800000000E+01 0.  1.
        -11    1    1    2    0    0 -0.13514720959E+02 -0.53996849782E+02  0.11890929367E+01  0.55675141769E+02  0.00000000000E+00 0.  1.
         11    1    1    2    0    0  0.70267165372E+02 -0.14436489772E+02 -0.60393155629E+01  0.71988610897E+02  0.00000000000E+00 0. -1.
</event>
<event>
 7    1  0.8653652E-006  0.1020339E+03  0.7561462E-02  0.1276076E+00
          2   -1    0    0  501    0  0.00000000000E+00  0.00000000000E+00  0.37940528359E+03  0.37940528359E+03  0.00000000000E+00 0. -1.
         -2   -1    0    0    0  501 -0.00000000000E+00 -0.00000000000E+00 -0.30475359464E+02  0.30475359464E+02  0.00000000000E+00 0.  1.
         23    2    1    2    0    0 -0.74291505272E+01  0.11907615923E+02  0.17000446371E+03  0.21153361670E+03  0.12509184515E+03 0.  0.
          5    1    3    3  502    0  0.43476289834E+02 -0.30691539052E+02  0.44508563926E+02  0.69502827351E+02  0.41800000000E+01 0.  1.
         -5    1    3    3    0  502 -0.50905440361E+02  0.42599154975E+02  0.12549589978E+03  0.14203078935E+03  0.41800000000E+01 0.  1.
        -11    1    1    2    0    0  0.89040050230E+01  0.35574155296E+02  0.60465730050E+02  0.70717086626E+02  0.00000000000E+00 0.  1.
         11    1    1    2    0    0 -0.14748544958E+01 -0.47481771219E+02  0.11845973037E+03  0.12762993972E+03  0.00000000000E+00 0. -1.
</event>
<event>
 7    1  0.8653652E-006  0.1202438E+03  0.7561462E-02  0.1242695E+00
          1   -1    0    0  501    0  0.00000000000E+00  0.00000000000E+00  0.73674045853E+03  0.73674045853E+03  0.00000000000E+00 0. -1.
         -1   -1    0    0    0  501 -0.00000000000E+00 -0.00000000000E+00 -0.22915605633E+02  0.22915605633E+02  0.00000000000E+00 0.  1.
         23    2    1    2    0    0  0.24619122642E+02 -0.72353783777E+02  0.36134652377E+03  0.38994542071E+03  0.12507977322E+03 0.  0.
          5    1    3    3  502    0 -0.39668560747E+02 -0.50668153712E+02  0.93314009756E+02  0.11342765681E+03  0.41800000000E+01 0.  1.
         -5    1    3    3    0  502  0.64287683388E+02 -0.21685630065E+02  0.26803251401E+03  0.27651776390E+03  0.41800000000E+01 0.  1.
        -11    1    1    2    0    0 -0.37119317922E+02  0.26526313873E+01  0.80846703643E+02  0.89000391607E+02  0.00000000000E+00 0.  1.
         11    1    1    2    0    0  0.12500195280E+02  0.69701152390E+02  0.27163162549E+03  0.28071025185E+03  0.00000000000E+00 0. -1.
</event>
<event>
 6    1  0.8653652E-006  0.9952674E+02  0.7561462E-02  0.1281294E+00
         -3   -1    0    0    0  501 -0.00000000000E+00  0.00000000000E+00  0.44029125392E+02  0.44029125392E+02  0.00000000000E+00 0.  1.
          3   -1    0    0  501    0  0.00000000000E+00 -0.00000000000E+00 -0.35483456891E+03  0.35483456891E+03  0.00000000000E+00 0. -1.
          5    1    1    2  502    0  0.32577962963E+02  0.52403460717E+02 -0.12841683703E+03  0.14253351465E+03  0.41800000000E+01 0. -1.
         -5    1    1    2    0  502 -0.49075056811E+02 -0.62617012425E+02 -0.49012377759E+02  0.93535752628E+02  0.41800000000E+01 0.  1.
        -11    1    1    2    0    0 -0.16506741574E+02  0.17164118551E+02 -0.12605054674E+03  0.12828023938E+03  0.00000000000E+00 0.  1.
         11    1    1    2    0    0  0.33003835422E+02 -0.69505668429E+01 -0.73256819922E+01  0.34514187643E+02  0.00000000000E+00 0. -1.
</event>
<event>
 7    1  0.8653652E-006  0.1100141E+03  0.7561462E-02  0.1260544E+00
         -1   -1    0    0    0  501 -0.00000000000E+00  0.00000000000E+00  0.20820795878E+02  0.20820795878E+02  0.00000000000E+00 0.  1.
          1   -1    0    0  501    0  0.00000000000E+00 -0.00000000000E+00 -0.87985109699E+03  0.87985109699E+03  0.00000000000E+00 0. -1.
         23    2    1    2    0    0  0.24285079558E+02 -0.76008223624E+02 -0.43933222286E+03  0.46371047075E+03  0.12509030136E+03 0.  0.
          5    1    3    3  502    0  0.44151979723E+02 -0.41734973549E+02 -0.72332121121E+02  0.94554817309E+02  0.41800000000E+01 0.  1.
         -5    1    3    3    0  502 -0.19866900165E+02 -0.34273250075E+02 -0.36700010174E+03  0.36915565344E+03  0.41800000000E+01 0.  1.
        -11    1    1    2    0    0 -0.54704088563E+02  0.25550878409E+02 -0.25474227024E+03  0.26179955871E+03  0.00000000000E+00 0.  1.
         11    1    1    2    0    0  0.30419009005E+02  0.50457345215E+02 -0.16495580800E+03  0.17516186340E+03  0.00000000000E+00 0. -1.
</event>
<event>
 7    1  0.8653652E-006  0.1149492E+03  0.7561462E-02  0.1251670E+00
          4   -1    0    0  501    0  0.00000000000E+00  0.00000000000E+00  0.92665973038E+02  0.92665973038E+02  0.00000000000E+00 0.  1.
         -4   -1    0    0    0  501 -0.00000000000E+00 -0.00000000000E+00 -0.24144529518E+03  0.24144529518E+03  0.00000000000E+00 0. -1.
         23    2    1    2    0    0 -0.36907114648E+02 -0.71304224541E+02 -0.15271595050E+03  0.21311100949E+03  0.12509082012E+03 0.  0.
          5    1    3    3  502    0 -0.80535408738E+02 -0.24178677001E+02 -0.90302463324E+02  0.12346079444E+03  0.41800000000E+01 0.  1.
         -5    1    3    3    0  502  0.43628294091E+02 -0.47125547540E+02 -0.62413487181E+02  0.89650215049E+02  0.41800000000E+01 0.  1.
        -11    1    1    2    0    0  0.10106092563E+02  0.33639638717E+02  0.46423672351E+02  0.58214394735E+02  0.00000000000E+00 0.  1.
         11    1    1    2    0    0  0.26801022085E+02  0.37664585824E+02 -0.42487043984E+02  0.62785863987E+02  0.00000000000E+00 0. -1.
</event>
<event>
 7    1  0.8653652E-006  0.1102215E+03  0.7561462E-02  0.1260160E+00
          2   -1    0    0  501    0  0.00000000000E+00  0.00000000000E+00  0.13920479287E+02  0.13920479287E+02  0.00000000000E+00 0. -1.
         -2   -1    0    0    0  501 -0.00000000000E+00 -0.00000000000E+00 -0.98829116131E+03  0.98829116131E+03  0.00000000000E+00 0.  1.
         23    2    1    2    0    0 -0.45364396727E+02 -0.29662002353E+01 -0.59052752428E+03  0.60534070141E+03  0.12509149057E+03 0.  0.
          5    1    3    3  502    0 -0.78890867157E+02  0.20996963772E+02 -0.26871495075E+03  0.28087334969E+03  0.41800000000E+01 0. -1.
         -5    1    3    3    0  502  0.33526470430E+02 -0.23963164007E+02 -0.32181257353E+03  0.32446735172E+03  0.41800000000E+01 0. -1.
        -11    1    1    2    0    0  0.65421051817E+02  0.22595877323E+02 -0.31525507441E+03  0.32276345771E+03  0.00000000000E+00 0.  1.
         11    1    1    2    0    0 -0.20056655090E+02 -0.19629677087E+02 -0.68588083333E+02  0.74107481480E+02  0.00000000000E+00 0. -1.
</event>
<event>
 7    1  0.8653652E-006  0.1601444E+03  0.7561462E-02  0.1188534E+00
         -1   -1    0    0    0  501 -0.00000000000E+00  0.00000000000E+00  0.30956291132E+03  0.30956291132E+03  0.00000000000E+00 0. -1.
          1   -1    0    0  501    0  0.00000000000E+00 -0.00000000000E+00 -0.10635919882E+03  0.10635919882E+03  0.00000000000E+00 0.  1.
         23    2    1    2    0    0  0.10571801110E+03 -0.93226992040E+02  0.14541232959E+03  0.23807210680E+03  0.12516394259E+03 0.  0.
          5    1    3    3  502    0  0.89878051433E+02 -0.15414813654E+02  0.26558791328E+02  0.95071143920E+02  0.41800000000E+01 0.  1.
         -5    1    3    3    0  502  0.15839959663E+02 -0.77812178386E+02  0.11885353827E+03  0.14300096288E+03  0.41800000000E+01 0.  1.
        -11    1    1    2    0    0 -0.76272855207E+02  0.92686338786E+02  0.77073858727E+02  0.14264881892E+03  0.00000000000E+00 0. -1.
         11    1    1    2    0    0 -0.29445155889E+02  0.54065325444E+00 -0.19282475815E+02  0.35201184424E+02  0.00000000000E+00 0.  1.
</event>
<event>
 7    1  0.8653652E-006  0.1002022E+03  0.7561462E-02  0.1279871E+00
         -1   -1    0    0    0  501 -0.00000000000E+00  0.00000000000E+00  0.19402095576E+03  0.19402095576E+03  0.00000000000E+00 0.  1.
          1   -1    0    0  501    0  0.00000000000E+00 -0.00000000000E+00 -0.61590483135E+02  0.61590483135E+02  0.00000000000E+00 0. -1.
         23    2    1    2    0    0  0.86327276280E+01 -0.33467922117E+01  0.76728007187E+02  0.14705221961E+03  0.12510572810E+03 0.  0.
          5    1    3    3  502    0 -0.46601880921E+02 -0.31477121861E+02  0.60781833694E+02  0.82912292293E+02  0.41800000000E+01 0. -1.
         -5    1    3    3    0  502  0.55234608549E+02  0.28130329649E+02  0.15946173493E+02  0.64139927322E+02  0.41800000000E+01 0. -1.
        -11    1    1    2    0    0 -0.39771232436E+02  0.22138080032E+02  0.56029814700E+02  0.72188542389E+02  0.00000000000E+00 0.  1.
         11    1    1    2    0    0  0.31138504808E+02 -0.18791287820E+02 -0.32734926713E+00  0.36370676886E+02  0.00000000000E+00 0. -1.
</event>
<event>
 7    1  0.8653652E-006  0.9789132E+02  0.7561462E-02  0.1284794E+00
         -4   -1    0    0    0  501 -0.00000000000E+00  0.00000000000E+00  0.17683319465E+03  0.17683319465E+03  0.00000000000E+00 0.  1.
          4   -1    0    0  501    0  0.00000000000E+00 -0.00000000000E+00 -0.74419269318E+02  0.74419269318E+02  0.00000000000E+00 0. -1.
         23    2    1    2    0    0  0.11415589915E+02  0.55688137980E+02  0.11915906523E+03  0.18187397644E+03  0.12509107112E+03 0.  0.
          5    1    3    3  502    0  0.65880977040E+02  0.22953067070E+02  0.40900171198E+02  0.80978039169E+02  0.41800000000E+01 0. -1.
         -5    1    3    3    0  502 -0.54465387125E+02  0.32735070910E+02  0.78258894037E+02  0.10089593727E+03  0.41800000000E+01 0. -1.
        -11    1    1    2    0    0 -0.18375420145E+02 -0.26798384914E+02  0.45632014374E+01  0.32812075626E+02  0.00000000000E+00 0.  1.
         11    1    1    2    0    0  0.69598302298E+01 -0.28889753065E+02 -0.21308341337E+02  0.36566411904E+02  0.00000000000E+00 0. -1.
</event>
<event>
 7    1  0.8653652E-006  0.9869019E+02  0.7561462E-02  0.1283075E+00
          1   -1    0    0  501    0  0.00000000000E+00  0.00000000000E+00  0.23954044072E+03  0.23954044072E+03  0.00000000000E+00 0. -1.
         -1   -1    0    0    0  501 -0.00000000000E+00 -0.00000000000E+00 -0.62918157195E+02  0.62918157195E+02  0.00000000000E+00 0.  1.
         23    2    1    2    0    0 -0.20280955927E+02 -0.96338356390E+01  0.34045153533E+02  0.13156995247E+03  0.12508977556E+03 0.  0.
          5    1    3    3  502    0 -0.61431304321E+02  0.14174476667E+02  0.50712691663E+02  0.81018333944E+02  0.41800000000E+01 0.  1.
         -5    1    3    3    0  502  0.41150348394E+02 -0.23808312306E+02 -0.16667538130E+02  0.50551618521E+02  0.41800000000E+01 0.  1.
        -11    1    1    2    0    0  0.28909828059E+02 -0.32480287297E+02  0.37727590795E+02  0.57568379589E+02  0.00000000000E+00 0.  1.
         11    1    1    2    0    0 -0.86288721320E+01  0.42114122936E+02  0.10484953919E+03  0.11332026586E+03  0.00000000000E+00 0. -1.
</event>
<event>
 7    1  0.8653652E-006  0.1214478E+03  0.7561462E-02  0.1240728E+00
          2   -1    0    0  501    0  0.00000000000E+00  0.00000000000E+00  0.27756378581E+03  0.27756378581E+03  0.00000000000E+00 0. -1.
         -2   -1    0    0    0  501 -0.00000000000E+00 -0.00000000000E+00 -0.71845880828E+02  0.71845880828E+02  0.00000000000E+00 0.  1.
         23    2    1    2    0    0 -0.88267870333E+02 -0.31639146906E+01  0.96395228656E+02  0.18094597531E+03  0.12509267997E+03 0.  0.
          5    1    3    3  502    0  0.56002365221E+01 -0.48216362262E+02  0.26363283191E+02  0.55395625635E+02  0.41800000000E+01 0. -1.
         -5    1    3    3    0  502 -0.93868106855E+02  0.45052447571E+02  0.70031945465E+02  0.12555034967E+03  0.41800000000E+01 0. -1.
        -11    1    1    2    0    0  0.71598628454E+02  0.93186817209E+01  0.16642807439E+02  0.74095778996E+02  0.00000000000E+00 0.  1.
         11    1    1    2    0    0  0.16669241879E+02 -0.61547670303E+01  0.92679868882E+02  0.94367912332E+02  0.00000000000E+00 0. -1.
</event>
<event>
 7    1  0.8653652E-006  0.1516620E+03  0.7561462E-02  0.1198446E+00
         -2   -1    0    0    0  501 -0.00000000000E+00  0.00000000000E+00  0.49181158560E+02  0.49181158560E+02  0.00000000000E+00 0.  1.
          2   -1    0    0  501    0  0.00000000000E+00 -0.00000000000E+00 -0.58333707672E+03  0.58333707672E+03  0.00000000000E+00 0. -1.
         23    2    1    2    0    0  0.10126448397E+03 -0.42124267108E+02 -0.16593391262E+03  0.23682565903E+03  0.12854329942E+03 0.  0.
          5    1    3    3  502    0  0.12743067275E+03 -0.37449428737E+02 -0.16216335927E+03  0.20965558318E+03  0.41800000000E+01 0. -1.
         -5    1    3    3    0  502 -0.26166188780E+02 -0.46748383710E+01 -0.37705533500E+01  0.27170075849E+02  0.41800000000E+01 0.  1.
        -11    1    1    2    0    0 -0.27406734894E+02 -0.29766725290E+02 -0.81141485864E+02  0.90670434984E+02  0.00000000000E+00 0.  1.
         11    1    1    2    0    0 -0.73857749072E+02  0.71890992398E+02 -0.28708051968E+03  0.30502214127E+03  0.00000000000E+00 0. -1.
</event>
<event>
 7    1  0.8653652E-006  0.5167858E+02  0.7561462E-02  0.1436492E+00
          1   -1    0    0  501    0  0.00000000000E+00  0.00000000000E+00  0.51583693778E+02  0.51583693778E+02  0.00000000000E+00 0. -1.
         -1   -1    0    0    0  501 -0.00000000000E+00 -0.00000000000E+00 -0.44600826165E+03  0.44600826165E+03  0.00000000000E+00 0.  1.
         23    2    1    2    0    0  0.37589543344E+02  0.67026603576E+01 -0.37480635362E+03  0.39696996301E+03  0.12508976534E+03 0.  0.
          5    1    3    3  502    0  0.18861524925E+02  0.11559448161E+01 -0.37643229156E+03  0.37692948394E+03  0.41800000000E+01 0. -1.
         -5    1    3    3    0  502  0.18728018419E+02  0.55467155415E+01  0.16259379423E+01  0.20040479071E+02  0.41800000000E+01 0. -1.
        -11    1    1    2    0    0 -0.42478856725E+01  0.20538935266E+02 -0.45699872158E+02  0.50282906736E+02  0.00000000000E+00 0.  1.
         11    1    1    2    0    0 -0.33341657672E+02 -0.27241595624E+02  0.26081657905E+02  0.50339085684E+02  0.00000000000E+00 0. -1.
</event>
<event>
 7    1  0.8653652E-006  0.1092238E+03  0.7561462E-02  0.1262014E+00
          2   -1    0    0  501    0  0.00000000000E+00  0.00000000000E+00  0.63528336969E+03  0.63528336969E+03  0.00000000000E+00 0. -1.
         -2   -1    0    0    0  501 -0.00000000000E+00 -0.00000000000E+00 -0.41170404878E+02  0.41170404878E+02  0.00000000000E+00 0.  1.
         23    2    1    2    0    0 -0.56457286554E+02 -0.72869049564E+02  0.15235982517E+03  0.21761521722E+03  0.12508214442E+03 0.  0.
          5    1    3    3  502    0 -0.27712992833E+02 -0.19495178184E+02  0.15308446735E+03  0.15684514174E+03  0.41800000000E+01 0.  1.
         -5    1    3    3    0  502 -0.28744293721E+02 -0.53373871380E+02 -0.72464218480E+00  0.60770075481E+02  0.41800000000E+01 0.  1.
        -11    1    1    2    0    0  0.52807422613E+02  0.90910461244E+02  0.38943064159E+03  0.40337273143E+03  0.00000000000E+00 0. -1.
         11    1    1    2    0    0  0.36498639411E+01 -0.18041411681E+02  0.52322498047E+02  0.55465825912E+02  0.00000000000E+00 0.  1.
</event>
<event>
 7    1  0.8653652E-006  0.1032353E+03  0.7561462E-02  0.1273636E+00
         -3   -1    0    0    0  501 -0.00000000000E+00  0.00000000000E+00  0.39026622839E+03  0.39026622839E+03  0.00000000000E+00 0.  1.
          3   -1    0    0  501    0  0.00000000000E+00 -0.00000000000E+00 -0.34873608011E+02  0.34873608011E+02  0.00000000000E+00 0. -1.
         23    2    1    2    0    0  0.25358010768E+02 -0.23472166950E+02  0.25079600273E+03  0.28238427915E+03  0.12509306453E+03 0.  0.
          5    1    3    3  502    0  0.14065648838E+02 -0.69509616271E+02  0.20242882692E+03  0.21453282173E+03  0.41800000000E+01 0. -1.
         -5    1    3    3    0  502  0.11292361930E+02  0.46037449322E+02  0.48367175811E+02  0.67851457420E+02  0.41800000000E+01 0. -1.
        -11    1    1    2    0    0  0.29553813917E+02  0.54712842686E+01  0.68022760436E+02  0.74367054574E+02  0.00000000000E+00 0.  1.
         11    1    1    2    0    0 -0.54911824686E+02  0.18000882681E+02  0.36573857218E+02  0.68388502685E+02  0.00000000000E+00 0. -1.
</event>
<event>
 7    1  0.8653652E-006  0.1033060E+03  0.7561462E-02  0.1273493E+00
          1   -1    0    0  501    0  0.00000000000E+00  0.00000000000E+00  0.49215205518E+02  0.49215205518E+02  0.00000000000E+00 0.  1.
         -1   -1    0    0    0  501 -0.00000000000E+00 -0.00000000000E+00 -0.25151470821E+03  0.25151470821E+03  0.00000000000E+00 0. -1.
         23    2    1    2    0    0 -0.93719169636E+01 -0.24897439066E+00 -0.15758330158E+03  0.20141375328E+03  0.12508840178E+03 0.  0.
          5    1    3    3  502    0  0.56738213495E+02  0.73773117319E+01 -0.58091821154E+02  0.81644238523E+02  0.41800000000E+01 0.  1.
         -5    1    3    3    0  502 -0.66110130458E+02 -0.76262861226E+01 -0.99491480425E+02  0.11976951476E+03  0.41800000000E+01 0.  1.
        -11    1    1    2    0    0  0.37824046384E+02 -0.24323431511E+02 -0.60301992705E+01  0.45372360623E+02  0.00000000000E+00 0.  1.
         11    1    1    2    0    0 -0.28452129420E+02  0.24572405901E+02 -0.38686001841E+02  0.53943799818E+02  0.00000000000E+00 0. -1.
</event>
<event>
 7    1  0.8653652E-006  0.1058699E+03  0.7561462E-02  0.1268415E+00
          1   -1    0    0  501    0  0.00000000000E+00  0.00000000000E+00  0.91274137098E+02  0.91274137098E+02  0.00000000000E+00 0. -1.
         -1   -1    0    0    0  501 -0.00000000000E+00 -0.00000000000E+00 -0.14536510374E+03  0.14536510374E+03  0.00000000000E+00 0.  1.
         23    2    1    2    0    0 -0.31942498377E+02  0.19322938068E+02 -0.22058843763E+02  0.13239721257E+03  0.12509488467E+03 0.  0.
          5    1    3    3  502    0 -0.63413942283E+02 -0.22789048292E+02  0.13420846630E+02  0.68835022497E+02  0.41800000000E+01 0.  1.
         -5    1    3    3    0  502  0.31471443906E+02  0.42111986360E+02 -0.35479690393E+02  0.63562190075E+02  0.41800000000E+01 0.  1.
        -11    1    1    2    0    0  0.43355732498E+02  0.21999424267E+02 -0.36985839170E+02  0.61087204123E+02  0.00000000000E+00 0.  1.
         11    1    1    2    0    0 -0.11413234121E+02 -0.41322362335E+02  0.49537162875E+01  0.43154824146E+02  0.00000000000E+00 0. -1.
</event>
<event>
 7    1  0.8653652E-006  0.9370638E+02  0.7561462E-02  0.1294116E+00
          2   -1    0    0  501    0  0.00000000000E+00  0.00000000000E+00  0.28003054020E+03  0.28003054020E+03  0.00000000000E+00 0.  1.
         -2   -1    0    0    0  501 -0.00000000000E+00 -0.00000000000E+00 -0.45151102006E+02  0.45151102006E+02  0.00000000000E+00 0. -1.
         23    2    1    2    0    0 -0.18130463478E+02 -0.29453172169E+02  0.12856665939E+03  0.18267982051E+03  0.12508528234E+03 0.  0.
          5    1    3    3  502    0 -0.44353737637E+01 -0.71251801686E+02  0.11680565193E+03  0.13695811223E+03  0.41800000000E+01 0.  1.
         -5    1    3    3    0  502 -0.13695089714E+02  0.41798629516E+02  0.11761007465E+02  0.45721708283E+02  0.41800000000E+01 0.  1.
        -11    1    1    2    0    0 -0.22828761183E+02  0.18324299279E+02  0.93784925850E+02  0.98247364330E+02  0.00000000000E+00 0.  1.
         11    1    1    2    0    0  0.40959224661E+02  0.11128872890E+02  0.12527852950E+02  0.44254457359E+02  0.00000000000E+00 0. -1.
</event>
<event>
 7    1  0.8653652E-006  0.7841128E+02  0.7561462E-02  0.1333621E+00
         -1   -1    0    0    0  501 -0.00000000000E+00  0.00000000000E+00  0.27823125756E+03  0.27823125756E+03  0.00000000000E+00 0.  1.
          1   -1    0    0  501    0  0.00000000000E+00 -0.00000000000E+00 -0.49298897312E+02  0.49298897312E+02  0.00000000000E+00 0. -1.
         23    2    1    2    0    0 -0.39438355371E+02 -0.11577613470E+02  0.14287275567E+03  0.19429312440E+03  0.12509104231E+03 0.  0.
          5    1    3    3  502    0 -0.58401483411E+02  0.21088029109E+02  0.14336372709E+03  0.15628841570E+03  0.41800000000E+01 0. -1.
         -5    1    3    3    0  502  0.18963128041E+02 -0.32665642579E+02 -0.49097142062E+00  0.38004708697E+02  0.41800000000E+01 0. -1.
        -11    1    1    2    0    0 -0.12736191032E+01  0.15623921815E+02  0.90715927190E+02  0.92060352403E+02  0.00000000000E+00 0.  1.
         11    1    1    2    0    0  0.40711974474E+02 -0.40463083449E+01 -0.46563226139E+01  0.41176678072E+02  0.00000000000E+00 0. -1.
</event>
<event>
 7    1  0.8653652E-006  0.8991646E+02  0.7561462E-02  0.1303054E+00
         -2   -1    0    0    0  501 -0.00000000000E+00  0.00000000000E+00  0.28105266691E+02  0.28105266691E+02  0.00000000000E+00 0.  1.
          2   -1    0    0  501    0  0.00000000000E+00 -0.00000000000E+00 -0.48028770289E+03  0.48028770289E+03  0.00000000000E+00 0. -1.
         23    2    1    2    0    0  0.26025251142E+02  0.33523083868E+02 -0.28909721067E+03  0.31646285847E+03  0.12153366909E+03 0.  0.
          5    1    3    3  502    0  0.64619212644E+02  0.23048935736E+02 -0.25385656871E+03  0.26299719762E+03  0.41800000000E+01 0. -1.
         -5    1    3    3    0  502 -0.38593961501E+02  0.10474148132E+02 -0.35240641966E+02  0.53465660845E+02  0.41800000000E+01 0.  1.
        -11    1    1    2    0    0  0.16003213834E+02 -0.22194764677E+02 -0.14001951714E+03  0.14266806094E+03  0.00000000000E+00 0. -1.
         11    1    1    2    0    0 -0.42028464976E+02 -0.11328319191E+02 -0.23065708383E+02  0.49262050172E+02  0.00000000000E+00 0.  1.
</event>
<event>
 7    1  0.8653652E-006  0.9552460E+02  0.7561462E-02  0.1289999E+00
          1   -1    0    0  501    0  0.00000000000E+00  0.00000000000E+00  0.52943944702E+03  0.52943944702E+03  0.00000000000E+00 0. -1.
         -1   -1    0    0    0  501 -0.00000000000E+00 -0.00000000000E+00 -0.23846976297E+02  0.23846976297E+02  0.00000000000E+00 0.  1.
         23    2    1    2    0    0 -0.13807413588E+02 -0.25204073804E+02  0.29276392221E+03  0.31966367334E+03  0.12509300499E+03 0.  0.
          5    1    3    3  502    0  0.11506674714E+02 -0.69904770741E+02  0.12040666227E+03  0.13976522191E+03  0.41800000000E+01 0. -1.
         -5    1    3    3    0  502 -0.25314088302E+02  0.44700696937E+02  0.17235725994E+03  0.17989845143E+03  0.41800000000E+01 0. -1.
        -11    1    1    2    0    0  0.71820394683E+00 -0.20747818259E+02  0.63816833388E+01  0.21718970087E+02  0.00000000000E+00 0.  1.
         11    1    1    2    0    0  0.13089209641E+02  0.45951892062E+02  0.20644686518E+03  0.21190377990E+03  0.00000000000E+00 0. -1.
</event>
<event>
 7    1  0.8653652E-006  0.1127146E+03  0.7561462E-02  0.1255624E+00
         -2   -1    0    0    0  501 -0.00000000000E+00  0.00000000000E+00  0.90016688445E+02  0.90016688445E+02  0.00000000000E+00 0.  1.
          2   -1    0    0  501    0  0.00000000000E+00 -0.00000000000E+00 -0.21641500497E+03  0.21641500497E+03  0.00000000000E+00 0. -1.
         23    2    1    2    0    0 -0.71866414408E+02 -0.10096039459E+02 -0.16477716541E+02  0.14555183575E+03  0.12508840960E+03 0.  0.
          5    1    3    3  502    0  0.31648011192E+02 -0.20104981092E+02  0.81499856762E+01  0.38596651974E+02  0.41800000000E+01 0. -1.
         -5    1    3    3    0  502 -0.10351442560E+03  0.10008941633E+02 -0.24627702217E+02  0.10695518378E+03  0.41800000000E+01 0. -1.
        -11    1    1    2    0    0  0.21118119263E+02  0.23034536324E+02 -0.10350148189E+03  0.10811624105E+03  0.00000000000E+00 0. -1.
         11    1    1    2    0    0  0.50748295146E+02 -0.12938496865E+02 -0.64191180935E+01  0.52763616616E+02  0.00000000000E+00 0.  1.
</event>
<event>
 7    1  0.8653652E-006  0.1736041E+03  0.7561462E-02  0.1174141E+00
          2   -1    0    0  501    0  0.00000000000E+00  0.00000000000E+00  0.12777086701E+03  0.12777086701E+03  0.00000000000E+00 0. -1.
         -2   -1    0    0    0  501 -0.00000000000E+00 -0.00000000000E+00 -0.28878941078E+03  0.28878941078E+03  0.00000000000E+00 0.  1.
         23    2    1    2    0    0  0.13976439895E+03 -0.44172661636E+02 -0.14872754494E+03  0.24342390408E+03  0.12509997283E+03 0.  0.
          5    1    3    3  502    0  0.14913723018E+02 -0.63292400778E+02 -0.63582306615E+02  0.91041360079E+02  0.41800000000E+01 0. -1.
         -5    1    3    3    0  502  0.12485067594E+03  0.19119739142E+02 -0.85145238322E+02  0.15238254400E+03  0.41800000000E+01 0. -1.
        -11    1    1    2    0    0 -0.29362036202E+02  0.33817921692E+02 -0.38652462242E+02  0.59159055392E+02  0.00000000000E+00 0.  1.
         11    1    1    2    0    0 -0.11040236275E+03  0.10354739945E+02  0.26361463408E+02  0.11397731833E+03  0.00000000000E+00 0. -1.
</event>
