<event>
 7    1  0.2626349E-009  0.1287225E+03  0.7561462E-02  0.1229364E+00
         -1   -1    0    0    0  501 -0.00000000000E+00  0.00000000000E+00  0.51847894833E+02  0.51847894833E+02  0.00000000000E+00 0.  1.
          1   -1    0    0  501    0  0.00000000000E+00 -0.00000000000E+00 -0.49140425716E+03  0.49140425716E+03  0.00000000000E+00 0. -1.
         25    2    1    2    0    0  0.35691307105E+02  0.96604775202E+02 -0.14200501728E+03  0.21544960615E+03  0.12508699318E+03 0.  0.
          5    1    3    3  502    0 -0.39606537344E+01 -0.91073185764E+01  0.17159560749E+02  0.20262106375E+02  0.41800000000E+01 0. -1.
         -5    1    3    3    0  502  0.39651960840E+02  0.10571209378E+03 -0.15916457803E+03  0.19518749978E+03  0.41800000000E+01 0. -1.
        -11    1    1    2    0    0 -0.63725968483E+02 -0.74138218874E+02 -0.17937795720E+03  0.20428883006E+03  0.00000000000E+00 0.  1.
         11    1    1    2    0    0  0.28034661378E+02 -0.22466556328E+02 -0.11817338784E+03  0.12351371577E+03  0.00000000000E+00 0. -1.
</event>
<event>
 7    1  0.2626349E-009  0.1008629E+03  0.7561462E-02  0.1278492E+00
         -1   -1    0    0    0  501 -0.00000000000E+00  0.00000000000E+00  0.11170533561E+03  0.11170533561E+03  0.00000000000E+00 0.  1.
          1   -1    0    0  501    0  0.00000000000E+00 -0.00000000000E+00 -0.11746793253E+03  0.11746793253E+03  0.00000000000E+00 0. -1.
         25    2    1    2    0    0 -0.26022522769E+02 -0.96978824649E+01  0.21768156343E+02  0.12997255958E+03  0.12509113877E+03 0.  0.
          5    1    3    3  502    0 -0.11149887910E+02 -0.66297565114E+02  0.23322370445E+02  0.71281782411E+02  0.41800000000E+01 0.  1.
         -5    1    3    3    0  502 -0.14872634860E+02  0.56599682649E+02 -0.15542141017E+01  0.58690777173E+02  0.41800000000E+01 0.  1.
        -11    1    1    2    0    0 -0.21387303432E+02 -0.10901697036E+02 -0.39424852623E+02  0.46158236000E+02  0.00000000000E+00 0. -1.
         11    1    1    2    0    0  0.47409826201E+02  0.20599579501E+02  0.11894099360E+02  0.53042472563E+02  0.00000000000E+00 0.  1.
</event>
<event>
 7    1  0.2626349E-009  0.1727629E+03  0.7561462E-02  0.1174997E+00
          2   -1    0    0  501    0  0.00000000000E+00  0.00000000000E+00  0.15459792223E+04  0.15459792223E+04  0.00000000000E+00 0. -1.
         -2   -1    0    0    0  501 -0.00000000000E+00 -0.00000000000E+00 -0.23722090164E+02  0.23722090164E+02  0.00000000000E+00 0.  1.
         25    2    1    2    0    0  0.66264453150E+02 -0.13784799485E+03  0.65014402556E+03  0.67950514517E+03  0.12508773288E+03 0.  0.
          5    1    3    3  502    0 -0.13815649048E+02 -0.38572812400E+02  0.36238381564E+03  0.36471665201E+03  0.41800000000E+01 0.  1.
         -5    1    3    3    0  502  0.80080102198E+02 -0.99275182450E+02  0.28776020992E+03  0.31478849317E+03  0.41800000000E+01 0.  1.
        -11    1    1    2    0    0 -0.78316491039E+02  0.61896634068E+02  0.42911176063E+03  0.44056959630E+03  0.00000000000E+00 0.  1.
         11    1    1    2    0    0  0.12052037889E+02  0.75951360781E+02  0.44300134600E+03  0.44962657103E+03  0.00000000000E+00 0. -1.
</event>
<event>
 7    1  0.2626349E-009  0.1713304E+03  0.7561462E-02  0.1176467E+00
         -2   -1    0    0    0  501 -0.00000000000E+00  0.00000000000E+00  0.11840190324E+03  0.11840190324E+03  0.00000000000E+00 0.  1.
          2   -1    0    0  501    0  0.00000000000E+00 -0.00000000000E+00 -0.25738361180E+03  0.25738361180E+03  0.00000000000E+00 0. -1.
         25    2    1    2    0    0 -0.80625926921E+02 -0.10951789330E+03 -0.67509812314E+02  0.19672100364E+03  0.12508744730E+03 0.  0.
          5    1    3    3  502    0 -0.90022967811E+02 -0.21046481138E+02 -0.52495732313E+02  0.10639719645E+03  0.41800000000E+01 0.  1.
         -5    1    3    3    0  502  0.93970408897E+01 -0.88471412159E+02 -0.15014080001E+02  0.90323807190E+02  0.41800000000E+01 0.  1.
        -11    1    1    2    0    0 -0.16550951904E+02  0.29239616430E+01  0.24487099193E+01  0.16984691369E+02  0.00000000000E+00 0.  1.
         11    1    1    2    0    0  0.97176878826E+02  0.10659393165E+03 -0.73920606162E+02  0.16207982002E+03  0.00000000000E+00 0. -1.
</event>
<event>
 7    1  0.2626349E-009  0.9727846E+02  0.7561462E-02  0.1286125E+00
         -2   -1    0    0    0  501 -0.00000000000E+00  0.00000000000E+00  0.28426333317E+02  0.28426333317E+02  0.00000000000E+00 0.  1.
          2   -1    0    0  501    0  0.00000000000E+00 -0.00000000000E+00 -0.42619326269E+03  0.42619326269E+03  0.00000000000E+00 0. -1.
         25    2    1    2    0    0  0.60999192499E+01  0.13231932475E+02 -0.19722643124E+03  0.23400654200E+03  0.12509397853E+03 0.  0.
          5    1    3    3  502    0  0.49643119678E+02 -0.27683378389E+02 -0.52963583966E+02  0.77803742821E+02  0.41800000000E+01 0.  1.
         -5    1    3    3    0  502 -0.43543200428E+02  0.40915310864E+02 -0.14426284727E+03  0.15620279918E+03  0.41800000000E+01 0.  1.
        -11    1    1    2    0    0 -0.40231892413E+02 -0.16276413702E+02 -0.49938867317E+02  0.66162053165E+02  0.00000000000E+00 0.  1.
         11    1    1    2    0    0  0.34131973163E+02  0.30444812263E+01 -0.15060163082E+03  0.15445100085E+03  0.00000000000E+00 0. -1.
</event>
<event>
 7    1  0.2626349E-009  0.2205635E+03  0.7561462E-02  0.1133464E+00
         -3   -1    0    0    0  501 -0.00000000000E+00  0.00000000000E+00  0.12953752562E+04  0.12953752562E+04  0.00000000000E+00 0.  1.
          3   -1    0    0  501    0  0.00000000000E+00 -0.00000000000E+00 -0.39069377674E+02  0.39069377674E+02  0.00000000000E+00 0. -1.
         25    2    1    2    0    0  0.11727910985E+03 -0.15600221954E+03  0.72855230467E+03  0.76454353355E+03  0.12508905611E+03 0.  0.
          5    1    3    3  502    0  0.14185142300E+03 -0.12606728341E+03  0.64509334545E+03  0.67244158326E+03  0.41800000000E+01 0.  1.
         -5    1    3    3    0  502 -0.24572313151E+02 -0.29934936127E+02  0.83458959218E+02  0.92101950296E+02  0.41800000000E+01 0.  1.
        -11    1    1    2    0    0 -0.51518244062E+02  0.10357220894E+02  0.17325086129E+03  0.18104491828E+03  0.00000000000E+00 0.  1.
         11    1    1    2    0    0 -0.65760865784E+02  0.14564499864E+03  0.35450271260E+03  0.38885618208E+03  0.00000000000E+00 0. -1.
</event>
<event>
 7    1  0.2626349E-009  0.1065916E+03  0.7561462E-02  0.1267015E+00
         -2   -1    0    0    0  501 -0.00000000000E+00  0.00000000000E+00  0.86810681960E+02  0.86810681960E+02  0.00000000000E+00 0.  1.
          2   -1    0    0  501    0  0.00000000000E+00 -0.00000000000E+00 -0.23803687397E+03  0.23803687397E+03  0.00000000000E+00 0. -1.
         25    2    1    2    0    0 -0.12108422423E+02  0.87023833677E+02 -0.45258189293E+02  0.15942387432E+03  0.12509159237E+03 0.  0.
          5    1    3    3  502    0 -0.38454099566E+01  0.40273038883E+02  0.42957800420E+02  0.59156993294E+02  0.41800000000E+01 0. -1.
         -5    1    3    3    0  502 -0.82630124660E+01  0.46750794793E+02 -0.88215989713E+02  0.10026688102E+03  0.41800000000E+01 0. -1.
        -11    1    1    2    0    0  0.50448454460E+02 -0.57274686271E+02 -0.49511706751E+02  0.90977169390E+02  0.00000000000E+00 0.  1.
         11    1    1    2    0    0 -0.38340032038E+02 -0.29749147406E+02 -0.56456295962E+02  0.74446512220E+02  0.00000000000E+00 0. -1.
</event>
<event>
 7    1  0.2626349E-009  0.1106268E+03  0.7561462E-02  0.1259413E+00
         -2   -1    0    0    0  501 -0.00000000000E+00  0.00000000000E+00  0.13145984141E+03  0.13145984141E+03  0.00000000000E+00 0.  1.
          2   -1    0    0  501    0  0.00000000000E+00 -0.00000000000E+00 -0.13766390159E+03  0.13766390159E+03  0.00000000000E+00 0. -1.
         25    2    1    2    0    0 -0.29330095057E+02 -0.94264061396E+01 -0.75246667088E+02  0.14919483017E+03  0.12509166573E+03 0.  0.
          5    1    3    3  502    0  0.26819595399E+02 -0.51693852182E+02 -0.32306886621E+02  0.66728947047E+02  0.41800000000E+01 0. -1.
         -5    1    3    3    0  502 -0.56149690456E+02  0.42267446043E+02 -0.42939780467E+02  0.82465883127E+02  0.41800000000E+01 0. -1.
        -11    1    1    2    0    0  0.60516409949E+02  0.96150764245E+01  0.63517834314E+02  0.88256449304E+02  0.00000000000E+00 0.  1.
         11    1    1    2    0    0 -0.31186314892E+02 -0.18867028483E+00  0.55247725916E+01  0.31672463516E+02  0.00000000000E+00 0. -1.
</event>
<event>
 7    1  0.2626349E-009  0.1035898E+03  0.7561462E-02  0.1272923E+00
         -1   -1    0    0    0  501 -0.00000000000E+00  0.00000000000E+00  0.48192009109E+02  0.48192009109E+02  0.00000000000E+00 0. -1.
          1   -1    0    0  501    0  0.00000000000E+00 -0.00000000000E+00 -0.29709843715E+03  0.29709843715E+03  0.00000000000E+00 0.  1.
         25    2    1    2    0    0 -0.17046021917E+02 -0.15432673884E+01 -0.21023955520E+03  0.24523587559E+03  0.12508803128E+03 0.  0.
          5    1    3    3  502    0  0.16412626608E+02  0.51795124008E+02 -0.14296264578E+03  0.15299640411E+03  0.41800000000E+01 0. -1.
         -5    1    3    3    0  502 -0.33458648525E+02 -0.53338391396E+02 -0.67276909417E+02  0.92239471478E+02  0.41800000000E+01 0. -1.
        -11    1    1    2    0    0 -0.13664432909E+02 -0.37498361481E+02 -0.29288771393E+02  0.49504302542E+02  0.00000000000E+00 0.  1.
         11    1    1    2    0    0  0.30710454826E+02  0.39041628869E+02 -0.93781014475E+01  0.50550268121E+02  0.00000000000E+00 0. -1.
</event>
<event>
 7    1  0.2626349E-009  0.8455984E+02  0.7561462E-02  0.1316588E+00
          1   -1    0    0  501    0  0.00000000000E+00  0.00000000000E+00  0.45323715263E+02  0.45323715263E+02  0.00000000000E+00 0. -1.
         -1   -1    0    0    0  501 -0.00000000000E+00 -0.00000000000E+00 -0.28858954570E+03  0.28858954570E+03  0.00000000000E+00 0.  1.
         25    2    1    2    0    0 -0.16098459484E+02 -0.24731669494E+02 -0.10633549460E+03  0.16680889339E+03  0.12508858312E+03 0.  0.
          5    1    3    3  502    0  0.26830575236E+02  0.36905654571E+02 -0.14425710900E+02  0.48036243002E+02  0.41800000000E+01 0. -1.
         -5    1    3    3    0  502 -0.42929034720E+02 -0.61637324065E+02 -0.91909783698E+02  0.11877265038E+03  0.41800000000E+01 0. -1.
        -11    1    1    2    0    0 -0.92221353883E+01  0.20392879805E+02  0.49458290416E+01  0.22921137684E+02  0.00000000000E+00 0. -1.
         11    1    1    2    0    0  0.25320594872E+02  0.43387896890E+01 -0.14187616488E+03  0.14418322989E+03  0.00000000000E+00 0.  1.
</event>
<event>
 7    1  0.3208858E-009  0.7540548E+02  0.7561462E-02  0.1342620E+00
         -2   -1    0    0    0  501 -0.00000000000E+00  0.00000000000E+00  0.77190893965E+02  0.77190893965E+02  0.00000000000E+00 0.  1.
          2   -1    0    0  501    0  0.00000000000E+00 -0.00000000000E+00 -0.22592883007E+03  0.22592883007E+03  0.00000000000E+00 0. -1.
         25    2    1    2    0    0  0.17287705913E+02  0.61076544988E+02 -0.12926058557E+03  0.19074556709E+03  0.12508542385E+03 0.  0.
          5    1    3    3  502    0  0.14849622197E+02  0.72627435239E+02 -0.14951305162E+03  0.16693376122E+03  0.41800000000E+01 0.  1.
         -5    1    3    3    0  502  0.24380837158E+01 -0.11550890251E+02  0.20252466052E+02  0.23811805874E+02  0.41800000000E+01 0.  1.
        -11    1    1    2    0    0 -0.40027090531E+01 -0.29671423210E+02 -0.55319886990E+02  0.62902344405E+02  0.00000000000E+00 0. -1.
         11    1    1    2    0    0 -0.13284996860E+02 -0.31405121778E+02  0.35842536460E+02  0.49471812534E+02  0.00000000000E+00 0.  1.
</event>
<event>
 7    1  0.2626349E-009  0.1323000E+03  0.7561462E-02  0.1224082E+00
          2   -1    0    0  501    0  0.00000000000E+00  0.00000000000E+00  0.54764891554E+03  0.54764891554E+03  0.00000000000E+00 0. -1.
         -2   -1    0    0    0  501 -0.00000000000E+00 -0.00000000000E+00 -0.35000449466E+02  0.35000449466E+02  0.00000000000E+00 0.  1.
         25    2    1    2    0    0  0.74319776187E+02 -0.96989645085E+01  0.35132726472E+03  0.38038877631E+03  0.12508906891E+03 0.  0.
          5    1    3    3  502    0 -0.13877403371E+02  0.39443351971E+02  0.72268719232E+02  0.83597849964E+02  0.41800000000E+01 0.  1.
         -5    1    3    3    0  502  0.88197179557E+02 -0.49142316480E+02  0.27905854548E+03  0.29679092634E+03  0.41800000000E+01 0.  1.
        -11    1    1    2    0    0 -0.75923249152E+02 -0.30117785934E+02  0.11658763220E+03  0.14235201710E+03  0.00000000000E+00 0.  1.
         11    1    1    2    0    0  0.16034729650E+01  0.39816750442E+02  0.44733569160E+02  0.59908571600E+02  0.00000000000E+00 0. -1.
</event>
<event>
 7    1  0.2626349E-009  0.1384418E+03  0.7561462E-02  0.1215441E+00
          2   -1    0    0  501    0  0.00000000000E+00  0.00000000000E+00  0.10811801634E+04  0.10811801634E+04  0.00000000000E+00 0. -1.
         -2   -1    0    0    0  501 -0.00000000000E+00 -0.00000000000E+00 -0.29427374697E+02  0.29427374697E+02  0.00000000000E+00 0.  1.
         25    2    1    2    0    0  0.62276639912E+02  0.44862862512E+02  0.40274564464E+03  0.42864861052E+03  0.12507805846E+03 0.  0.
          5    1    3    3  502    0  0.66999100758E+02  0.42275868292E+02  0.10894418704E+03  0.13476808536E+03  0.41800000000E+01 0.  1.
         -5    1    3    3    0  502 -0.47224608461E+01  0.25869942201E+01  0.29380145760E+03  0.29388052516E+03  0.41800000000E+01 0.  1.
        -11    1    1    2    0    0 -0.12294292415E+03 -0.17496377351E+02  0.27046961992E+03  0.29761535766E+03  0.00000000000E+00 0.  1.
         11    1    1    2    0    0  0.60666284236E+02 -0.27366485161E+02  0.37853752416E+03  0.38434356994E+03  0.00000000000E+00 0. -1.
</event>
<event>
 7    1  0.2626349E-009  0.8787121E+02  0.7561462E-02  0.1308090E+00
         -2   -1    0    0    0  501 -0.00000000000E+00  0.00000000000E+00  0.16291434897E+03  0.16291434897E+03  0.00000000000E+00 0.  1.
          2   -1    0    0  501    0  0.00000000000E+00 -0.00000000000E+00 -0.11058723966E+03  0.11058723966E+03  0.00000000000E+00 0. -1.
         25    2    1    2    0    0  0.66972643899E+02 -0.13781769245E+02  0.66968232880E+02  0.15750469595E+03  0.12509081836E+03 0.  0.
          5    1    3    3  502    0  0.49638387363E+02 -0.21013075198E+02  0.10318661694E+03  0.11649235659E+03  0.41800000000E+01 0.  1.
         -5    1    3    3    0  502  0.17334256535E+02  0.72313059528E+01 -0.36218384061E+02  0.41012339355E+02  0.41800000000E+01 0.  1.
        -11    1    1    2    0    0 -0.77731975078E+02  0.29708472185E+02 -0.32902861178E+02  0.89484364795E+02  0.00000000000E+00 0. -1.
         11    1    1    2    0    0  0.10759331180E+02 -0.15926702940E+02  0.18261737617E+02  0.26512527884E+02  0.00000000000E+00 0.  1.
</event>
<event>
 7    1  0.2626349E-009  0.1285345E+03  0.7561462E-02  0.1229647E+00
          1   -1    0    0  501    0  0.00000000000E+00  0.00000000000E+00  0.13400998550E+03  0.13400998550E+03  0.00000000000E+00 0. -1.
         -1   -1    0    0    0  501 -0.00000000000E+00 -0.00000000000E+00 -0.15960624177E+03  0.15960624177E+03  0.00000000000E+00 0.  1.
         25    2    1    2    0    0 -0.66926181365E+02  0.50730358920E+02  0.35883464364E+02  0.15488060653E+03  0.12509075184E+03 0.  0.
          5    1    3    3  502    0 -0.10083651148E+03  0.35417743413E+02  0.62653544507E+01  0.10714077497E+03  0.41800000000E+01 0. -1.
         -5    1    3    3    0  502  0.33910330112E+02  0.15312615507E+02  0.29618109913E+02  0.47739831554E+02  0.41800000000E+01 0. -1.
        -11    1    1    2    0    0  0.86589459609E+01  0.19547259439E+02 -0.39378145583E+02  0.44807488730E+02  0.00000000000E+00 0.  1.
         11    1    1    2    0    0  0.58267235404E+02 -0.70277618359E+02 -0.22101575045E+02  0.93928132012E+02  0.00000000000E+00 0. -1.
</event>
<event>
 7    1  0.2626349E-009  0.1133730E+03  0.7561462E-02  0.1254448E+00
          3   -1    0    0  501    0  0.00000000000E+00  0.00000000000E+00  0.76295979463E+02  0.76295979463E+02  0.00000000000E+00 0. -1.
         -3   -1    0    0    0  501 -0.00000000000E+00 -0.00000000000E+00 -0.24338570729E+03  0.24338570729E+03  0.00000000000E+00 0.  1.
         25    2    1    2    0    0  0.26910286099E+02 -0.68644151873E+02 -0.48312241487E+02  0.15302729303E+03  0.12508835538E+03 0.  0.
          5    1    3    3  502    0  0.52722360352E+02 -0.93631390336E+02 -0.26362053380E+02  0.11071998372E+03  0.41800000000E+01 0.  1.
         -5    1    3    3    0  502 -0.25812074253E+02  0.24987238463E+02 -0.21950188107E+02  0.42307309312E+02  0.41800000000E+01 0.  1.
        -11    1    1    2    0    0 -0.36795098804E+02  0.55691472318E+02 -0.13050145677E+03  0.14658120482E+03  0.00000000000E+00 0.  1.
         11    1    1    2    0    0  0.98848127054E+01  0.12952679555E+02  0.11723970436E+02  0.20073188901E+02  0.00000000000E+00 0. -1.
</event>
<event>
 7    1  0.2626349E-009  0.1237638E+03  0.7561462E-02  0.1237014E+00
          3   -1    0    0  501    0  0.00000000000E+00  0.00000000000E+00  0.98286150086E+02  0.98286150086E+02  0.00000000000E+00 0. -1.
         -3   -1    0    0    0  501 -0.00000000000E+00 -0.00000000000E+00 -0.35212761649E+03  0.35212761649E+03  0.00000000000E+00 0.  1.
         25    2    1    2    0    0  0.29508635744E+02  0.92633673161E+02  0.45320380858E+01  0.15849437431E+03  0.12509264700E+03 0.  0.
          5    1    3    3  502    0  0.41425474544E+02  0.98409888894E+02 -0.38265479999E+02  0.11350020058E+03  0.41800000000E+01 0. -1.
         -5    1    3    3    0  502 -0.11916838799E+02 -0.57762157327E+01  0.42797518085E+02  0.44994173727E+02  0.41800000000E+01 0. -1.
        -11    1    1    2    0    0  0.28342624452E+02 -0.36110642663E+02 -0.47453157172E+02  0.66023367076E+02  0.00000000000E+00 0. -1.
         11    1    1    2    0    0 -0.57851260197E+02 -0.56523030497E+02 -0.21092034731E+03  0.22589602518E+03  0.00000000000E+00 0.  1.
</event>
<event>
 7    1  0.2626349E-009  0.1151371E+03  0.7561462E-02  0.1251342E+00
          2   -1    0    0  501    0  0.00000000000E+00  0.00000000000E+00  0.58893436752E+03  0.58893436752E+03  0.00000000000E+00 0. -1.
         -2   -1    0    0    0  501 -0.00000000000E+00 -0.00000000000E+00 -0.25075924329E+02  0.25075924329E+02  0.00000000000E+00 0.  1.
         25    2    1    2    0    0  0.11642809575E+02  0.47500987462E+02  0.37615865558E+03  0.39941856181E+03  0.12509178440E+03 0.  0.
          5    1    3    3  502    0  0.13461436926E+02 -0.39673873651E+02  0.76703396974E+02  0.87499200237E+02  0.41800000000E+01 0. -1.
         -5    1    3    3    0  502 -0.18186273517E+01  0.87174861113E+02  0.29945525861E+03  0.31191936157E+03  0.41800000000E+01 0. -1.
        -11    1    1    2    0    0  0.98294845413E+01 -0.69467133464E+02  0.15255656917E+03  0.16791607486E+03  0.00000000000E+00 0. -1.
         11    1    1    2    0    0 -0.21472294116E+02  0.21966146002E+02  0.35143218439E+02  0.46675655186E+02  0.00000000000E+00 0.  1.
</event>
<event>
 7    1  0.2626349E-009  0.2454092E+03  0.7561462E-02  0.1116241E+00
         -2   -1    0    0    0  501 -0.00000000000E+00  0.00000000000E+00  0.50191041582E+02  0.50191041582E+02  0.00000000000E+00 0.  1.
          2   -1    0    0  501    0  0.00000000000E+00 -0.00000000000E+00 -0.14492952352E+04  0.14492952352E+04  0.00000000000E+00 0. -1.
         25    2    1    2    0    0 -0.22833376637E+03  0.67360962786E+02 -0.89828361154E+03  0.93767508628E+03  0.12508921818E+03 0.  0.
          5    1    3    3  502    0 -0.15496223072E+03  0.50726777342E+02 -0.37420505528E+03  0.40820753874E+03  0.41800000000E+01 0.  1.
         -5    1    3    3    0  502 -0.73371535653E+02  0.16634185444E+02 -0.52407855626E+03  0.52946754754E+03  0.41800000000E+01 0.  1.
        -11    1    1    2    0    0  0.17085484602E+03 -0.86858515072E+02 -0.34638873800E+03  0.39587995385E+03  0.00000000000E+00 0. -1.
         11    1    1    2    0    0  0.57478920347E+02  0.19497552285E+02 -0.15443184410E+03  0.16593123667E+03  0.00000000000E+00 0.  1.
</event>
<event>
 7    1  0.2626349E-009  0.1980461E+03  0.7561462E-02  0.1151398E+00
         -2   -1    0    0    0  501 -0.00000000000E+00  0.00000000000E+00  0.25627036491E+02  0.25627036491E+02  0.00000000000E+00 0.  1.
          2   -1    0    0  501    0  0.00000000000E+00 -0.00000000000E+00 -0.20688645501E+04  0.20688645501E+04  0.00000000000E+00 0. -1.
         25    2    1    2    0    0  0.47413734276E+01  0.18524351931E+03 -0.14216223028E+04  0.14390957472E+04  0.12509578675E+03 0.  0.
          5    1    3    3  502    0  0.25364204222E+02  0.16915932696E+03 -0.13739277442E+04  0.13845407684E+04  0.41800000000E+01 0. -1.
         -5    1    3    3    0  502 -0.20622830794E+02  0.16084192353E+02 -0.47694558546E+02  0.54554978770E+02  0.41800000000E+01 0. -1.
        -11    1    1    2    0    0 -0.33266436877E+02 -0.48461437185E+02 -0.28382653829E+03  0.28984939288E+03  0.00000000000E+00 0. -1.
         11    1    1    2    0    0  0.28525063449E+02 -0.13678208213E+03 -0.33778867253E+03  0.36554644646E+03  0.00000000000E+00 0.  1.
</event>
<event>
 7    1  0.2626349E-009  0.1090066E+03  0.7561462E-02  0.1262421E+00
          1   -1    0    0  501    0  0.00000000000E+00  0.00000000000E+00  0.75122228232E+02  0.75122228232E+02  0.00000000000E+00 0. -1.
         -1   -1    0    0    0  501 -0.00000000000E+00 -0.00000000000E+00 -0.16356317974E+03  0.16356317974E+03  0.00000000000E+00 0.  1.
         25    2    1    2    0    0 -0.12218851617E+02  0.19462930845E+02 -0.66727882225E+02  0.14362502618E+03  0.12508969528E+03 0.  0.
          5    1    3    3  502    0 -0.52304204682E+02 -0.32258726762E+02 -0.31082565142E+02  0.68992416507E+02  0.41800000000E+01 0. -1.
         -5    1    3    3    0  502  0.40085353065E+02  0.51721657607E+02 -0.35645317083E+02  0.74632609669E+02  0.41800000000E+01 0. -1.
        -11    1    1    2    0    0  0.25250202401E+02 -0.50899582849E+02 -0.46958866038E+01  0.57012205768E+02  0.00000000000E+00 0.  1.
         11    1    1    2    0    0 -0.13031350785E+02  0.31436652004E+02 -0.17017182675E+02  0.38048176023E+02  0.00000000000E+00 0. -1.
</event>
<event>
 7    1  0.2626349E-009  0.1180448E+03  0.7561462E-02  0.1246358E+00
         -2   -1    0    0    0  501 -0.00000000000E+00  0.00000000000E+00  0.25922404739E+02  0.25922404739E+02  0.00000000000E+00 0.  1.
          2   -1    0    0  501    0  0.00000000000E+00 -0.00000000000E+00 -0.58048796637E+03  0.58048796637E+03  0.00000000000E+00 0. -1.
         25    2    1    2    0    0  0.51751053463E+02 -0.13596266440E+02 -0.27755556497E+03  0.30910822873E+03  0.12509106852E+03 0.  0.
          5    1    3    3  502    0  0.11529689711E+02  0.53628662640E+02 -0.14489831575E+03  0.15499019811E+03  0.41800000000E+01 0. -1.
         -5    1    3    3    0  502  0.40221363751E+02 -0.67224929080E+02 -0.13265724922E+03  0.15411803062E+03  0.41800000000E+01 0. -1.
        -11    1    1    2    0    0 -0.69037958213E+02  0.33101379598E+02 -0.24086262338E+03  0.25273849004E+03  0.00000000000E+00 0. -1.
         11    1    1    2    0    0  0.17286904750E+02 -0.19505113158E+02 -0.36147373274E+02  0.44563652338E+02  0.00000000000E+00 0.  1.
</event>
<event>
 7    1  0.2626349E-009  0.1456615E+03  0.7561462E-02  0.1205908E+00
          2   -1    0    0  501    0  0.00000000000E+00  0.00000000000E+00  0.79386472454E+03  0.79386472454E+03  0.00000000000E+00 0. -1.
         -2   -1    0    0    0  501 -0.00000000000E+00 -0.00000000000E+00 -0.45624874136E+02  0.45624874136E+02  0.00000000000E+00 0.  1.
         25    2    1    2    0    0  0.71958646920E+01 -0.13086059589E+03  0.58259970706E+03  0.61012152459E+03  0.12509828170E+03 0.  0.
          5    1    3    3  502    0  0.59441672655E+01 -0.12708669367E+02  0.33929538195E+03  0.33961105991E+03  0.41800000000E+01 0.  1.
         -5    1    3    3    0  502  0.12516974264E+01 -0.11815192652E+03  0.24330432511E+03  0.27051046468E+03  0.41800000000E+01 0.  1.
        -11    1    1    2    0    0 -0.46442707104E+02  0.48133013608E+02  0.75771360733E+02  0.10106933833E+03  0.00000000000E+00 0.  1.
         11    1    1    2    0    0  0.39246842412E+02  0.82727582277E+02  0.89868782617E+02  0.12829873576E+03  0.00000000000E+00 0. -1.
</event>
<event>
 7    1  0.2626349E-009  0.1064981E+03  0.7561462E-02  0.1267196E+00
         -3   -1    0    0    0  501 -0.00000000000E+00  0.00000000000E+00  0.11135616574E+03  0.11135616574E+03  0.00000000000E+00 0.  1.
          3   -1    0    0  501    0  0.00000000000E+00 -0.00000000000E+00 -0.15135419046E+03  0.15135419046E+03  0.00000000000E+00 0. -1.
         25    2    1    2    0    0  0.57285000427E+02  0.19045961080E+02 -0.60780785108E+02  0.15162733302E+03  0.12510885010E+03 0.  0.
          5    1    3    3  502    0 -0.36586211606E+01 -0.36945687087E+02 -0.57656559499E+02  0.68703133526E+02  0.41800000000E+01 0. -1.
         -5    1    3    3    0  502  0.60943621588E+02  0.55991648167E+02 -0.31242256087E+01  0.82924199498E+02  0.41800000000E+01 0. -1.
        -11    1    1    2    0    0 -0.16273657578E+02  0.26739599945E+02 -0.20155879068E+02  0.37230331683E+02  0.00000000000E+00 0. -1.
         11    1    1    2    0    0 -0.41011342849E+02 -0.45785561025E+02  0.40938639460E+02  0.73852691498E+02  0.00000000000E+00 0.  1.
</event>
<event>
 7    1  0.2626349E-009  0.1102145E+03  0.7561462E-02  0.1260173E+00
         -1   -1    0    0    0  501 -0.00000000000E+00  0.00000000000E+00  0.10398104305E+04  0.10398104305E+04  0.00000000000E+00 0.  1.
          1   -1    0    0  501    0  0.00000000000E+00 -0.00000000000E+00 -0.13975246338E+02  0.13975246338E+02  0.00000000000E+00 0. -1.
         25    2    1    2    0    0 -0.10781864754E+02  0.32307121079E+02  0.75747475206E+03  0.76848663265E+03  0.12507480108E+03 0.  0.
          5    1    3    3  502    0 -0.58843433714E+02 -0.15897395486E+02  0.33050835673E+03  0.33610790401E+03  0.41800000000E+01 0. -1.
         -5    1    3    3    0  502  0.48061568960E+02  0.48204516566E+02  0.42696639533E+03  0.43237872863E+03  0.41800000000E+01 0. -1.
        -11    1    1    2    0    0  0.42736014057E+02  0.38159249932E+01  0.17541493736E+03  0.18058606931E+03  0.00000000000E+00 0.  1.
         11    1    1    2    0    0 -0.31954149303E+02 -0.36123046073E+02  0.92945494738E+02  0.10471297488E+03  0.00000000000E+00 0. -1.
</event>
<event>
 7    1  0.2626349E-009  0.1233516E+03  0.7561462E-02  0.1237668E+00
          1   -1    0    0  501    0  0.00000000000E+00  0.00000000000E+00  0.35460262391E+02  0.35460262391E+02  0.00000000000E+00 0. -1.
         -1   -1    0    0    0  501 -0.00000000000E+00 -0.00000000000E+00 -0.48852737047E+03  0.48852737047E+03  0.00000000000E+00 0.  1.
         25    2    1    2    0    0 -0.68003496028E+02 -0.11164350197E+02 -0.30713178947E+03  0.33871022651E+03  0.12508222598E+03 0.  0.
          5    1    3    3  502    0 -0.99993657009E+02 -0.84154234518E+01 -0.27634971847E+03  0.29403433488E+03  0.41800000000E+01 0.  1.
         -5    1    3    3    0  502  0.31990160981E+02 -0.27489267451E+01 -0.30782070999E+02  0.44675891629E+02  0.41800000000E+01 0.  1.
        -11    1    1    2    0    0  0.84762047634E+02  0.28838763403E+02 -0.11968037952E+03  0.14946461867E+03  0.00000000000E+00 0.  1.
         11    1    1    2    0    0 -0.16758551606E+02 -0.17674413206E+02 -0.26254939093E+02  0.35812787672E+02  0.00000000000E+00 0. -1.
</event>
<event>
 7    1  0.2626349E-009  0.1096489E+03  0.7561462E-02  0.1261221E+00
         -2   -1    0    0    0  501 -0.00000000000E+00  0.00000000000E+00  0.27803186201E+02  0.27803186201E+02  0.00000000000E+00 0.  1.
          2   -1    0    0  501    0  0.00000000000E+00 -0.00000000000E+00 -0.46687532769E+03  0.46687532769E+03  0.00000000000E+00 0. -1.
         25    2    1    2    0    0 -0.34172088910E+02  0.79933265903E+01 -0.30119986602E+03  0.32802381557E+03  0.12508652748E+03 0.  0.
          5    1    3    3  502    0 -0.34622036575E+02 -0.53673993701E+02 -0.19392862200E+03  0.20421891648E+03  0.41800000000E+01 0. -1.
         -5    1    3    3    0  502  0.44994766453E+00  0.61667320291E+02 -0.10727124403E+03  0.12380489909E+03  0.41800000000E+01 0. -1.
        -11    1    1    2    0    0 -0.28872927607E+02  0.44617160813E+01 -0.47430947038E+02  0.55706800266E+02  0.00000000000E+00 0.  1.
         11    1    1    2    0    0  0.63045016517E+02 -0.12455042672E+02 -0.90441328432E+02  0.11094789806E+03  0.00000000000E+00 0. -1.
</event>
<event>
 7    1  0.2626349E-009  0.2326130E+03  0.7561462E-02  0.1124814E+00
         -2   -1    0    0    0  501 -0.00000000000E+00  0.00000000000E+00  0.52508314114E+02  0.52508314114E+02  0.00000000000E+00 0.  1.
          2   -1    0    0  501    0  0.00000000000E+00 -0.00000000000E+00 -0.27057168298E+04  0.27057168298E+04  0.00000000000E+00 0. -1.
         25    2    1    2    0    0 -0.19889082211E+03  0.66053619711E+02 -0.24168328633E+04  0.24291250482E+04  0.12508705286E+03 0.  0.
          5    1    3    3  502    0 -0.12411568826E+03  0.10126766178E+03 -0.16978740394E+04  0.17054188839E+04  0.41800000000E+01 0. -1.
         -5    1    3    3    0  502 -0.74775133849E+02 -0.35214042072E+02 -0.71895882393E+03  0.72370616434E+03  0.41800000000E+01 0. -1.
        -11    1    1    2    0    0  0.46215330628E+02 -0.50978836082E+02 -0.38936939527E+02  0.79061898364E+02  0.00000000000E+00 0.  1.
         11    1    1    2    0    0  0.15267549148E+03 -0.15074783629E+02 -0.19743871280E+03  0.25003819731E+03  0.00000000000E+00 0. -1.
</event>
<event>
 7    1  0.2626349E-009  0.2546098E+03  0.7561462E-02  0.1110426E+00
          2   -1    0    0  501    0  0.00000000000E+00  0.00000000000E+00  0.11994959230E+04  0.11994959230E+04  0.00000000000E+00 0. -1.
         -2   -1    0    0    0  501 -0.00000000000E+00 -0.00000000000E+00 -0.58301004600E+02  0.58301004600E+02  0.00000000000E+00 0.  1.
         25    2    1    2    0    0  0.24017231040E+03  0.14868505105E+02  0.57952860976E+03  0.63984785792E+03  0.12509220852E+03 0.  0.
          5    1    3    3  502    0  0.87966078876E+02  0.44415654946E+02  0.34380025568E+03  0.35766865902E+03  0.41800000000E+01 0.  1.
         -5    1    3    3    0  502  0.15220623152E+03 -0.29547149841E+02  0.23572835407E+03  0.28217919890E+03  0.41800000000E+01 0.  1.
        -11    1    1    2    0    0 -0.72856904503E+02 -0.44776365979E+02  0.15165448889E+03  0.17410380663E+03  0.00000000000E+00 0.  1.
         11    1    1    2    0    0 -0.16731540589E+03  0.29907860875E+02  0.41001181976E+03  0.44384526305E+03  0.00000000000E+00 0. -1.
</event>
<event>
 7    1  0.2626349E-009  0.9612815E+02  0.7561462E-02  0.1288655E+00
          1   -1    0    0  501    0  0.00000000000E+00  0.00000000000E+00  0.42911978831E+03  0.42911978831E+03  0.00000000000E+00 0. -1.
         -1   -1    0    0    0  501 -0.00000000000E+00 -0.00000000000E+00 -0.29609977682E+02  0.29609977682E+02  0.00000000000E+00 0.  1.
         25    2    1    2    0    0 -0.14024683296E+02  0.25986196829E+02  0.20536561917E+03  0.24227680335E+03  0.12510410758E+03 0.  0.
          5    1    3    3  502    0  0.39951507942E+02  0.14249553846E+02  0.16919785090E+02  0.45857652569E+02  0.41800000000E+01 0.  1.
         -5    1    3    3    0  502 -0.53976191238E+02  0.11736642983E+02  0.18844583408E+03  0.19641915078E+03  0.41800000000E+01 0.  1.
        -11    1    1    2    0    0  0.51407008946E+02 -0.24188084890E+02  0.97938913009E+02  0.11322444392E+03  0.00000000000E+00 0.  1.
         11    1    1    2    0    0 -0.37382325650E+02 -0.17981119391E+01  0.96205278450E+02  0.10322851873E+03  0.00000000000E+00 0. -1.
</event>
<event>
 7    1  0.2626349E-009  0.2161754E+03  0.7561462E-02  0.1136767E+00
         -1   -1    0    0    0  501 -0.00000000000E+00  0.00000000000E+00  0.29293132077E+03  0.29293132077E+03  0.00000000000E+00 0.  1.
          1   -1    0    0  501    0  0.00000000000E+00 -0.00000000000E+00 -0.18163625395E+03  0.18163625395E+03  0.00000000000E+00 0. -1.
         25    2    1    2    0    0  0.71388454050E+02  0.18222784918E+03  0.27244276487E+01  0.23228957652E+03  0.12509086484E+03 0.  0.
          5    1    3    3  502    0  0.95786814654E+02  0.10612806345E+03  0.32910221627E+02  0.14676114881E+03  0.41800000000E+01 0.  1.
         -5    1    3    3    0  502 -0.24398360604E+02  0.76099785730E+02 -0.30185793979E+02  0.85528427709E+02  0.41800000000E+01 0. -1.
        -11    1    1    2    0    0 -0.81878282489E+02 -0.11447762390E+03  0.42392898784E+02  0.14699094321E+03  0.00000000000E+00 0. -1.
         11    1    1    2    0    0  0.10489828440E+02 -0.67750225279E+02  0.66177740389E+02  0.95287054992E+02  0.00000000000E+00 0.  1.
</event>
<event>
 7    1  0.2719183E-009  0.1488514E+03  0.7561462E-02  0.1201891E+00
         -2   -1    0    0    0  501 -0.00000000000E+00  0.00000000000E+00  0.64996012423E+02  0.64996012423E+02  0.00000000000E+00 0.  1.
          2   -1    0    0  501    0  0.00000000000E+00 -0.00000000000E+00 -0.41443433125E+03  0.41443433125E+03  0.00000000000E+00 0. -1.
         25    2    1    2    0    0 -0.11115212050E+03 -0.51513294868E+02 -0.17070506885E+03  0.24453222457E+03  0.12508946751E+03 0.  0.
          5    1    3    3  502    0 -0.11195537455E+03 -0.79540677276E+02 -0.16650308070E+03  0.21587374439E+03  0.41800000000E+01 0.  1.
         -5    1    3    3    0  502  0.80325405208E+00  0.28027382408E+02 -0.42019881457E+01  0.28658480178E+02  0.41800000000E+01 0.  1.
        -11    1    1    2    0    0  0.13209824250E+02  0.28402562082E+02 -0.18329032925E+01  0.31377771176E+02  0.00000000000E+00 0.  1.
         11    1    1    2    0    0  0.97942296250E+02  0.23110732786E+02 -0.17690034669E+03  0.20352034793E+03  0.00000000000E+00 0. -1.
</event>
<event>
 7    1  0.2626349E-009  0.1204237E+03  0.7561462E-02  0.1242400E+00
          4   -1    0    0  501    0  0.00000000000E+00  0.00000000000E+00  0.38927370435E+02  0.38927370435E+02  0.00000000000E+00 0. -1.
         -4   -1    0    0    0  501 -0.00000000000E+00 -0.00000000000E+00 -0.42760371525E+03  0.42760371525E+03  0.00000000000E+00 0.  1.
         25    2    1    2    0    0  0.37753000043E+02  0.54020701234E+02 -0.18197264989E+03  0.23044700111E+03  0.12509296479E+03 0.  0.
          5    1    3    3  502    0  0.72856300139E+02  0.66744126929E+01 -0.13983538969E+03  0.15787335705E+03  0.41800000000E+01 0. -1.
         -5    1    3    3    0  502 -0.35103300096E+02  0.47346288541E+02 -0.42137260193E+02  0.72573644065E+02  0.41800000000E+01 0. -1.
        -11    1    1    2    0    0  0.27629514831E+02 -0.88586077338E+01 -0.27168006118E+02  0.39748780827E+02  0.00000000000E+00 0.  1.
         11    1    1    2    0    0 -0.65382514874E+02 -0.45162093501E+02 -0.17953568881E+03  0.19633530375E+03  0.00000000000E+00 0. -1.
</event>
<event>
 7    1  0.2626349E-009  0.1322172E+03  0.7561462E-02  0.1224202E+00
         -2   -1    0    0    0  501 -0.00000000000E+00  0.00000000000E+00  0.65766297027E+02  0.65766297027E+02  0.00000000000E+00 0.  1.
          2   -1    0    0  501    0  0.00000000000E+00 -0.00000000000E+00 -0.30870963585E+03  0.30870963585E+03  0.00000000000E+00 0. -1.
         25    2    1    2    0    0  0.68919797471E+02  0.61071223605E+02 -0.11722721283E+03  0.19459954472E+03  0.12508849084E+03 0.  0.
          5    1    3    3  502    0  0.71867487535E+01 -0.35866155469E+02 -0.12006112009E+02  0.38725309441E+02  0.41800000000E+01 0. -1.
         -5    1    3    3    0  502  0.61733048718E+02  0.96937379074E+02 -0.10522110082E+03  0.15587423528E+03  0.41800000000E+01 0. -1.
        -11    1    1    2    0    0 -0.17954040785E+01 -0.43086552566E+02 -0.94139563001E+02  0.10354676146E+03  0.00000000000E+00 0.  1.
         11    1    1    2    0    0 -0.67124393393E+02 -0.17984671039E+02 -0.31576562996E+02  0.76329626695E+02  0.00000000000E+00 0. -1.
</event>
<event>
 7    1  0.2626349E-009  0.1029254E+03  0.7561462E-02  0.1274262E+00
         -3   -1    0    0    0  501 -0.00000000000E+00  0.00000000000E+00  0.23467840033E+03  0.23467840033E+03  0.00000000000E+00 0.  1.
          3   -1    0    0  501    0  0.00000000000E+00 -0.00000000000E+00 -0.65270473924E+02  0.65270473924E+02  0.00000000000E+00 0. -1.
         25    2    1    2    0    0 -0.16778205717E+02 -0.64945819709E+01  0.28493954345E+02  0.12954970808E+03  0.12509010212E+03 0.  0.
          5    1    3    3  502    0  0.18891885433E+02 -0.51992842124E+02  0.42537920526E+02  0.69907839689E+02  0.41800000000E+01 0. -1.
         -5    1    3    3    0  502 -0.35670091149E+02  0.45498260153E+02 -0.14043966181E+02  0.59641868395E+02  0.41800000000E+01 0. -1.
        -11    1    1    2    0    0 -0.22658558138E+02 -0.30729201428E+02  0.36900101725E+02  0.53097189988E+02  0.00000000000E+00 0. -1.
         11    1    1    2    0    0  0.39436763855E+02  0.37223783399E+02  0.10401387033E+03  0.11730197618E+03  0.00000000000E+00 0.  1.
</event>
<event>
 7    1  0.2626349E-009  0.1527178E+03  0.7561462E-02  0.1197173E+00
          1   -1    0    0  501    0  0.00000000000E+00  0.00000000000E+00  0.22058045712E+03  0.22058045712E+03  0.00000000000E+00 0. -1.
         -1   -1    0    0    0  501 -0.00000000000E+00 -0.00000000000E+00 -0.15833153221E+03  0.15833153221E+03  0.00000000000E+00 0.  1.
         25    2    1    2    0    0 -0.91035184190E+00  0.13824386814E+03 -0.32133792184E+02  0.18918793429E+03  0.12508916046E+03 0.  0.
          5    1    3    3  502    0  0.99821612623E+01  0.81312302486E+00  0.34387381792E+02  0.36059244849E+02  0.41800000000E+01 0.  1.
         -5    1    3    3    0  502 -0.10892513104E+02  0.13743074511E+03 -0.66521173977E+02  0.15312868944E+03  0.41800000000E+01 0.  1.
        -11    1    1    2    0    0  0.35287874703E+02 -0.44397041002E+02  0.73333344339E+01  0.57184868145E+02  0.00000000000E+00 0.  1.
         11    1    1    2    0    0 -0.34377522861E+02 -0.93846827135E+02  0.87049382664E+02  0.13253918690E+03  0.00000000000E+00 0. -1.
</event>
<event>
 7    1  0.2626349E-009  0.1116832E+03  0.7561462E-02  0.1257484E+00
         -1   -1    0    0    0  501 -0.00000000000E+00  0.00000000000E+00  0.28177041808E+02  0.28177041808E+02  0.00000000000E+00 0.  1.
          1   -1    0    0  501    0  0.00000000000E+00 -0.00000000000E+00 -0.94981657807E+03  0.94981657807E+03  0.00000000000E+00 0. -1.
         25    2    1    2    0    0 -0.65700616602E+02 -0.34819904106E+02 -0.77906837436E+03  0.79254054138E+03  0.12507590123E+03 0.  0.
          5    1    3    3  502    0  0.26803402712E+02  0.23319683858E+02 -0.16783734218E+03  0.17160733051E+03  0.41800000000E+01 0. -1.
         -5    1    3    3    0  502 -0.92504019314E+02 -0.58139587964E+02 -0.61123103218E+03  0.62093321088E+03  0.41800000000E+01 0. -1.
        -11    1    1    2    0    0  0.20717513948E+02 -0.10177506269E+01  0.95405887545E+01  0.22831426462E+02  0.00000000000E+00 0.  1.
         11    1    1    2    0    0  0.44983102655E+02  0.35837654733E+02 -0.15211175066E+03  0.16262165203E+03  0.00000000000E+00 0. -1.
</event>
<event>
 7    1  0.2626349E-009  0.9733956E+02  0.7561462E-02  0.1285992E+00
          1   -1    0    0  501    0  0.00000000000E+00  0.00000000000E+00  0.27357353290E+03  0.27357353290E+03  0.00000000000E+00 0. -1.
         -1   -1    0    0    0  501 -0.00000000000E+00 -0.00000000000E+00 -0.76122102522E+02  0.76122102522E+02  0.00000000000E+00 0.  1.
         25    2    1    2    0    0  0.31958031023E+02 -0.35355409986E+02  0.20666866000E+03  0.24623358602E+03  0.12509085937E+03 0.  0.
          5    1    3    3  502    0 -0.19633374221E+02 -0.34603425962E+02  0.78252662272E+01  0.40762405021E+02  0.41800000000E+01 0.  1.
         -5    1    3    3    0  502  0.51591405244E+02 -0.75198402426E+00  0.19884339377E+03  0.20547118100E+03  0.41800000000E+01 0.  1.
        -11    1    1    2    0    0 -0.52452188652E+02  0.53943707999E+02 -0.91388475441E+01  0.75793629425E+02  0.00000000000E+00 0.  1.
         11    1    1    2    0    0  0.20494157629E+02 -0.18588298013E+02 -0.78382080553E-01  0.27668419971E+02  0.00000000000E+00 0. -1.
</event>
<event>
 7    1  0.2626349E-009  0.1172763E+03  0.7561462E-02  0.1247659E+00
          2   -1    0    0  501    0  0.00000000000E+00  0.00000000000E+00  0.30436474596E+03  0.30436474596E+03  0.00000000000E+00 0. -1.
         -2   -1    0    0    0  501 -0.00000000000E+00 -0.00000000000E+00 -0.48863440621E+02  0.48863440621E+02  0.00000000000E+00 0.  1.
         25    2    1    2    0    0 -0.23436558780E+02  0.50098865854E+02  0.16440728405E+03  0.21385099814E+03  0.12507328135E+03 0.  0.
          5    1    3    3  502    0 -0.67194604490E+02 -0.10835753740E+01  0.10014468951E+03  0.12067609641E+03  0.41800000000E+01 0. -1.
         -5    1    3    3    0  502  0.43758045710E+02  0.51182441228E+02  0.64262594546E+02  0.93174901729E+02  0.41800000000E+01 0. -1.
        -11    1    1    2    0    0  0.15978508118E+02  0.22043121958E+02  0.65787343218E+01  0.28008778849E+02  0.00000000000E+00 0.  1.
         11    1    1    2    0    0  0.74580506623E+01 -0.72141987812E+02  0.84515286964E+02  0.11136840959E+03  0.00000000000E+00 0. -1.
</event>
<event>
 7    1  0.2626349E-009  0.1203805E+03  0.7561462E-02  0.1242471E+00
         -2   -1    0    0    0  501 -0.00000000000E+00  0.00000000000E+00  0.45028401344E+03  0.45028401344E+03  0.00000000000E+00 0.  1.
          2   -1    0    0  501    0  0.00000000000E+00 -0.00000000000E+00 -0.49806479165E+02  0.49806479165E+02  0.00000000000E+00 0. -1.
         25    2    1    2    0    0 -0.62480737354E+02 -0.71663538402E+02  0.15104859735E+03  0.21795088361E+03  0.12508958242E+03 0.  0.
          5    1    3    3  502    0 -0.42382292993E+02 -0.96611710498E+01  0.14605949955E+03  0.15244817741E+03  0.41800000000E+01 0.  1.
         -5    1    3    3    0  502 -0.20098444361E+02 -0.62002367352E+02  0.49890977950E+01  0.65502706202E+02  0.41800000000E+01 0.  1.
        -11    1    1    2    0    0  0.21305106852E+02 -0.21286412902E+02  0.52841278207E+02  0.60821210402E+02  0.00000000000E+00 0. -1.
         11    1    1    2    0    0  0.41175630502E+02  0.92949951303E+02  0.19658765872E+03  0.22131839859E+03  0.00000000000E+00 0.  1.
</event>
<event>
 7    1  0.2626349E-009  0.9992642E+02  0.7561462E-02  0.1280451E+00
          3   -1    0    0  501    0  0.00000000000E+00  0.00000000000E+00  0.27474614447E+02  0.27474614447E+02  0.00000000000E+00 0. -1.
         -3   -1    0    0    0  501 -0.00000000000E+00 -0.00000000000E+00 -0.50967597594E+03  0.50967597594E+03  0.00000000000E+00 0.  1.
         25    2    1    2    0    0  0.26875540560E+02  0.34167786456E+02 -0.29405560591E+03  0.32249919748E+03  0.12508917099E+03 0.  0.
          5    1    3    3  502    0 -0.39043447506E+02  0.19415109971E+02 -0.21031733075E+03  0.21483060607E+03  0.41800000000E+01 0. -1.
         -5    1    3    3    0  502  0.65918988066E+02  0.14752676485E+02 -0.83738275157E+02  0.10766859142E+03  0.41800000000E+01 0. -1.
        -11    1    1    2    0    0  0.10263825907E+02  0.20124041031E+02 -0.99168309054E+01  0.24671171129E+02  0.00000000000E+00 0. -1.
         11    1    1    2    0    0 -0.37139366468E+02 -0.54291827488E+02 -0.17822892468E+03  0.18998022178E+03  0.00000000000E+00 0.  1.
</event>
<event>
 7    1  0.2626349E-009  0.1372296E+03  0.7561462E-02  0.1217106E+00
         -1   -1    0    0    0  501 -0.00000000000E+00  0.00000000000E+00  0.35157787184E+02  0.35157787184E+02  0.00000000000E+00 0.  1.
          1   -1    0    0  501    0  0.00000000000E+00 -0.00000000000E+00 -0.63103444807E+03  0.63103444807E+03  0.00000000000E+00 0. -1.
         25    2    1    2    0    0 -0.84484247524E+02 -0.23566980546E+02 -0.43743643503E+03  0.46334825896E+03  0.12509190117E+03 0.  0.
          5    1    3    3  502    0 -0.10561399409E+03  0.15160169482E+02 -0.27584084886E+03  0.29578673531E+03  0.41800000000E+01 0. -1.
         -5    1    3    3    0  502  0.21129746561E+02 -0.38727150027E+02 -0.16159558617E+03  0.16756152365E+03  0.41800000000E+01 0. -1.
        -11    1    1    2    0    0 -0.10312707414E+02 -0.17296433284E+02 -0.45937914277E+02  0.50157855882E+02  0.00000000000E+00 0. -1.
         11    1    1    2    0    0  0.94796954937E+02  0.40863413830E+02 -0.11250231158E+03  0.15268612041E+03  0.00000000000E+00 0.  1.
</event>
<event>
 7    1  0.2626349E-009  0.1034999E+03  0.7561462E-02  0.1273104E+00
         -1   -1    0    0    0  501 -0.00000000000E+00  0.00000000000E+00  0.73676301385E+03  0.73676301385E+03  0.00000000000E+00 0.  1.
          1   -1    0    0  501    0  0.00000000000E+00 -0.00000000000E+00 -0.16135247854E+02  0.16135247854E+02  0.00000000000E+00 0. -1.
         25    2    1    2    0    0 -0.15934552894E+02 -0.52487407837E+01  0.39701881704E+03  0.41659687600E+03  0.12509019446E+03 0.  0.
          5    1    3    3  502    0 -0.29544585885E+02  0.51820758050E+02  0.27111764767E+03  0.27763379621E+03  0.41800000000E+01 0. -1.
         -5    1    3    3    0  502  0.13610032991E+02 -0.57069498834E+02  0.12590116938E+03  0.13896307979E+03  0.41800000000E+01 0. -1.
        -11    1    1    2    0    0 -0.14040352924E+02  0.40057804396E+02  0.19945636419E+03  0.20392302573E+03  0.00000000000E+00 0.  1.
         11    1    1    2    0    0  0.29974905817E+02 -0.34809063612E+02  0.12415258476E+03  0.13237835998E+03  0.00000000000E+00 0. -1.
</event>
<event>
 7    1  0.2626349E-009  0.1129734E+03  0.7561462E-02  0.1255161E+00
         -2   -1    0    0    0  501 -0.00000000000E+00  0.00000000000E+00  0.15931306490E+03  0.15931306490E+03  0.00000000000E+00 0.  1.
          2   -1    0    0  501    0  0.00000000000E+00 -0.00000000000E+00 -0.11879816175E+03  0.11879816175E+03  0.00000000000E+00 0. -1.
         25    2    1    2    0    0  0.15647151179E+02 -0.82243675191E+02  0.36773606743E+02  0.15494700914E+03  0.12508965600E+03 0.  0.
          5    1    3    3  502    0 -0.30563370877E+02 -0.64522127073E+02 -0.24929081817E+02  0.75737415071E+02  0.41800000000E+01 0.  1.
         -5    1    3    3    0  502  0.46210522056E+02 -0.17721548117E+02  0.61702688560E+02  0.79209594065E+02  0.41800000000E+01 0.  1.
        -11    1    1    2    0    0  0.18866899121E+02  0.61869771176E+02 -0.29501932714E+02  0.71092844237E+02  0.00000000000E+00 0. -1.
         11    1    1    2    0    0 -0.34514050300E+02  0.20373904015E+02  0.33243229123E+02  0.52071373282E+02  0.00000000000E+00 0.  1.
</event>
<event>
 7    1  0.2626349E-009  0.2746406E+03  0.7561462E-02  0.1098653E+00
         -2   -1    0    0    0  501 -0.00000000000E+00  0.00000000000E+00  0.67734530920E+02  0.67734530920E+02  0.00000000000E+00 0. -1.
          2   -1    0    0  501    0  0.00000000000E+00 -0.00000000000E+00 -0.13086650591E+04  0.13086650591E+04  0.00000000000E+00 0.  1.
         25    2    1    2    0    0 -0.13999971943E+03  0.22938199704E+03 -0.47881803508E+03  0.56314222296E+03  0.12508569286E+03 0.  0.
          5    1    3    3  502    0 -0.12376593658E+03  0.13706596623E+03 -0.21675776571E+03  0.28479200753E+03  0.41800000000E+01 0.  1.
         -5    1    3    3    0  502 -0.16233782852E+02  0.92316030809E+02 -0.26206026937E+03  0.27835021543E+03  0.41800000000E+01 0.  1.
        -11    1    1    2    0    0  0.10706471459E+03 -0.19875698841E+03 -0.70673922938E+03  0.74192151330E+03  0.00000000000E+00 0.  1.
         11    1    1    2    0    0  0.32935004844E+02 -0.30625008631E+02 -0.55373263772E+02  0.71335853808E+02  0.00000000000E+00 0. -1.
</event>
<event>
 7    1  0.2626349E-009  0.1168840E+03  0.7561462E-02  0.1248328E+00
          2   -1    0    0  501    0  0.00000000000E+00  0.00000000000E+00  0.22889818461E+02  0.22889818461E+02  0.00000000000E+00 0. -1.
         -2   -1    0    0    0  501 -0.00000000000E+00 -0.00000000000E+00 -0.73501622394E+03  0.73501622394E+03  0.00000000000E+00 0.  1.
         25    2    1    2    0    0 -0.60001266324E+02 -0.24503623681E+02 -0.30298941418E+03  0.33414034085E+03  0.12508638112E+03 0.  0.
          5    1    3    3  502    0 -0.75102778489E+02  0.18986939838E+02 -0.25884661154E+03  0.27022207890E+03  0.41800000000E+01 0.  1.
         -5    1    3    3    0  502  0.15101512165E+02 -0.43490563519E+02 -0.44142802644E+02  0.63918261946E+02  0.41800000000E+01 0.  1.
        -11    1    1    2    0    0  0.39651469207E+02 -0.31330437049E+02 -0.16974499627E+03  0.17710787406E+03  0.00000000000E+00 0.  1.
         11    1    1    2    0    0  0.20349797117E+02  0.55834060730E+02 -0.23939199503E+03  0.24665782750E+03  0.00000000000E+00 0. -1.
</event>
<event>
 7    1  0.2626349E-009  0.9887042E+02  0.7561462E-02  0.1282689E+00
         -2   -1    0    0    0  501 -0.00000000000E+00  0.00000000000E+00  0.17455252001E+02  0.17455252001E+02  0.00000000000E+00 0.  1.
          2   -1    0    0  501    0  0.00000000000E+00 -0.00000000000E+00 -0.67217103958E+03  0.67217103958E+03  0.00000000000E+00 0. -1.
         25    2    1    2    0    0 -0.82481598378E+01  0.61064929330E+00 -0.37460978334E+03  0.39502876321E+03  0.12508728534E+03 0.  0.
          5    1    3    3  502    0 -0.64903235995E+02  0.14556293007E+02 -0.21107936839E+03  0.22135105120E+03  0.41800000000E+01 0. -1.
         -5    1    3    3    0  502  0.56655076157E+02 -0.13945643714E+02 -0.16353041496E+03  0.17367771201E+03  0.41800000000E+01 0. -1.
        -11    1    1    2    0    0 -0.31453222293E+02  0.68790374085E+01 -0.41143922933E+02  0.52244126393E+02  0.00000000000E+00 0.  1.
         11    1    1    2    0    0  0.39701382131E+02 -0.74896867018E+01 -0.23896208130E+03  0.24235340197E+03  0.00000000000E+00 0. -1.
</event>
<event>
 7    1  0.2626349E-009  0.1088289E+03  0.7561462E-02  0.1262754E+00
          2   -1    0    0  501    0  0.00000000000E+00  0.00000000000E+00  0.17205002674E+04  0.17205002674E+04  0.00000000000E+00 0. -1.
         -2   -1    0    0    0  501 -0.00000000000E+00 -0.00000000000E+00 -0.16799545218E+02  0.16799545218E+02  0.00000000000E+00 0.  1.
         25    2    1    2    0    0 -0.50677432809E+02 -0.24603468819E+02  0.15106621372E+04  0.15168782608E+04  0.12508410167E+03 0.  0.
          5    1    3    3  502    0 -0.25332854951E+02  0.51008170956E+02  0.67290169580E+03  0.67532048070E+03  0.41800000000E+01 0.  1.
         -5    1    3    3    0  502 -0.25344577858E+02 -0.75611639775E+02  0.83776044142E+03  0.84155778013E+03  0.41800000000E+01 0.  1.
        -11    1    1    2    0    0  0.30050748876E+02  0.43401094420E+02  0.18347957298E+03  0.19092264456E+03  0.00000000000E+00 0. -1.
         11    1    1    2    0    0  0.20626683932E+02 -0.18797625602E+02  0.95590120094E+01  0.29498907249E+02  0.00000000000E+00 0.  1.
</event>
<event>
 7    1  0.2626349E-009  0.7714114E+02  0.7561462E-02  0.1337366E+00
         -2   -1    0    0    0  501 -0.00000000000E+00  0.00000000000E+00  0.20581319073E+02  0.20581319073E+02  0.00000000000E+00 0.  1.
          2   -1    0    0  501    0  0.00000000000E+00 -0.00000000000E+00 -0.65302419733E+03  0.65302419733E+03  0.00000000000E+00 0. -1.
         25    2    1    2    0    0 -0.15460007931E+02 -0.13653025054E+02 -0.37091591869E+03  0.39198423868E+03  0.12509039811E+03 0.  0.
          5    1    3    3  502    0 -0.36972834067E+02 -0.96391285546E+01 -0.26125909043E+02  0.46475141544E+02  0.41800000000E+01 0. -1.
         -5    1    3    3    0  502  0.21512826136E+02 -0.40138964995E+01 -0.34479000965E+03  0.34550909714E+03  0.41800000000E+01 0. -1.
        -11    1    1    2    0    0  0.43330313822E+02  0.37178277467E+02 -0.21528551947E+03  0.22272762583E+03  0.00000000000E+00 0. -1.
         11    1    1    2    0    0 -0.27870305890E+02 -0.23525252413E+02 -0.46241440096E+02  0.58893651896E+02  0.00000000000E+00 0.  1.
</event>
<event>
 7    1  0.2626349E-009  0.1096562E+03  0.7561462E-02  0.1261208E+00
          1   -1    0    0  501    0  0.00000000000E+00  0.00000000000E+00  0.50176104779E+02  0.50176104779E+02  0.00000000000E+00 0. -1.
         -1   -1    0    0    0  501 -0.00000000000E+00 -0.00000000000E+00 -0.29057081782E+03  0.29057081782E+03  0.00000000000E+00 0.  1.
         25    2    1    2    0    0  0.22025658235E+02 -0.59728804581E+02 -0.11961059041E+03  0.18440991637E+03  0.12509062395E+03 0.  0.
          5    1    3    3  502    0  0.27765750421E+02  0.30673691699E+02 -0.11185569531E+02  0.43062763783E+02  0.41800000000E+01 0.  1.
         -5    1    3    3    0  502 -0.57400921862E+01 -0.90402496280E+02 -0.10842502088E+03  0.14134715259E+03  0.41800000000E+01 0.  1.
        -11    1    1    2    0    0 -0.39491947554E+02  0.21380276686E+02 -0.24319605400E+02  0.51070278632E+02  0.00000000000E+00 0. -1.
         11    1    1    2    0    0  0.17466289319E+02  0.38348527895E+02 -0.96464517232E+02  0.10526672760E+03  0.00000000000E+00 0.  1.
</event>
<event>
 7    1  0.2626349E-009  0.1111202E+03  0.7561462E-02  0.1258509E+00
          3   -1    0    0  501    0  0.00000000000E+00  0.00000000000E+00  0.18252529268E+03  0.18252529268E+03  0.00000000000E+00 0. -1.
         -3   -1    0    0    0  501 -0.00000000000E+00 -0.00000000000E+00 -0.10731364792E+03  0.10731364792E+03  0.00000000000E+00 0.  1.
         25    2    1    2    0    0 -0.78086434229E+02  0.33344317506E+02  0.65806982301E+02  0.16488649884E+03  0.12509062259E+03 0.  0.
          5    1    3    3  502    0 -0.66139512750E+02  0.71185961232E+02  0.12144344626E+02  0.98014456738E+02  0.41800000000E+01 0. -1.
         -5    1    3    3    0  502 -0.11946921480E+02 -0.37841643726E+02  0.53662637675E+02  0.66872042103E+02  0.41800000000E+01 0. -1.
        -11    1    1    2    0    0  0.18557573474E+02 -0.10463350274E+02 -0.39302558274E+02  0.44705215793E+02  0.00000000000E+00 0.  1.
         11    1    1    2    0    0  0.59528860755E+02 -0.22880967231E+02  0.48707220736E+02  0.80247225971E+02  0.00000000000E+00 0. -1.
</event>
<event>
 7    1  0.2626349E-009  0.9403479E+02  0.7561462E-02  0.1293365E+00
          1   -1    0    0  501    0  0.00000000000E+00  0.00000000000E+00  0.10592735933E+04  0.10592735933E+04  0.00000000000E+00 0. -1.
         -1   -1    0    0    0  501 -0.00000000000E+00 -0.00000000000E+00 -0.12429401198E+02  0.12429401198E+02  0.00000000000E+00 0.  1.
         25    2    1    2    0    0  0.20881763305E+02 -0.72086677940E+01  0.76941403215E+03  0.77982911118E+03  0.12508987505E+03 0.  0.
          5    1    3    3  502    0  0.58571895092E+02 -0.26869597249E+02  0.64624776742E+03  0.64946615881E+03  0.41800000000E+01 0. -1.
         -5    1    3    3    0  502 -0.37690131786E+02  0.19660929455E+02  0.12316626473E+03  0.13036295236E+03  0.41800000000E+01 0. -1.
        -11    1    1    2    0    0 -0.49729822001E+02  0.12896217843E+02  0.23299107337E+03  0.23858794584E+03  0.00000000000E+00 0. -1.
         11    1    1    2    0    0  0.28848058695E+02 -0.56875500494E+01  0.44439086541E+02  0.53285937438E+02  0.00000000000E+00 0.  1.
</event>
<event>
 7    1  0.2648565E-009  0.1282914E+03  0.7561462E-02  0.1230013E+00
         -1   -1    0    0    0  501 -0.00000000000E+00  0.00000000000E+00  0.22111441009E+02  0.22111441009E+02  0.00000000000E+00 0.  1.
          1   -1    0    0  501    0  0.00000000000E+00 -0.00000000000E+00 -0.87425669405E+03  0.87425669405E+03  0.00000000000E+00 0. -1.
         25    2    1    2    0    0 -0.51517346404E+02 -0.67358613452E+02 -0.52479581598E+03  0.54612338250E+03  0.12509548614E+03 0.  0.
          5    1    3    3  502    0 -0.76877676236E+02 -0.83153311083E+02 -0.32790647783E+03  0.34693627780E+03  0.41800000000E+01 0. -1.
         -5    1    3    3    0  502  0.25360329832E+02  0.15794697631E+02 -0.19688933815E+03  0.19918710470E+03  0.41800000000E+01 0. -1.
        -11    1    1    2    0    0  0.15023667288E+02  0.74420070777E+02 -0.14017147712E+03  0.15941173266E+03  0.00000000000E+00 0.  1.
         11    1    1    2    0    0  0.36493679116E+02 -0.70614573256E+01 -0.18717795995E+03  0.19083301991E+03  0.00000000000E+00 0. -1.
</event>
<event>
 7    1  0.2626349E-009  0.7890016E+02  0.7561462E-02  0.1332202E+00
         -1   -1    0    0    0  501 -0.00000000000E+00  0.00000000000E+00  0.12890921463E+03  0.12890921463E+03  0.00000000000E+00 0.  1.
          1   -1    0    0  501    0  0.00000000000E+00 -0.00000000000E+00 -0.11193960929E+03  0.11193960929E+03  0.00000000000E+00 0. -1.
         25    2    1    2    0    0 -0.93831811392E+01 -0.24702528660E+02 -0.20034328044E+02  0.12940439573E+03  0.12508342945E+03 0.  0.
          5    1    3    3  502    0 -0.58842577641E+02  0.18718413852E+02 -0.90156351345E+01  0.62542641753E+02  0.41800000000E+01 0. -1.
         -5    1    3    3    0  502  0.49459396502E+02 -0.43420942512E+02 -0.11018692909E+02  0.66861753973E+02  0.41800000000E+01 0. -1.
        -11    1    1    2    0    0 -0.28651817435E+01  0.11921082812E+02  0.71568022604E+02  0.72610628294E+02  0.00000000000E+00 0.  1.
         11    1    1    2    0    0  0.12248362883E+02  0.12781445848E+02 -0.34564089220E+02  0.38833799903E+02  0.00000000000E+00 0. -1.
</event>
<event>
 7    1  0.2626349E-009  0.1672108E+03  0.7561462E-02  0.1180788E+00
         -2   -1    0    0    0  501 -0.00000000000E+00  0.00000000000E+00  0.22188045387E+02  0.22188045387E+02  0.00000000000E+00 0.  1.
          2   -1    0    0  501    0  0.00000000000E+00 -0.00000000000E+00 -0.12977921686E+04  0.12977921686E+04  0.00000000000E+00 0. -1.
         25    2    1    2    0    0 -0.11897514588E+03  0.55905315988E+02 -0.74708010792E+03  0.76880210382E+03  0.12508995760E+03 0.  0.
          5    1    3    3  502    0 -0.11040586863E+03  0.90410894780E+02 -0.53491646542E+03  0.55363948839E+03  0.41800000000E+01 0. -1.
         -5    1    3    3    0  502 -0.85692772438E+01 -0.34505578791E+02 -0.21216364250E+03  0.21516261543E+03  0.41800000000E+01 0. -1.
        -11    1    1    2    0    0  0.10529678920E+03 -0.75040835922E+01 -0.33601769917E+03  0.35220962400E+03  0.00000000000E+00 0. -1.
         11    1    1    2    0    0  0.13678356681E+02 -0.48401232396E+02 -0.19250631610E+03  0.19896848614E+03  0.00000000000E+00 0.  1.
</event>
<event>
 7    1  0.2626349E-009  0.1079208E+03  0.7561462E-02  0.1264469E+00
         -2   -1    0    0    0  501 -0.00000000000E+00  0.00000000000E+00  0.12418877228E+02  0.12418877228E+02  0.00000000000E+00 0.  1.
          2   -1    0    0  501    0  0.00000000000E+00 -0.00000000000E+00 -0.12375547485E+04  0.12375547485E+04  0.00000000000E+00 0. -1.
         25    2    1    2    0    0  0.17702862755E+02  0.68484818125E+01 -0.96613050750E+03  0.97437970518E+03  0.12508940524E+03 0.  0.
          5    1    3    3  502    0 -0.50156408806E+02  0.21280137232E+02 -0.33410486337E+03  0.33854400262E+03  0.41800000000E+01 0.  1.
         -5    1    3    3    0  502  0.67859271561E+02 -0.14431655419E+02 -0.63202564413E+03  0.63583570256E+03  0.41800000000E+01 0.  1.
        -11    1    1    2    0    0  0.27620500891E+02 -0.30018600724E+02 -0.14717734767E+03  0.15272583320E+03  0.00000000000E+00 0. -1.
         11    1    1    2    0    0 -0.45323363646E+02  0.23170118912E+02 -0.11182801612E+03  0.12286808736E+03  0.00000000000E+00 0.  1.
</event>
<event>
 7    1  0.2626349E-009  0.1143316E+03  0.7561462E-02  0.1252752E+00
         -1   -1    0    0    0  501 -0.00000000000E+00  0.00000000000E+00  0.40596089624E+02  0.40596089624E+02  0.00000000000E+00 0.  1.
          1   -1    0    0  501    0  0.00000000000E+00 -0.00000000000E+00 -0.42386527953E+03  0.42386527953E+03  0.00000000000E+00 0. -1.
         25    2    1    2    0    0  0.53175047657E+02  0.34411439464E+02 -0.14305769615E+03  0.20031284817E+03  0.12509196558E+03 0.  0.
          5    1    3    3  502    0 -0.17336036515E+02  0.50828563157E+02 -0.19964732328E+02  0.57446879215E+02  0.41800000000E+01 0. -1.
         -5    1    3    3    0  502  0.70511084172E+02 -0.16417123693E+02 -0.12309296382E+03  0.14286596895E+03  0.41800000000E+01 0. -1.
        -11    1    1    2    0    0 -0.64143676011E+02 -0.51304712230E+02 -0.14334490351E+03  0.16521000584E+03  0.00000000000E+00 0.  1.
         11    1    1    2    0    0  0.10968628354E+02  0.16893272766E+02 -0.96866590241E+02  0.98938515138E+02  0.00000000000E+00 0. -1.
</event>
<event>
 7    1  0.2626349E-009  0.3405307E+03  0.7561462E-02  0.1066570E+00
         -1   -1    0    0    0  501 -0.00000000000E+00  0.00000000000E+00  0.43816126817E+03  0.43816126817E+03  0.00000000000E+00 0.  1.
          1   -1    0    0  501    0  0.00000000000E+00 -0.00000000000E+00 -0.30458973226E+03  0.30458973226E+03  0.00000000000E+00 0. -1.
         25    2    1    2    0    0  0.67026700722E+02 -0.32599335504E+03 -0.36788384975E+02  0.35744167448E+03  0.12508764627E+03 0.  0.
          5    1    3    3  502    0  0.86807447607E+02 -0.29996216693E+03 -0.60264975564E+01  0.31235656808E+03  0.41800000000E+01 0.  1.
         -5    1    3    3    0  502 -0.19780746885E+02 -0.26031188105E+02 -0.30761887419E+02  0.45085106400E+02  0.41800000000E+01 0.  1.
        -11    1    1    2    0    0 -0.63840790567E+02  0.20374099997E+03  0.15096052026E+03  0.26148636730E+03  0.00000000000E+00 0. -1.
         11    1    1    2    0    0 -0.31859101551E+01  0.12225235507E+03  0.19399400624E+02  0.12382295865E+03  0.00000000000E+00 0.  1.
</event>
<event>
 7    1  0.2626349E-009  0.1186728E+03  0.7561462E-02  0.1245303E+00
          3   -1    0    0  501    0  0.00000000000E+00  0.00000000000E+00  0.30488974356E+02  0.30488974356E+02  0.00000000000E+00 0. -1.
         -3   -1    0    0    0  501 -0.00000000000E+00 -0.00000000000E+00 -0.65250892046E+03  0.65250892046E+03  0.00000000000E+00 0.  1.
         25    2    1    2    0    0  0.42622791299E+01  0.57466469362E+02 -0.16941198582E+03  0.21833098423E+03  0.12508971025E+03 0.  0.
          5    1    3    3  502    0 -0.27454855424E+02  0.85341209031E+02 -0.14143595356E+03  0.16750669361E+03  0.41800000000E+01 0.  1.
         -5    1    3    3    0  502  0.31717134553E+02 -0.27874739669E+02 -0.27976032265E+02  0.50824290622E+02  0.41800000000E+01 0.  1.
        -11    1    1    2    0    0  0.38962337952E+02 -0.46322830682E+02 -0.26277959907E+03  0.26966087241E+03  0.00000000000E+00 0. -1.
         11    1    1    2    0    0 -0.43224617082E+02 -0.11143638680E+02 -0.18982836121E+03  0.19500603818E+03  0.00000000000E+00 0.  1.
</event>
<event>
 7    1  0.2626349E-009  0.2658797E+03  0.7561462E-02  0.1103661E+00
         -2   -1    0    0    0  501 -0.00000000000E+00  0.00000000000E+00  0.32410377614E+02  0.32410377614E+02  0.00000000000E+00 0.  1.
          2   -1    0    0  501    0  0.00000000000E+00 -0.00000000000E+00 -0.24801440661E+04  0.24801440661E+04  0.00000000000E+00 0. -1.
         25    2    1    2    0    0  0.24697640534E+03 -0.20166452059E+01 -0.16284313820E+04  0.16517983341E+04  0.12509020333E+03 0.  0.
          5    1    3    3  502    0  0.21559210649E+03 -0.39658704131E+02 -0.14586470248E+04  0.14750326724E+04  0.41800000000E+01 0. -1.
         -5    1    3    3    0  502  0.31384298850E+02  0.37642058925E+02 -0.16978435718E+03  0.17676566170E+03  0.41800000000E+01 0. -1.
        -11    1    1    2    0    0 -0.20017859065E+03  0.38670240709E+02 -0.60949403041E+03  0.64268952751E+03  0.00000000000E+00 0. -1.
         11    1    1    2    0    0 -0.46797814693E+02 -0.36653595503E+02 -0.20980827610E+03  0.21806658213E+03  0.00000000000E+00 0.  1.
</event>
<event>
 7    1  0.2626349E-009  0.9271136E+02  0.7561462E-02  0.1296415E+00
         -2   -1    0    0    0  501 -0.00000000000E+00  0.00000000000E+00  0.50366272022E+02  0.50366272022E+02  0.00000000000E+00 0.  1.
          2   -1    0    0  501    0  0.00000000000E+00 -0.00000000000E+00 -0.52985038709E+03  0.52985038709E+03  0.00000000000E+00 0. -1.
         25    2    1    2    0    0 -0.50013721852E+02 -0.52107669522E+02 -0.83544816837E+02  0.16686598915E+03  0.12509172761E+03 0.  0.
          5    1    3    3  502    0 -0.49238004618E+01 -0.75322253086E+01 -0.10058971980E+03  0.10107790242E+03  0.41800000000E+01 0.  1.
         -5    1    3    3    0  502 -0.45089921391E+02 -0.44575444213E+02  0.17044902961E+02  0.65788086724E+02  0.41800000000E+01 0.  1.
        -11    1    1    2    0    0  0.19157830220E+02 -0.23486939825E+02 -0.55288614224E+02  0.63051484232E+02  0.00000000000E+00 0.  1.
         11    1    1    2    0    0  0.30855891633E+02  0.75594609347E+02 -0.34065068400E+03  0.35029918573E+03  0.00000000000E+00 0. -1.
</event>
<event>
 7    1  0.2626349E-009  0.8960132E+02  0.7561462E-02  0.1303820E+00
          1   -1    0    0  501    0  0.00000000000E+00  0.00000000000E+00  0.26209291403E+03  0.26209291403E+03  0.00000000000E+00 0. -1.
         -1   -1    0    0    0  501 -0.00000000000E+00 -0.00000000000E+00 -0.58635223763E+02  0.58635223763E+02  0.00000000000E+00 0.  1.
         25    2    1    2    0    0 -0.30495008878E+01 -0.60245460071E+02  0.12013279908E+03  0.18362619413E+03  0.12509146590E+03 0.  0.
          5    1    3    3  502    0 -0.33002649136E+02 -0.30137063488E+02  0.13192437169E+03  0.13935181983E+03  0.41800000000E+01 0.  1.
         -5    1    3    3    0  502  0.29953148249E+02 -0.30108396583E+02 -0.11791572611E+02  0.44274374298E+02  0.41800000000E+01 0.  1.
        -11    1    1    2    0    0  0.23780638006E+02 -0.40158113334E+01 -0.62635022431E+01  0.24917402452E+02  0.00000000000E+00 0.  1.
         11    1    1    2    0    0 -0.20731137118E+02  0.64261271404E+02  0.89588393435E+02  0.11218454121E+03  0.00000000000E+00 0. -1.
</event>
<event>
 7    1  0.2626349E-009  0.1099832E+03  0.7561462E-02  0.1260601E+00
         -1   -1    0    0    0  501 -0.00000000000E+00  0.00000000000E+00  0.16992681325E+02  0.16992681325E+02  0.00000000000E+00 0.  1.
          1   -1    0    0  501    0  0.00000000000E+00 -0.00000000000E+00 -0.87629476442E+03  0.87629476442E+03  0.00000000000E+00 0. -1.
         25    2    1    2    0    0 -0.29363626732E+02 -0.20348288637E+02 -0.64537701041E+03  0.65835772899E+03  0.12508852197E+03 0.  0.
          5    1    3    3  502    0 -0.30003950627E+02  0.50621474293E+02 -0.29381818443E+03  0.29968211261E+03  0.41800000000E+01 0.  1.
         -5    1    3    3    0  502  0.64032389557E+00 -0.70969762930E+02 -0.35155882598E+03  0.35867561638E+03  0.41800000000E+01 0.  1.
        -11    1    1    2    0    0 -0.25753638332E+02 -0.91893726418E+01 -0.11251108178E+03  0.11578617353E+03  0.00000000000E+00 0. -1.
         11    1    1    2    0    0  0.55117265064E+02  0.29537661279E+02 -0.10141399091E+03  0.11914354323E+03  0.00000000000E+00 0.  1.
</event>
<event>
 7    1  0.2712673E-009  0.8869325E+02  0.7561462E-02  0.1306047E+00
          1   -1    0    0  501    0  0.00000000000E+00  0.00000000000E+00  0.24627721829E+03  0.24627721829E+03  0.00000000000E+00 0. -1.
         -1   -1    0    0    0  501 -0.00000000000E+00 -0.00000000000E+00 -0.70853282565E+02  0.70853282565E+02  0.00000000000E+00 0.  1.
         25    2    1    2    0    0 -0.10590352021E+01 -0.19601196285E+02  0.10260420701E+02  0.12703403575E+03  0.12508813515E+03 0.  0.
          5    1    3    3  502    0  0.90324561820E+00  0.44080450607E+02 -0.28193158931E+02  0.52499796084E+02  0.41800000000E+01 0.  1.
         -5    1    3    3    0  502 -0.19622808203E+01 -0.63681646892E+02  0.38453579632E+02  0.74534239671E+02  0.41800000000E+01 0.  1.
        -11    1    1    2    0    0 -0.24381749603E+02  0.32577626434E+02  0.26585380568E+02  0.48606109881E+02  0.00000000000E+00 0.  1.
         11    1    1    2    0    0  0.25440784805E+02 -0.12976430150E+02  0.13857813446E+03  0.14149035522E+03  0.00000000000E+00 0. -1.
</event>
<event>
 7    1  0.3097667E-009  0.6919904E+02  0.7561462E-02  0.1362838E+00
          3   -1    0    0  501    0  0.00000000000E+00  0.00000000000E+00  0.14252490576E+03  0.14252490576E+03  0.00000000000E+00 0. -1.
         -3   -1    0    0    0  501 -0.00000000000E+00 -0.00000000000E+00 -0.87979666519E+02  0.87979666519E+02  0.00000000000E+00 0.  1.
         25    2    1    2    0    0  0.20025534375E+02 -0.69776268297E+01  0.10225131259E+02  0.12727745348E+03  0.12508112388E+03 0.  0.
          5    1    3    3  502    0  0.77080952359E+01 -0.27437760044E+02  0.62959945402E+02  0.69236352687E+02  0.41800000000E+01 0. -1.
         -5    1    3    3    0  502  0.12317439139E+02  0.20460133214E+02 -0.52734814143E+02  0.58041100789E+02  0.41800000000E+01 0. -1.
        -11    1    1    2    0    0 -0.25115881545E+02  0.42552239636E+02  0.45423475531E+01  0.49619890418E+02  0.00000000000E+00 0.  1.
         11    1    1    2    0    0  0.50903471698E+01 -0.35574612806E+02  0.39777760432E+02  0.53607228390E+02  0.00000000000E+00 0. -1.
</event>
<event>
 7    1  0.2626349E-009  0.1156359E+03  0.7561462E-02  0.1250475E+00
          1   -1    0    0  501    0  0.00000000000E+00  0.00000000000E+00  0.10139885752E+03  0.10139885752E+03  0.00000000000E+00 0. -1.
         -1   -1    0    0    0  501 -0.00000000000E+00 -0.00000000000E+00 -0.38254307522E+03  0.38254307522E+03  0.00000000000E+00 0.  1.
         25    2    1    2    0    0 -0.90590524252E+02 -0.23697624594E+02  0.18177127549E+02  0.15730505156E+03  0.12508497425E+03 0.  0.
          5    1    3    3  502    0 -0.10660356322E+03 -0.21140364891E+02 -0.24478088993E+02  0.11148041962E+03  0.41800000000E+01 0. -1.
         -5    1    3    3    0  502  0.16013038964E+02 -0.25572597029E+01  0.42655216542E+02  0.45824631938E+02  0.41800000000E+01 0. -1.
        -11    1    1    2    0    0  0.43932027153E+02 -0.13646894379E+02 -0.41421600720E+02  0.61903228851E+02  0.00000000000E+00 0. -1.
         11    1    1    2    0    0  0.46658497099E+02  0.37344518973E+02 -0.25789974453E+03  0.26473365233E+03  0.00000000000E+00 0.  1.
</event>
<event>
 7    1  0.2626349E-009  0.1758660E+03  0.7561462E-02  0.1171865E+00
          2   -1    0    0  501    0  0.00000000000E+00  0.00000000000E+00  0.37900400424E+03  0.37900400424E+03  0.00000000000E+00 0.  1.
         -2   -1    0    0    0  501 -0.00000000000E+00 -0.00000000000E+00 -0.12664312375E+03  0.12664312375E+03  0.00000000000E+00 0. -1.
         25    2    1    2    0    0  0.75368044516E+02  0.14409863308E+03  0.24651290542E+03  0.32071790212E+03  0.12508637821E+03 0.  0.
          5    1    3    3  502    0  0.65684518276E+02  0.36022132050E+02  0.17577828414E+03  0.19112176096E+03  0.41800000000E+01 0. -1.
         -5    1    3    3    0  502  0.96835262396E+01  0.10807650103E+03  0.70734621282E+02  0.12959614116E+03  0.41800000000E+01 0. -1.
        -11    1    1    2    0    0 -0.80636423626E+02 -0.12908767200E+03  0.30846792348E+02  0.15529772849E+03  0.00000000000E+00 0.  1.
         11    1    1    2    0    0  0.52683791098E+01 -0.15010961086E+02 -0.24998817279E+02  0.29631497372E+02  0.00000000000E+00 0. -1.
</event>
<event>
 7    1  0.2626349E-009  0.1062402E+03  0.7561462E-02  0.1267695E+00
          4   -1    0    0  501    0  0.00000000000E+00  0.00000000000E+00  0.98571301492E+02  0.98571301492E+02  0.00000000000E+00 0.  1.
         -4   -1    0    0    0  501 -0.00000000000E+00 -0.00000000000E+00 -0.20745226830E+03  0.20745226830E+03  0.00000000000E+00 0. -1.
         25    2    1    2    0    0  0.86814561863E+02 -0.11125340100E+01 -0.23932263299E+02  0.15413929476E+03  0.12509261800E+03 0.  0.
          5    1    3    3  502    0  0.34762125422E+02 -0.57115648465E+01  0.51344371506E+02  0.62407885898E+02  0.41800000000E+01 0. -1.
         -5    1    3    3    0  502  0.52052436441E+02  0.45990308365E+01 -0.75276634805E+02  0.91731408861E+02  0.41800000000E+01 0. -1.
        -11    1    1    2    0    0  0.79922529525E+01 -0.24999363725E+02 -0.27416133257E+02  0.37953769993E+02  0.00000000000E+00 0. -1.
         11    1    1    2    0    0 -0.94806814816E+02  0.26111897735E+02 -0.57532570252E+02  0.11393050504E+03  0.00000000000E+00 0.  1.
</event>
<event>
 7    1  0.2626349E-009  0.1917374E+03  0.7561462E-02  0.1156904E+00
         -1   -1    0    0    0  501 -0.00000000000E+00  0.00000000000E+00  0.80083200454E+03  0.80083200454E+03  0.00000000000E+00 0.  1.
          1   -1    0    0  501    0  0.00000000000E+00 -0.00000000000E+00 -0.65960024237E+02  0.65960024237E+02  0.00000000000E+00 0. -1.
         25    2    1    2    0    0  0.36070194017E+02 -0.18356292988E+03  0.54280297303E+03  0.58760438001E+03  0.12508969482E+03 0.  0.
          5    1    3    3  502    0  0.10613009375E+01 -0.11502817133E+03  0.46124373672E+03  0.47539022248E+03  0.41800000000E+01 0.  1.
         -5    1    3    3    0  502  0.35008893080E+02 -0.68534758541E+02  0.81559236307E+02  0.11221415753E+03  0.41800000000E+01 0.  1.
        -11    1    1    2    0    0  0.23354220213E+01  0.91648208909E+02  0.46498236571E+02  0.10279559522E+03  0.00000000000E+00 0. -1.
         11    1    1    2    0    0 -0.38405616039E+02  0.91914720966E+02  0.14557077070E+03  0.17639205355E+03  0.00000000000E+00 0.  1.
</event>
<event>
 7    1  0.2626349E-009  0.2427476E+03  0.7561462E-02  0.1117976E+00
          1   -1    0    0  501    0  0.00000000000E+00  0.00000000000E+00  0.24126307321E+03  0.24126307321E+03  0.00000000000E+00 0. -1.
         -1   -1    0    0    0  501 -0.00000000000E+00 -0.00000000000E+00 -0.34003099488E+03  0.34003099488E+03  0.00000000000E+00 0.  1.
         25    2    1    2    0    0 -0.72156031508E+02 -0.22719793457E+03 -0.16712374570E+03  0.31686707531E+03  0.12509597389E+03 0.  0.
          5    1    3    3  502    0 -0.42569672326E+02 -0.54141833103E+02 -0.11423980550E+03  0.13346055843E+03  0.41800000000E+01 0. -1.
         -5    1    3    3    0  502 -0.29586359182E+02 -0.17305610147E+03 -0.52883940198E+02  0.18340651689E+03  0.41800000000E+01 0. -1.
        -11    1    1    2    0    0  0.16485550899E+02  0.10884321707E+03  0.75420594232E+02  0.13344244199E+03  0.00000000000E+00 0.  1.
         11    1    1    2    0    0  0.55670480610E+02  0.11835471751E+03 -0.70647702022E+01  0.13098455079E+03  0.00000000000E+00 0. -1.
</event>
<event>
 7    1  0.4658649E-009  0.1009698E+03  0.7561462E-02  0.1278270E+00
          1   -1    0    0  501    0  0.00000000000E+00  0.00000000000E+00  0.49023230940E+03  0.49023230940E+03  0.00000000000E+00 0. -1.
         -1   -1    0    0    0  501 -0.00000000000E+00 -0.00000000000E+00 -0.32330543148E+02  0.32330543148E+02  0.00000000000E+00 0.  1.
         25    2    1    2    0    0 -0.39558794445E+02 -0.35883151856E+02  0.18346321728E+03  0.22838233984E+03  0.12508893737E+03 0.  0.
          5    1    3    3  502    0 -0.54413922877E+02 -0.74277806556E+02  0.14543279887E+03  0.17218083208E+03  0.41800000000E+01 0. -1.
         -5    1    3    3    0  502  0.14855128432E+02  0.38394654699E+02  0.38030418408E+02  0.56201507760E+02  0.41800000000E+01 0. -1.
        -11    1    1    2    0    0  0.48884799972E+02  0.30535802543E+02  0.27716108597E+03  0.28309084492E+03  0.00000000000E+00 0. -1.
         11    1    1    2    0    0 -0.93260055270E+01  0.53473493138E+01 -0.27225369944E+01  0.11089667779E+02  0.00000000000E+00 0.  1.
</event>
<event>
 7    1  0.2626349E-009  0.9654099E+02  0.7561462E-02  0.1287743E+00
          1   -1    0    0  501    0  0.00000000000E+00  0.00000000000E+00  0.55323048688E+02  0.55323048688E+02  0.00000000000E+00 0. -1.
         -1   -1    0    0    0  501 -0.00000000000E+00 -0.00000000000E+00 -0.22816587981E+03  0.22816587981E+03  0.00000000000E+00 0.  1.
         25    2    1    2    0    0 -0.26784367474E+02 -0.11225995324E+02 -0.10297449049E+03  0.16460464801E+03  0.12509004414E+03 0.  0.
          5    1    3    3  502    0  0.40397797728E+02 -0.15027109855E+02 -0.84098161561E+02  0.94592649132E+02  0.41800000000E+01 0.  1.
         -5    1    3    3    0  502 -0.67182165202E+02  0.38011145308E+01 -0.18876328929E+02  0.70011998877E+02  0.41800000000E+01 0.  1.
        -11    1    1    2    0    0  0.39623290457E+02 -0.22992030386E+02 -0.72504708876E+01  0.46381116158E+02  0.00000000000E+00 0. -1.
         11    1    1    2    0    0 -0.12838922983E+02  0.34218025710E+02 -0.62617869746E+02  0.72503164334E+02  0.00000000000E+00 0.  1.
</event>
<event>
 7    1  0.2626349E-009  0.7877042E+02  0.7561462E-02  0.1332577E+00
         -2   -1    0    0    0  501 -0.00000000000E+00  0.00000000000E+00  0.24398145642E+02  0.24398145642E+02  0.00000000000E+00 0.  1.
          2   -1    0    0  501    0  0.00000000000E+00 -0.00000000000E+00 -0.53772945432E+03  0.53772945432E+03  0.00000000000E+00 0. -1.
         25    2    1    2    0    0 -0.26918059257E+02  0.21391859195E+01 -0.35554689230E+03  0.37787514554E+03  0.12508746925E+03 0.  0.
          5    1    3    3  502    0  0.15694250918E+02 -0.12252366937E+02 -0.31933196631E+03  0.31997938545E+03  0.41800000000E+01 0.  1.
         -5    1    3    3    0  502 -0.42612310175E+02  0.14391552856E+02 -0.36214925992E+02  0.57895760092E+02  0.41800000000E+01 0.  1.
        -11    1    1    2    0    0 -0.30834825742E+02  0.11104755714E+02 -0.35176505615E+02  0.48077943230E+02  0.00000000000E+00 0. -1.
         11    1    1    2    0    0  0.57752884999E+02 -0.13243941634E+02 -0.12260791077E+03  0.13617451119E+03  0.00000000000E+00 0.  1.
</event>
<event>
 7    1  0.2626349E-009  0.1801873E+03  0.7561462E-02  0.1167622E+00
          1   -1    0    0  501    0  0.00000000000E+00  0.00000000000E+00  0.11115749892E+03  0.11115749892E+03  0.00000000000E+00 0. -1.
         -1   -1    0    0    0  501 -0.00000000000E+00 -0.00000000000E+00 -0.33133957346E+03  0.33133957346E+03  0.00000000000E+00 0.  1.
         25    2    1    2    0    0  0.15379809293E+03  0.22448706545E+01 -0.72902420080E+02  0.21123975626E+03  0.12509428020E+03 0.  0.
          5    1    3    3  502    0 -0.21499745139E+02  0.52366162453E+01 -0.43023723134E+01  0.22926927362E+02  0.41800000000E+01 0. -1.
         -5    1    3    3    0  502  0.17529783807E+03 -0.29917455908E+01 -0.68600047767E+02  0.18831282890E+03  0.41800000000E+01 0. -1.
        -11    1    1    2    0    0 -0.79233638273E+01 -0.14050076513E+02 -0.57141527861E+02  0.59374561478E+02  0.00000000000E+00 0.  1.
         11    1    1    2    0    0 -0.14587472911E+03  0.11805205859E+02 -0.90138126598E+02  0.17188275464E+03  0.00000000000E+00 0. -1.
</event>
<event>
 7    1  0.2626349E-009  0.1445561E+03  0.7561462E-02  0.1207327E+00
          2   -1    0    0  501    0  0.00000000000E+00  0.00000000000E+00  0.10644970195E+03  0.10644970195E+03  0.00000000000E+00 0. -1.
         -2   -1    0    0    0  501 -0.00000000000E+00 -0.00000000000E+00 -0.40192428790E+03  0.40192428790E+03  0.00000000000E+00 0.  1.
         25    2    1    2    0    0  0.12819227363E+00  0.98190092033E+02 -0.33401871268E+03  0.36994260572E+03  0.12509084900E+03 0.  0.
          5    1    3    3  502    0 -0.77775198909E+01 -0.28517052048E+02 -0.90338288405E+02  0.95143001976E+02  0.41800000000E+01 0. -1.
         -5    1    3    3    0  502  0.79057121645E+01  0.12670714408E+03 -0.24368042427E+03  0.27479960375E+03  0.41800000000E+01 0. -1.
        -11    1    1    2    0    0  0.33732024363E+02 -0.91770752914E+02  0.34724652923E+02  0.10375703388E+03  0.00000000000E+00 0.  1.
         11    1    1    2    0    0 -0.33860216637E+02 -0.64193391189E+01  0.38194738058E+01  0.34674350255E+02  0.00000000000E+00 0. -1.
</event>
<event>
 7    1  0.2626349E-009  0.1560129E+03  0.7561462E-02  0.1193273E+00
          2   -1    0    0  501    0  0.00000000000E+00  0.00000000000E+00  0.34406664148E+03  0.34406664148E+03  0.00000000000E+00 0. -1.
         -2   -1    0    0    0  501 -0.00000000000E+00 -0.00000000000E+00 -0.11677442262E+03  0.11677442262E+03  0.00000000000E+00 0.  1.
         25    2    1    2    0    0 -0.63369807024E+02  0.10351092081E+03 -0.14755421078E+02  0.17491485968E+03  0.12508893842E+03 0.  0.
          5    1    3    3  502    0 -0.85258272468E+02  0.23174544597E+02 -0.22258299966E+02  0.91208206094E+02  0.41800000000E+01 0. -1.
         -5    1    3    3    0  502  0.21888465444E+02  0.80336376215E+02  0.75028788881E+01  0.83706653586E+02  0.41800000000E+01 0. -1.
        -11    1    1    2    0    0  0.20929439688E+02 -0.94537840399E+02  0.21226880079E+03  0.23330985513E+03  0.00000000000E+00 0. -1.
         11    1    1    2    0    0  0.42440367336E+02 -0.89730804136E+01  0.29778839154E+02  0.52616349295E+02  0.00000000000E+00 0.  1.
</event>
<event>
 7    1  0.2626349E-009  0.3507924E+03  0.7561462E-02  0.1062290E+00
         -2   -1    0    0    0  501 -0.00000000000E+00  0.00000000000E+00  0.60858378840E+03  0.60858378840E+03  0.00000000000E+00 0. -1.
          2   -1    0    0  501    0  0.00000000000E+00 -0.00000000000E+00 -0.21995756137E+03  0.21995756137E+03  0.00000000000E+00 0.  1.
         25    2    1    2    0    0 -0.34093871919E+03 -0.50061757581E+02  0.13380503815E+03  0.39025207547E+03  0.12508998506E+03 0.  0.
          5    1    3    3  502    0 -0.20125867891E+03 -0.39748425747E+02  0.13607588332E+02  0.20563956829E+03  0.41800000000E+01 0.  1.
         -5    1    3    3    0  502 -0.13968004027E+03 -0.10313331835E+02  0.12019744982E+03  0.18461250718E+03  0.41800000000E+01 0.  1.
        -11    1    1    2    0    0  0.30803277408E+03  0.15307995434E+02  0.21401532866E+03  0.37539457312E+03  0.00000000000E+00 0. -1.
         11    1    1    2    0    0  0.32905945109E+02  0.34753762147E+02  0.40805860224E+02  0.62894701172E+02  0.00000000000E+00 0.  1.
</event>
<event>
 7    1  0.2626349E-009  0.8582687E+02  0.7561462E-02  0.1313284E+00
         -2   -1    0    0    0  501 -0.00000000000E+00  0.00000000000E+00  0.30293806458E+02  0.30293806458E+02  0.00000000000E+00 0.  1.
          2   -1    0    0  501    0  0.00000000000E+00 -0.00000000000E+00 -0.38773168121E+03  0.38773168121E+03  0.00000000000E+00 0. -1.
         25    2    1    2    0    0  0.71041161973E+01  0.11490505974E+02 -0.20895034731E+03  0.24390630641E+03  0.12509012139E+03 0.  0.
          5    1    3    3  502    0  0.16676569457E+02  0.46233786551E+02 -0.22956512918E+02  0.54407213428E+02  0.41800000000E+01 0.  1.
         -5    1    3    3    0  502 -0.95724532592E+01 -0.34743280577E+02 -0.18599383440E+03  0.18949909298E+03  0.41800000000E+01 0.  1.
        -11    1    1    2    0    0 -0.46074820886E+02 -0.93774098511E+01 -0.10846345370E+03  0.11821652052E+03  0.00000000000E+00 0. -1.
         11    1    1    2    0    0  0.38970704689E+02 -0.21130961227E+01 -0.40024073732E+02  0.55902660735E+02  0.00000000000E+00 0.  1.
</event>
<event>
 7    1  0.2626349E-009  0.8102994E+02  0.7561462E-02  0.1326154E+00
         -1   -1    0    0    0  501 -0.00000000000E+00  0.00000000000E+00  0.22132803333E+03  0.22132803333E+03  0.00000000000E+00 0.  1.
          1   -1    0    0  501    0  0.00000000000E+00 -0.00000000000E+00 -0.70082365649E+02  0.70082365649E+02  0.00000000000E+00 0. -1.
         25    2    1    2    0    0 -0.39141312011E+02  0.45972123995E+02  0.10142717766E+03  0.17198884766E+03  0.12508881989E+03 0.  0.
          5    1    3    3  502    0 -0.29501860709E+02  0.13714202418E+02 -0.24902491708E+02  0.41183074515E+02  0.41800000000E+01 0.  1.
         -5    1    3    3    0  502 -0.96394513023E+01  0.32257921577E+02  0.12632966937E+03  0.13080577315E+03  0.41800000000E+01 0.  1.
        -11    1    1    2    0    0 -0.18273039280E+02 -0.31022525891E+02  0.48081076342E+02  0.60067386987E+02  0.00000000000E+00 0.  1.
         11    1    1    2    0    0  0.57414351291E+02 -0.14949598104E+02  0.17374136835E+01  0.59354164335E+02  0.00000000000E+00 0. -1.
</event>
<event>
 7    1  0.2626349E-009  0.1345635E+03  0.7561462E-02  0.1220837E+00
          4   -1    0    0  501    0  0.00000000000E+00  0.00000000000E+00  0.24403831301E+03  0.24403831301E+03  0.00000000000E+00 0. -1.
         -4   -1    0    0    0  501 -0.00000000000E+00 -0.00000000000E+00 -0.10525492740E+03  0.10525492740E+03  0.00000000000E+00 0.  1.
         25    2    1    2    0    0 -0.10787535314E+03 -0.74617351091E+01  0.12449126503E+03  0.20697542136E+03  0.12509188891E+03 0.  0.
          5    1    3    3  502    0  0.17106548447E+01  0.39742980823E+02  0.92861490340E+01  0.41062584290E+02  0.41800000000E+01 0.  1.
         -5    1    3    3    0  502 -0.10958600798E+03 -0.47204715932E+02  0.11520511600E+03  0.16591283707E+03  0.41800000000E+01 0.  1.
        -11    1    1    2    0    0  0.78545782800E+02 -0.29784846448E+01 -0.33367135560E+02  0.85391317485E+02  0.00000000000E+00 0.  1.
         11    1    1    2    0    0  0.29329570339E+02  0.10440219754E+02  0.47659256135E+02  0.56926501563E+02  0.00000000000E+00 0. -1.
</event>
<event>
 7    1  0.2626349E-009  0.1240740E+03  0.7561462E-02  0.1236524E+00
          2   -1    0    0  501    0  0.00000000000E+00  0.00000000000E+00  0.55425500599E+02  0.55425500599E+02  0.00000000000E+00 0. -1.
         -2   -1    0    0    0  501 -0.00000000000E+00 -0.00000000000E+00 -0.36848547635E+03  0.36848547635E+03  0.00000000000E+00 0.  1.
         25    2    1    2    0    0  0.61735022869E+02 -0.14574300558E+02 -0.27164965019E+03  0.30572008375E+03  0.12509042278E+03 0.  0.
          5    1    3    3  502    0  0.75943732700E+02 -0.57152387580E+02 -0.18108842677E+03  0.20455888310E+03  0.41800000000E+01 0. -1.
         -5    1    3    3    0  502 -0.14208709831E+02  0.42578087022E+02 -0.90561223421E+02  0.10116120065E+03  0.41800000000E+01 0. -1.
        -11    1    1    2    0    0 -0.32323383228E+01  0.42835851517E+02 -0.29565590059E+02  0.52148655800E+02  0.00000000000E+00 0.  1.
         11    1    1    2    0    0 -0.58502684546E+02 -0.28261550959E+02 -0.11844735496E+02  0.66042237399E+02  0.00000000000E+00 0. -1.
</event>
<event>
 7    1  0.2626349E-009  0.8271539E+02  0.7561462E-02  0.1321518E+00
         -2   -1    0    0    0  501 -0.00000000000E+00  0.00000000000E+00  0.46468184614E+02  0.46468184614E+02  0.00000000000E+00 0. -1.
          2   -1    0    0  501    0  0.00000000000E+00 -0.00000000000E+00 -0.53705070161E+03  0.53705070161E+03  0.00000000000E+00 0.  1.
         25    2    1    2    0    0  0.49081917612E+01 -0.21084883539E+02 -0.46872920997E+03  0.48561611684E+03  0.12508908024E+03 0.  0.
          5    1    3    3  502    0  0.33481672311E+02 -0.56176288445E+02 -0.38319987206E+03  0.38876266810E+03  0.41800000000E+01 0.  1.
         -5    1    3    3    0  502 -0.28573480549E+02  0.35091404906E+02 -0.85529337909E+02  0.96853448737E+02  0.41800000000E+01 0.  1.
        -11    1    1    2    0    0  0.22182773350E+02  0.14729915280E+02 -0.51045293153E+02  0.57573151649E+02  0.00000000000E+00 0.  1.
         11    1    1    2    0    0 -0.27090965112E+02  0.63549682596E+01  0.29191986129E+02  0.40329617732E+02  0.00000000000E+00 0. -1.
</event>
<event>
 7    1  0.2626349E-009  0.1240796E+03  0.7561462E-02  0.1236515E+00
         -2   -1    0    0    0  501 -0.00000000000E+00  0.00000000000E+00  0.40680691354E+02  0.40680691354E+02  0.00000000000E+00 0.  1.
          2   -1    0    0  501    0  0.00000000000E+00 -0.00000000000E+00 -0.72427869494E+03  0.72427869494E+03  0.00000000000E+00 0. -1.
         25    2    1    2    0    0 -0.49452962822E+02 -0.81070684501E+02 -0.57145066506E+03  0.59263863920E+03  0.12508654068E+03 0.  0.
          5    1    3    3  502    0 -0.63438296840E+02 -0.83341536533E+01 -0.40969244520E+03  0.41467969287E+03  0.41800000000E+01 0. -1.
         -5    1    3    3    0  502  0.13985334018E+02 -0.72736530847E+02 -0.16175821985E+03  0.17795894632E+03  0.41800000000E+01 0. -1.
        -11    1    1    2    0    0 -0.58217718455E+01  0.41420027211E+02 -0.79596748427E+00  0.41834737310E+02  0.00000000000E+00 0.  1.
         11    1    1    2    0    0  0.55274734667E+02  0.39650657290E+02 -0.11135137104E+03  0.13048600978E+03  0.00000000000E+00 0. -1.
</event>
<event>
 7    1  0.2626349E-009  0.1359626E+03  0.7561462E-02  0.1218867E+00
         -1   -1    0    0    0  501 -0.00000000000E+00  0.00000000000E+00  0.41324221147E+03  0.41324221147E+03  0.00000000000E+00 0.  1.
          1   -1    0    0  501    0  0.00000000000E+00 -0.00000000000E+00 -0.53478847408E+02  0.53478847408E+02  0.00000000000E+00 0. -1.
         25    2    1    2    0    0  0.45891086177E+01  0.91797427462E+02  0.23848221474E+03  0.28455334775E+03  0.12509601658E+03 0.  0.
          5    1    3    3  502    0  0.61370900252E+02  0.22708193652E+02  0.95005343038E+02  0.11543629006E+03  0.41800000000E+01 0. -1.
         -5    1    3    3    0  502 -0.56781791634E+02  0.69089233810E+02  0.14347687170E+03  0.16911705769E+03  0.41800000000E+01 0. -1.
        -11    1    1    2    0    0  0.33127854061E+02 -0.54537143692E+02  0.18369142893E+02  0.66401657866E+02  0.00000000000E+00 0. -1.
         11    1    1    2    0    0 -0.37716962678E+02 -0.37260283769E+02  0.10291200643E+03  0.11576605326E+03  0.00000000000E+00 0.  1.
</event>
<event>
 7    1  0.2924876E-009  0.1139239E+03  0.7561462E-02  0.1253471E+00
          2   -1    0    0  501    0  0.00000000000E+00  0.00000000000E+00  0.11059197599E+04  0.11059197599E+04  0.00000000000E+00 0. -1.
         -2   -1    0    0    0  501 -0.00000000000E+00 -0.00000000000E+00 -0.25791604744E+02  0.25791604744E+02  0.00000000000E+00 0.  1.
         25    2    1    2    0    0 -0.46414398961E+02  0.52512860435E+02  0.93824341874E+03  0.94913523250E+03  0.12508029350E+03 0.  0.
          5    1    3    3  502    0  0.12315251956E+02 -0.34871327973E+02  0.29114420557E+03  0.29351336559E+03  0.41800000000E+01 0.  1.
         -5    1    3    3    0  502 -0.58729650917E+02  0.87384188407E+02  0.64709921317E+03  0.65562186691E+03  0.41800000000E+01 0.  1.
        -11    1    1    2    0    0  0.64827545397E+01 -0.43945134023E+02  0.13374982745E+03  0.14093337878E+03  0.00000000000E+00 0. -1.
         11    1    1    2    0    0  0.39931644422E+02 -0.85677264120E+01  0.81349089380E+01  0.41642753337E+02  0.00000000000E+00 0.  1.
</event>
<event>
 7    1  0.2626349E-009  0.7876591E+02  0.7561462E-02  0.1332591E+00
         -1   -1    0    0    0  501 -0.00000000000E+00  0.00000000000E+00  0.13111001223E+03  0.13111001223E+03  0.00000000000E+00 0.  1.
          1   -1    0    0  501    0  0.00000000000E+00 -0.00000000000E+00 -0.15182905706E+03  0.15182905706E+03  0.00000000000E+00 0. -1.
         25    2    1    2    0    0  0.28110970540E+02  0.33039353903E+02  0.67718357598E+02  0.14870974687E+03  0.12508791824E+03 0.  0.
          5    1    3    3  502    0  0.33278321179E+02  0.36323415883E+02  0.10215195692E+03  0.11348714422E+03  0.41800000000E+01 0.  1.
         -5    1    3    3    0  502 -0.51673506394E+01 -0.32840619792E+01 -0.34433599317E+02  0.35222602653E+02  0.41800000000E+01 0.  1.
        -11    1    1    2    0    0 -0.18713868750E+02 -0.64856591662E+02 -0.54356628754E+02  0.86667349418E+02  0.00000000000E+00 0.  1.
         11    1    1    2    0    0 -0.93971017897E+01  0.31817237759E+02 -0.34080773683E+02  0.47561972998E+02  0.00000000000E+00 0. -1.
</event>
<event>
 7    1  0.2626349E-009  0.1165040E+03  0.7561462E-02  0.1248978E+00
          2   -1    0    0  501    0  0.00000000000E+00  0.00000000000E+00  0.11816541904E+04  0.11816541904E+04  0.00000000000E+00 0. -1.
         -2   -1    0    0    0  501 -0.00000000000E+00 -0.00000000000E+00 -0.13156217756E+02  0.13156217756E+02  0.00000000000E+00 0.  1.
         25    2    1    2    0    0  0.53869374499E+02  0.25048508977E+02  0.57831962951E+03  0.59466869787E+03  0.12509168254E+03 0.  0.
          5    1    3    3  502    0 -0.71298089786E+01  0.55284699301E+02  0.39750571299E+03  0.40141686115E+03  0.41800000000E+01 0. -1.
         -5    1    3    3    0  502  0.60999183478E+02 -0.30236190324E+02  0.18081391652E+03  0.19325183672E+03  0.41800000000E+01 0. -1.
        -11    1    1    2    0    0 -0.29796765615E+02  0.33954167206E+02  0.24696331620E+03  0.25106097319E+03  0.00000000000E+00 0.  1.
         11    1    1    2    0    0 -0.24072608884E+02 -0.59002676183E+02  0.34321502695E+03  0.34908073711E+03  0.00000000000E+00 0. -1.
</event>
<event>
 7    1  0.2626349E-009  0.1505025E+03  0.7561462E-02  0.1199857E+00
          2   -1    0    0  501    0  0.00000000000E+00  0.00000000000E+00  0.47470694851E+02  0.47470694851E+02  0.00000000000E+00 0. -1.
         -2   -1    0    0    0  501 -0.00000000000E+00 -0.00000000000E+00 -0.49589430841E+03  0.49589430841E+03  0.00000000000E+00 0.  1.
         25    2    1    2    0    0  0.89510863071E+02 -0.53220743927E+02 -0.27704128057E+03  0.32131329305E+03  0.12508284837E+03 0.  0.
          5    1    3    3  502    0  0.90330982008E+02  0.15195710416E+02 -0.13007291693E+03  0.15914468902E+03  0.41800000000E+01 0. -1.
         -5    1    3    3    0  502 -0.82011893775E+00 -0.68416454344E+02 -0.14696836365E+03  0.16216860403E+03  0.41800000000E+01 0. -1.
        -11    1    1    2    0    0 -0.54168098792E+02 -0.21361590827E+02 -0.62447030942E+02  0.85382270776E+02  0.00000000000E+00 0.  1.
         11    1    1    2    0    0 -0.35342764279E+02  0.74582334754E+02 -0.10893530205E+03  0.13666943944E+03  0.00000000000E+00 0. -1.
</event>
<event>
 7    1  0.2626349E-009  0.2156258E+03  0.7561462E-02  0.1137187E+00
         -1   -1    0    0    0  501 -0.00000000000E+00  0.00000000000E+00  0.12314570026E+03  0.12314570026E+03  0.00000000000E+00 0.  1.
          1   -1    0    0  501    0  0.00000000000E+00 -0.00000000000E+00 -0.57276574196E+03  0.57276574196E+03  0.00000000000E+00 0. -1.
         25    2    1    2    0    0  0.20391215881E+03 -0.34389413408E+02 -0.64892969175E+02  0.25024199587E+03  0.12508860372E+03 0.  0.
          5    1    3    3  502    0  0.65041863881E+02  0.26785051794E+02 -0.68667738122E+02  0.98390109846E+02  0.41800000000E+01 0.  1.
         -5    1    3    3    0  502  0.13887029493E+03 -0.61174465202E+02  0.37747689472E+01  0.15185188602E+03  0.41800000000E+01 0.  1.
        -11    1    1    2    0    0 -0.17342747434E+03  0.17969615289E+02 -0.36800081627E+03  0.40721566363E+03  0.00000000000E+00 0. -1.
         11    1    1    2    0    0 -0.30484684473E+02  0.16419798119E+02 -0.16726256256E+02  0.38453782727E+02  0.00000000000E+00 0.  1.
</event>
<event>
 7    1  0.2626349E-009  0.1070609E+03  0.7561462E-02  0.1266111E+00
          3   -1    0    0  501    0  0.00000000000E+00  0.00000000000E+00  0.43029988355E+03  0.43029988355E+03  0.00000000000E+00 0. -1.
         -3   -1    0    0    0  501 -0.00000000000E+00 -0.00000000000E+00 -0.67161114797E+02  0.67161114797E+02  0.00000000000E+00 0.  1.
         25    2    1    2    0    0  0.55692824015E+02  0.83342224029E+01  0.36609671732E+03  0.39095502973E+03  0.12509148222E+03 0.  0.
          5    1    3    3  502    0  0.83247076583E+02  0.41908620465E+02  0.26026462358E+03  0.27648065920E+03  0.41800000000E+01 0.  1.
         -5    1    3    3    0  502 -0.27554252568E+02 -0.33574398062E+02  0.10583209375E+03  0.11447437052E+03  0.41800000000E+01 0.  1.
        -11    1    1    2    0    0 -0.65302065554E+02 -0.12884252212E+02 -0.33248882389E+02  0.74403305712E+02  0.00000000000E+00 0.  1.
         11    1    1    2    0    0  0.96092415395E+01  0.45500298091E+01  0.30290933814E+02  0.32102662904E+02  0.00000000000E+00 0. -1.
</event>
<event>
 7    1  0.2626349E-009  0.8348707E+02  0.7561462E-02  0.1319437E+00
         -3   -1    0    0    0  501 -0.00000000000E+00  0.00000000000E+00  0.78767568568E+02  0.78767568568E+02  0.00000000000E+00 0.  1.
          3   -1    0    0  501    0  0.00000000000E+00 -0.00000000000E+00 -0.14834660841E+03  0.14834660841E+03  0.00000000000E+00 0. -1.
         25    2    1    2    0    0  0.10705545289E+02 -0.92622043265E+01 -0.32703205868E+02  0.13006836523E+03  0.12509149784E+03 0.  0.
          5    1    3    3  502    0  0.13198202925E+02 -0.63065445266E+02  0.41053865113E+01  0.64697523487E+02  0.41800000000E+01 0.  1.
         -5    1    3    3    0  502 -0.24926576360E+01  0.53803240939E+02 -0.36808592379E+02  0.65370841746E+02  0.41800000000E+01 0.  1.
        -11    1    1    2    0    0  0.10935809877E+02 -0.13234367592E+02 -0.57250258869E+02  0.59768993331E+02  0.00000000000E+00 0. -1.
         11    1    1    2    0    0 -0.21641355166E+02  0.22496571918E+02  0.20374424892E+02  0.37276818415E+02  0.00000000000E+00 0.  1.
</event>
<event>
 7    1  0.2626349E-009  0.9654831E+02  0.7561462E-02  0.1287726E+00
         -2   -1    0    0    0  501 -0.00000000000E+00  0.00000000000E+00  0.56409339985E+03  0.56409339985E+03  0.00000000000E+00 0.  1.
          2   -1    0    0  501    0  0.00000000000E+00 -0.00000000000E+00 -0.23387855478E+02  0.23387855478E+02  0.00000000000E+00 0. -1.
         25    2    1    2    0    0 -0.21516125327E+02 -0.62923669662E+01  0.38044594177E+03  0.40111017933E+03  0.12509086228E+03 0.  0.
          5    1    3    3  502    0 -0.54190699171E+02 -0.39719862744E+02  0.13096586687E+03  0.14725430404E+03  0.41800000000E+01 0.  1.
         -5    1    3    3    0  502  0.32674573844E+02  0.33427495777E+02  0.24948007490E+03  0.25385587529E+03  0.41800000000E+01 0.  1.
        -11    1    1    2    0    0  0.36490819291E+02  0.32368063778E+02  0.14431529943E+03  0.15233573808E+03  0.00000000000E+00 0.  1.
         11    1    1    2    0    0 -0.14974693964E+02 -0.26075696812E+02  0.15944303169E+02  0.34035337917E+02  0.00000000000E+00 0. -1.
</event>
<event>
 7    1  0.2626349E-009  0.1017093E+03  0.7561462E-02  0.1276742E+00
          2   -1    0    0  501    0  0.00000000000E+00  0.00000000000E+00  0.39888763727E+03  0.39888763727E+03  0.00000000000E+00 0. -1.
         -2   -1    0    0    0  501 -0.00000000000E+00 -0.00000000000E+00 -0.42335435104E+02  0.42335435104E+02  0.00000000000E+00 0.  1.
         25    2    1    2    0    0 -0.51439717930E+02  0.47906907529E+02  0.18095542667E+03  0.23093947036E+03  0.12508819352E+03 0.  0.
          5    1    3    3  502    0  0.15020134350E+02  0.17140527168E+02 -0.10850257958E+02  0.25585202858E+02  0.41800000000E+01 0. -1.
         -5    1    3    3    0  502 -0.66459852280E+02  0.30766380360E+02  0.19180568462E+03  0.20535426750E+03  0.41800000000E+01 0. -1.
        -11    1    1    2    0    0 -0.15082287578E+02  0.10493038523E+02  0.70600336095E+02  0.72951947971E+02  0.00000000000E+00 0. -1.
         11    1    1    2    0    0  0.66522005508E+02 -0.58399946052E+02  0.10499643941E+03  0.13733165405E+03  0.00000000000E+00 0.  1.
</event>
<event>
 7    1  0.2626349E-009  0.1203817E+03  0.7561462E-02  0.1242469E+00
          2   -1    0    0  501    0  0.00000000000E+00  0.00000000000E+00  0.23418173584E+03  0.23418173584E+03  0.00000000000E+00 0.  1.
         -2   -1    0    0    0  501 -0.00000000000E+00 -0.00000000000E+00 -0.10001577770E+03  0.10001577770E+03  0.00000000000E+00 0. -1.
         25    2    1    2    0    0  0.70011443352E+02  0.76386215452E+02  0.37803086160E+02  0.16677266181E+03  0.12509033253E+03 0.  0.
          5    1    3    3  502    0  0.33758474564E+02  0.41640173145E+02 -0.44818452713E+02  0.69997890883E+02  0.41800000000E+01 0. -1.
         -5    1    3    3    0  502  0.36252968788E+02  0.34746042306E+02  0.82621538873E+02  0.96774770925E+02  0.41800000000E+01 0. -1.
        -11    1    1    2    0    0 -0.88755168825E+02 -0.43706549452E+02  0.64680862462E+02  0.11820049250E+03  0.00000000000E+00 0. -1.
         11    1    1    2    0    0  0.18743725473E+02 -0.32679666000E+02  0.31682009518E+02  0.49224359230E+02  0.00000000000E+00 0.  1.
</event>
<event>
 7    1  0.2626349E-009  0.3905542E+03  0.7561462E-02  0.1047100E+00
         -1   -1    0    0    0  501 -0.00000000000E+00  0.00000000000E+00  0.65417583004E+03  0.65417583004E+03  0.00000000000E+00 0.  1.
          1   -1    0    0  501    0  0.00000000000E+00 -0.00000000000E+00 -0.25645667607E+03  0.25645667607E+03  0.00000000000E+00 0. -1.
         25    2    1    2    0    0  0.28184025001E+03  0.26263387855E+03  0.10353542538E+03  0.41806262391E+03  0.12508514107E+03 0.  0.
          5    1    3    3  502    0  0.27610341344E+03  0.25410907642E+03  0.12363544786E+03  0.39510468739E+03  0.41800000000E+01 0.  1.
         -5    1    3    3    0  502  0.57368365670E+01  0.85248021343E+01 -0.20100022486E+02  0.22957936518E+02  0.41800000000E+01 0.  1.
        -11    1    1    2    0    0 -0.19806438909E+03 -0.12684520027E+03  0.18493383244E+03  0.29919847834E+03  0.00000000000E+00 0. -1.
         11    1    1    2    0    0 -0.83775860919E+02 -0.13578867828E+03  0.10924989615E+03  0.19337140386E+03  0.00000000000E+00 0.  1.
</event>
<event>
 7    1  0.2626349E-009  0.7242112E+02  0.7561462E-02  0.1352048E+00
         -3   -1    0    0    0  501 -0.00000000000E+00  0.00000000000E+00  0.82726539402E+02  0.82726539402E+02  0.00000000000E+00 0.  1.
          3   -1    0    0  501    0  0.00000000000E+00 -0.00000000000E+00 -0.12990448432E+03  0.12990448432E+03  0.00000000000E+00 0. -1.
         25    2    1    2    0    0  0.27004438102E+02  0.34426822728E+02 -0.39155730863E+02  0.13818691988E+03  0.12509199721E+03 0.  0.
          5    1    3    3  502    0 -0.16548586717E+02 -0.14855028631E+02  0.33289426238E+02  0.40251532856E+02  0.41800000000E+01 0.  1.
         -5    1    3    3    0  502  0.43553024819E+02  0.49281851359E+02 -0.72445157101E+02  0.97935387025E+02  0.41800000000E+01 0.  1.
        -11    1    1    2    0    0 -0.32029376176E+02 -0.13443138745E+02 -0.28322075162E+02  0.44818956470E+02  0.00000000000E+00 0.  1.
         11    1    1    2    0    0  0.50249380741E+01 -0.20983683983E+02  0.20299861104E+02  0.29625147375E+02  0.00000000000E+00 0. -1.
</event>
<event>
 7    1  0.2626349E-009  0.8998158E+02  0.7561462E-02  0.1302896E+00
         -1   -1    0    0    0  501 -0.00000000000E+00  0.00000000000E+00  0.18095158126E+03  0.18095158126E+03  0.00000000000E+00 0. -1.
          1   -1    0    0  501    0  0.00000000000E+00 -0.00000000000E+00 -0.10980182169E+03  0.10980182169E+03  0.00000000000E+00 0.  1.
         25    2    1    2    0    0 -0.30076601820E+02  0.71280172127E+02 -0.88072123113E+00  0.14708471119E+03  0.12509065385E+03 0.  0.
          5    1    3    3  502    0  0.47071706758E+01  0.13823140126E+02  0.56587233594E+02  0.58590306916E+02  0.41800000000E+01 0. -1.
         -5    1    3    3    0  502 -0.34783772495E+02  0.57457032002E+02 -0.57467954825E+02  0.88494404271E+02  0.41800000000E+01 0. -1.
        -11    1    1    2    0    0  0.43212759858E+02 -0.26226223601E+02 -0.77199287205E+01  0.51134672370E+02  0.00000000000E+00 0.  1.
         11    1    1    2    0    0 -0.13136158038E+02 -0.45053948526E+02  0.79750409520E+02  0.92534019390E+02  0.00000000000E+00 0. -1.
</event>
<event>
 7    1  0.2626349E-009  0.3466742E+03  0.7561462E-02  0.1063988E+00
          1   -1    0    0  501    0  0.00000000000E+00  0.00000000000E+00  0.17788000123E+03  0.17788000123E+03  0.00000000000E+00 0. -1.
         -1   -1    0    0    0  501 -0.00000000000E+00 -0.00000000000E+00 -0.73785925978E+03  0.73785925978E+03  0.00000000000E+00 0.  1.
         25    2    1    2    0    0 -0.25842163723E+03 -0.22651655883E+03 -0.24033783851E+03  0.43760842723E+03  0.12508942782E+03 0.  0.
          5    1    3    3  502    0 -0.44388328841E+02 -0.60170209590E+02 -0.11896314647E+03  0.14057197615E+03  0.41800000000E+01 0. -1.
         -5    1    3    3    0  502 -0.21403330839E+03 -0.16634634924E+03 -0.12137469204E+03  0.29703645108E+03  0.41800000000E+01 0. -1.
        -11    1    1    2    0    0  0.17182584486E+03  0.11763957186E+03 -0.14001350886E+03  0.25093220696E+03  0.00000000000E+00 0. -1.
         11    1    1    2    0    0  0.86595792375E+02  0.10887698697E+03 -0.17962791119E+03  0.22719862681E+03  0.00000000000E+00 0.  1.
</event>
<event>
 7    1  0.3148884E-009  0.1961924E+03  0.7561462E-02  0.1152992E+00
         -1   -1    0    0    0  501 -0.00000000000E+00  0.00000000000E+00  0.18182583457E+03  0.18182583457E+03  0.00000000000E+00 0.  1.
          1   -1    0    0  501    0  0.00000000000E+00 -0.00000000000E+00 -0.23523698004E+03  0.23523698004E+03  0.00000000000E+00 0. -1.
         25    2    1    2    0    0  0.17374066628E+03 -0.12057683435E+02 -0.50973284491E+02  0.22040020562E+03  0.12508704191E+03 0.  0.
          5    1    3    3  502    0  0.86884377866E+02  0.40998381328E+02  0.17389434028E+02  0.97722194022E+02  0.41800000000E+01 0.  1.
         -5    1    3    3    0  502  0.86856288419E+02 -0.53056064762E+02 -0.68362718519E+02  0.12267801160E+03  0.41800000000E+01 0.  1.
        -11    1    1    2    0    0 -0.55287045197E+02  0.45136222330E+02  0.13535828033E+02  0.72644026412E+02  0.00000000000E+00 0.  1.
         11    1    1    2    0    0 -0.11845362109E+03 -0.33078538895E+02 -0.15973689004E+02  0.12401858258E+03  0.00000000000E+00 0. -1.
</event>
<event>
 7    1  0.2626349E-009  0.1316032E+03  0.7561462E-02  0.1225096E+00
          1   -1    0    0  501    0  0.00000000000E+00  0.00000000000E+00  0.37178006870E+03  0.37178006870E+03  0.00000000000E+00 0. -1.
         -1   -1    0    0    0  501 -0.00000000000E+00 -0.00000000000E+00 -0.68373101994E+02  0.68373101994E+02  0.00000000000E+00 0.  1.
         25    2    1    2    0    0  0.98970486386E+02 -0.44126966639E+02  0.22019088509E+03  0.27545490645E+03  0.12509609605E+03 0.  0.
          5    1    3    3  502    0  0.47087819625E+02  0.94962446661E+01  0.59850577666E+01  0.48587392771E+02  0.41800000000E+01 0. -1.
         -5    1    3    3    0  502  0.51882666760E+02 -0.53623211305E+02  0.21420582733E+03  0.22686751368E+03  0.41800000000E+01 0. -1.
        -11    1    1    2    0    0 -0.32897631450E+02 -0.27450959162E+02  0.38141295617E+02  0.57363470478E+02  0.00000000000E+00 0.  1.
         11    1    1    2    0    0 -0.66072854935E+02  0.71577925801E+02  0.45074785999E+02  0.10733479377E+03  0.00000000000E+00 0. -1.
</event>
<event>
 7    1  0.2626349E-009  0.1199775E+03  0.7561462E-02  0.1243134E+00
          2   -1    0    0  501    0  0.00000000000E+00  0.00000000000E+00  0.48995496353E+03  0.48995496353E+03  0.00000000000E+00 0. -1.
         -2   -1    0    0    0  501 -0.00000000000E+00 -0.00000000000E+00 -0.37772103576E+02  0.37772103576E+02  0.00000000000E+00 0.  1.
         25    2    1    2    0    0  0.12205789727E+02 -0.59577125820E+02  0.35359612287E+03  0.37996983539E+03  0.12509373474E+03 0.  0.
          5    1    3    3  502    0 -0.55255544142E+02 -0.26796675026E+02  0.19497048833E+03  0.20445586484E+03  0.41800000000E+01 0. -1.
         -5    1    3    3    0  502  0.67461333869E+02 -0.32780450794E+02  0.15862563455E+03  0.17551397055E+03  0.41800000000E+01 0. -1.
        -11    1    1    2    0    0  0.27343644255E+02  0.57509181012E+02  0.84316927769E+02  0.10566136991E+03  0.00000000000E+00 0. -1.
         11    1    1    2    0    0 -0.39549433982E+02  0.20679448078E+01  0.14269809316E+02  0.42095861815E+02  0.00000000000E+00 0.  1.
</event>
<event>
 7    1  0.2626349E-009  0.1064123E+03  0.7561462E-02  0.1267362E+00
          3   -1    0    0  501    0  0.00000000000E+00  0.00000000000E+00  0.80559359053E+02  0.80559359053E+02  0.00000000000E+00 0. -1.
         -3   -1    0    0    0  501 -0.00000000000E+00 -0.00000000000E+00 -0.17804636590E+03  0.17804636590E+03  0.00000000000E+00 0.  1.
         25    2    1    2    0    0 -0.64219457799E+01  0.26679692952E+02 -0.96979090032E+02  0.16065671379E+03  0.12511030485E+03 0.  0.
          5    1    3    3  502    0 -0.26259502424E+02  0.66530240464E+02 -0.24927017656E+02  0.75859494942E+02  0.41800000000E+01 0. -1.
         -5    1    3    3    0  502  0.19837556644E+02 -0.39850547511E+02 -0.72052072376E+02  0.84797218847E+02  0.41800000000E+01 0. -1.
        -11    1    1    2    0    0 -0.22026692948E+02 -0.53196381117E+02 -0.86302908352E+01  0.58219516367E+02  0.00000000000E+00 0. -1.
         11    1    1    2    0    0  0.28448638728E+02  0.26516688164E+02  0.81223740245E+01  0.39729494792E+02  0.00000000000E+00 0.  1.
</event>
<event>
 7    1  0.2626349E-009  0.1040091E+03  0.7561462E-02  0.1272084E+00
         -4   -1    0    0    0  501 -0.00000000000E+00  0.00000000000E+00  0.28699699658E+02  0.28699699658E+02  0.00000000000E+00 0.  1.
          4   -1    0    0  501    0  0.00000000000E+00 -0.00000000000E+00 -0.61405808825E+03  0.61405808825E+03  0.00000000000E+00 0. -1.
         25    2    1    2    0    0 -0.61972773268E+02 -0.41782439000E+02 -0.27812586303E+03  0.31398898983E+03  0.12509473695E+03 0.  0.
          5    1    3    3  502    0 -0.57256190788E+02 -0.66022313575E+02 -0.27520013067E+03  0.28877292393E+03  0.41800000000E+01 0. -1.
         -5    1    3    3    0  502 -0.47165824801E+01  0.24239874575E+02 -0.29257323623E+01  0.25216065902E+02  0.41800000000E+01 0. -1.
        -11    1    1    2    0    0  0.53173814830E+01 -0.14607971418E+02 -0.52847758989E+01  0.16419385831E+02  0.00000000000E+00 0.  1.
         11    1    1    2    0    0  0.56655391785E+02  0.56390410417E+02 -0.30194774966E+03  0.31234941225E+03  0.00000000000E+00 0. -1.
</event>
<event>
 7    1  0.2626349E-009  0.2267953E+03  0.7561462E-02  0.1128916E+00
         -2   -1    0    0    0  501 -0.00000000000E+00  0.00000000000E+00  0.73452734123E+02  0.73452734123E+02  0.00000000000E+00 0.  1.
          2   -1    0    0  501    0  0.00000000000E+00 -0.00000000000E+00 -0.79270339958E+03  0.79270339958E+03  0.00000000000E+00 0. -1.
         25    2    1    2    0    0  0.76564444323E+02  0.19677705510E+03 -0.44703636459E+03  0.50997264554E+03  0.12508902583E+03 0.  0.
          5    1    3    3  502    0  0.81708777518E+00  0.15037102562E+03 -0.22364318796E+03  0.26952896115E+03  0.41800000000E+01 0. -1.
         -5    1    3    3    0  502  0.75747356548E+02  0.46406029478E+02 -0.22339317663E+03  0.24044368439E+03  0.41800000000E+01 0. -1.
        -11    1    1    2    0    0 -0.27781954451E+02 -0.12069040694E+03 -0.21818419260E+03  0.25088314655E+03  0.00000000000E+00 0.  1.
         11    1    1    2    0    0 -0.48782489871E+02 -0.76086648156E+02 -0.54030108265E+02  0.10530034162E+03  0.00000000000E+00 0. -1.
</event>
<event>
 7    1  0.2626349E-009  0.3102656E+03  0.7561462E-02  0.1080219E+00
         -2   -1    0    0    0  501 -0.00000000000E+00  0.00000000000E+00  0.91201037514E+02  0.91201037514E+02  0.00000000000E+00 0.  1.
          2   -1    0    0  501    0  0.00000000000E+00 -0.00000000000E+00 -0.10908281264E+04  0.10908281264E+04  0.00000000000E+00 0. -1.
         25    2    1    2    0    0 -0.17753660891E+03 -0.23614115051E+03 -0.47577798648E+03  0.57384165481E+03  0.12509061477E+03 0.  0.
          5    1    3    3  502    0 -0.14928839830E+03 -0.95580800715E+02 -0.26941169779E+03  0.32252573640E+03  0.41800000000E+01 0. -1.
         -5    1    3    3    0  502 -0.28248210607E+02 -0.14056034980E+03 -0.20636628869E+03  0.25131591841E+03  0.41800000000E+01 0. -1.
        -11    1    1    2    0    0  0.93682720803E+00  0.22866614178E+02 -0.94957771425E+02  0.97676701640E+02  0.00000000000E+00 0. -1.
         11    1    1    2    0    0  0.17659978170E+03  0.21327453633E+03 -0.42889133095E+03  0.51051080744E+03  0.00000000000E+00 0.  1.
</event>
<event>
 7    1  0.2626349E-009  0.1047571E+03  0.7561462E-02  0.1270599E+00
         -1   -1    0    0    0  501 -0.00000000000E+00  0.00000000000E+00  0.74428142254E+02  0.74428142254E+02  0.00000000000E+00 0.  1.
          1   -1    0    0  501    0  0.00000000000E+00 -0.00000000000E+00 -0.19413134344E+03  0.19413134344E+03  0.00000000000E+00 0. -1.
         25    2    1    2    0    0 -0.16530235166E+02 -0.52498379910E+02 -0.59732157075E+02  0.14914699276E+03  0.12509023260E+03 0.  0.
          5    1    3    3  502    0 -0.58217536489E+00  0.38970584676E+02 -0.10176321520E+01  0.39211648439E+02  0.41800000000E+01 0.  1.
         -5    1    3    3    0  502 -0.15948059801E+02 -0.91468964586E+02 -0.58714524923E+02  0.10993534432E+03  0.41800000000E+01 0.  1.
        -11    1    1    2    0    0 -0.88682409212E+01 -0.78841682577E+01  0.15472107581E+02  0.19498510690E+02  0.00000000000E+00 0.  1.
         11    1    1    2    0    0  0.25398476087E+02  0.60382548168E+02 -0.75443151692E+02  0.99913982245E+02  0.00000000000E+00 0. -1.
</event>
<event>
 7    1  0.2626349E-009  0.1047076E+03  0.7561462E-02  0.1270697E+00
          1   -1    0    0  501    0  0.00000000000E+00  0.00000000000E+00  0.20026268693E+03  0.20026268693E+03  0.00000000000E+00 0. -1.
         -1   -1    0    0    0  501 -0.00000000000E+00 -0.00000000000E+00 -0.83618394204E+02  0.83618394204E+02  0.00000000000E+00 0.  1.
         25    2    1    2    0    0  0.57891063487E+02 -0.29330766805E+02  0.97485598229E+02  0.17136015354E+03  0.12509672756E+03 0.  0.
          5    1    3    3  502    0  0.41995237424E+02  0.29008390144E+02 -0.58673704114E+01  0.51545951350E+02  0.41800000000E+01 0.  1.
         -5    1    3    3    0  502  0.15895826063E+02 -0.58339156949E+02  0.10335296864E+03  0.11981420219E+03  0.41800000000E+01 0.  1.
        -11    1    1    2    0    0 -0.60846360355E+02  0.48740193433E+02 -0.86940033208E+01  0.78444067450E+02  0.00000000000E+00 0.  1.
         11    1    1    2    0    0  0.29552968681E+01 -0.19409426628E+02  0.27852697822E+02  0.34076860148E+02  0.00000000000E+00 0. -1.
</event>
<event>
 7    1  0.2626349E-009  0.1055468E+03  0.7561462E-02  0.1269046E+00
         -1   -1    0    0    0  501 -0.00000000000E+00  0.00000000000E+00  0.15146794960E+03  0.15146794960E+03  0.00000000000E+00 0.  1.
          1   -1    0    0  501    0  0.00000000000E+00 -0.00000000000E+00 -0.11384990234E+03  0.11384990234E+03  0.00000000000E+00 0. -1.
         25    2    1    2    0    0 -0.33299545308E+02 -0.43967073262E+02  0.69924730789E+02  0.15356833841E+03  0.12510716741E+03 0.  0.
          5    1    3    3  502    0  0.10205303696E+02  0.23969507772E+02  0.67807393889E+02  0.72759883125E+02  0.41800000000E+01 0. -1.
         -5    1    3    3    0  502 -0.43504849004E+02 -0.67936581034E+02  0.21173368997E+01  0.80808455282E+02  0.41800000000E+01 0. -1.
        -11    1    1    2    0    0  0.63728899250E+02  0.30513323910E+02 -0.34048716813E+02  0.78433096664E+02  0.00000000000E+00 0. -1.
         11    1    1    2    0    0 -0.30429353942E+02  0.13453749352E+02  0.17420332909E+01  0.33316416868E+02  0.00000000000E+00 0.  1.
</event>
<event>
 7    1  0.2626349E-009  0.2139332E+03  0.7561462E-02  0.1138489E+00
          2   -1    0    0  501    0  0.00000000000E+00  0.00000000000E+00  0.69795831520E+03  0.69795831520E+03  0.00000000000E+00 0. -1.
         -2   -1    0    0    0  501 -0.00000000000E+00 -0.00000000000E+00 -0.75102562530E+02  0.75102562530E+02  0.00000000000E+00 0.  1.
         25    2    1    2    0    0 -0.15732843740E+02 -0.20110577127E+03  0.33144040985E+03  0.40766436489E+03  0.12508571264E+03 0.  0.
          5    1    3    3  502    0  0.26316979765E+02 -0.17332302811E+03  0.30179620491E+03  0.34904423386E+03  0.41800000000E+01 0.  1.
         -5    1    3    3    0  502 -0.42049823505E+02 -0.27782743161E+02  0.29644204941E+02  0.58620131021E+02  0.41800000000E+01 0.  1.
        -11    1    1    2    0    0  0.49918974988E+01  0.24538319402E+02  0.64953208405E+00  0.25049352320E+02  0.00000000000E+00 0.  1.
         11    1    1    2    0    0  0.10740946241E+02  0.17656745187E+03  0.29076581074E+03  0.34034716053E+03  0.00000000000E+00 0. -1.
</event>
<event>
 7    1  0.2626349E-009  0.1179454E+03  0.7561462E-02  0.1246526E+00
          3   -1    0    0  501    0  0.00000000000E+00  0.00000000000E+00  0.71848512567E+02  0.71848512567E+02  0.00000000000E+00 0. -1.
         -3   -1    0    0    0  501 -0.00000000000E+00 -0.00000000000E+00 -0.25069146423E+03  0.25069146423E+03  0.00000000000E+00 0.  1.
         25    2    1    2    0    0 -0.47803804500E+02 -0.32193634879E+02 -0.16354168574E+03  0.21381222121E+03  0.12509256218E+03 0.  0.
          5    1    3    3  502    0 -0.64628527544E+02 -0.64901362364E+02 -0.77164176040E+02  0.11983662159E+03  0.41800000000E+01 0. -1.
         -5    1    3    3    0  502  0.16824723044E+02  0.32707727485E+02 -0.86377509699E+02  0.93975599624E+02  0.41800000000E+01 0. -1.
        -11    1    1    2    0    0 -0.22743052142E+02  0.28609340977E+02 -0.10000455537E+02  0.37891290857E+02  0.00000000000E+00 0.  1.
         11    1    1    2    0    0  0.70546856643E+02  0.35842939016E+01 -0.53008103900E+01  0.70836464732E+02  0.00000000000E+00 0. -1.
</event>
<event>
 7    1  0.2626349E-009  0.1207309E+03  0.7561462E-02  0.1241896E+00
          2   -1    0    0  501    0  0.00000000000E+00  0.00000000000E+00  0.44181983545E+03  0.44181983545E+03  0.00000000000E+00 0. -1.
         -2   -1    0    0    0  501 -0.00000000000E+00 -0.00000000000E+00 -0.35329395914E+02  0.35329395914E+02  0.00000000000E+00 0.  1.
         25    2    1    2    0    0  0.11129129720E+02  0.57790860951E+02  0.26749362500E+03  0.30110624201E+03  0.12509391842E+03 0.  0.
          5    1    3    3  502    0 -0.39619549705E+02  0.72829936728E+02  0.13649875390E+03  0.15976010334E+03  0.41800000000E+01 0.  1.
         -5    1    3    3    0  502  0.50748679425E+02 -0.15039075777E+02  0.13099487110E+03  0.14134613868E+03  0.41800000000E+01 0.  1.
        -11    1    1    2    0    0 -0.48837690565E+02 -0.22751112216E+02  0.51525441627E+02  0.74549341121E+02  0.00000000000E+00 0.  1.
         11    1    1    2    0    0  0.37708560845E+02 -0.35039748735E+02  0.87471372913E+02  0.10149364823E+03  0.00000000000E+00 0. -1.
</event>
<event>
 7    1  0.2626349E-009  0.1303328E+03  0.7561462E-02  0.1226963E+00
         -3   -1    0    0    0  501 -0.00000000000E+00  0.00000000000E+00  0.37429617406E+03  0.37429617406E+03  0.00000000000E+00 0.  1.
          3   -1    0    0  501    0  0.00000000000E+00 -0.00000000000E+00 -0.54724704575E+02  0.54724704575E+02  0.00000000000E+00 0. -1.
         25    2    1    2    0    0  0.92383002972E+02 -0.17045753577E+01  0.18697893185E+03  0.24319876833E+03  0.12508794965E+03 0.  0.
          5    1    3    3  502    0  0.55643752788E+02 -0.50782626011E+02  0.15835508436E+03  0.17541068232E+03  0.41800000000E+01 0.  1.
         -5    1    3    3    0  502  0.36739250184E+02  0.49078050653E+02  0.28623847491E+02  0.67788086012E+02  0.41800000000E+01 0.  1.
        -11    1    1    2    0    0 -0.61729228696E+02 -0.38846047956E+02  0.10539552560E+03  0.12817070623E+03  0.00000000000E+00 0.  1.
         11    1    1    2    0    0 -0.30653774276E+02  0.40550623314E+02  0.27197012024E+02  0.57651404073E+02  0.00000000000E+00 0. -1.
</event>
<event>
 7    1  0.2626349E-009  0.1095920E+03  0.7561462E-02  0.1261327E+00
         -2   -1    0    0    0  501 -0.00000000000E+00  0.00000000000E+00  0.84900320309E+02  0.84900320309E+02  0.00000000000E+00 0.  1.
          2   -1    0    0  501    0  0.00000000000E+00 -0.00000000000E+00 -0.16803805244E+03  0.16803805244E+03  0.00000000000E+00 0. -1.
         25    2    1    2    0    0  0.93999836176E+01  0.37971669942E+01 -0.89221022234E+02  0.15398449105E+03  0.12509218403E+03 0.  0.
          5    1    3    3  502    0 -0.56643647424E+02  0.36858278253E+01 -0.26409814928E+02  0.62745827309E+02  0.41800000000E+01 0.  1.
         -5    1    3    3    0  502  0.66043631041E+02  0.11133916895E+00 -0.62811207306E+02  0.91238663738E+02  0.41800000000E+01 0.  1.
        -11    1    1    2    0    0  0.31087806826E+02 -0.33631192450E+02  0.14333673588E+02  0.47989197090E+02  0.00000000000E+00 0. -1.
         11    1    1    2    0    0 -0.40487790443E+02  0.29834025456E+02 -0.82503834867E+01  0.50964684612E+02  0.00000000000E+00 0.  1.
</event>
<event>
 7    1  0.2626349E-009  0.1435542E+03  0.7561462E-02  0.1208625E+00
          1   -1    0    0  501    0  0.00000000000E+00  0.00000000000E+00  0.30340424139E+03  0.30340424139E+03  0.00000000000E+00 0. -1.
         -1   -1    0    0    0  501 -0.00000000000E+00 -0.00000000000E+00 -0.87396911660E+02  0.87396911660E+02  0.00000000000E+00 0.  1.
         25    2    1    2    0    0  0.12127623617E+03  0.94987242058E+00  0.12201962977E+03  0.21270919368E+03  0.12509030061E+03 0.  0.
          5    1    3    3  502    0  0.13739313797E+03  0.11684272421E+02  0.13164308029E+03  0.19068500091E+03  0.41800000000E+01 0. -1.
         -5    1    3    3    0  502 -0.16116901801E+02 -0.10734400000E+02 -0.96234505220E+01  0.22024192765E+02  0.41800000000E+01 0. -1.
        -11    1    1    2    0    0 -0.75734196159E+02 -0.22438580767E+02  0.99938193788E+02  0.12738446119E+03  0.00000000000E+00 0.  1.
         11    1    1    2    0    0 -0.45542040013E+02  0.21488708346E+02 -0.59504938305E+01  0.50707498181E+02  0.00000000000E+00 0. -1.
</event>
<event>
 7    1  0.2626349E-009  0.1257350E+03  0.7561462E-02  0.1233925E+00
         -2   -1    0    0    0  501 -0.00000000000E+00  0.00000000000E+00  0.54143088340E+02  0.54143088340E+02  0.00000000000E+00 0.  1.
          2   -1    0    0  501    0  0.00000000000E+00 -0.00000000000E+00 -0.40239411577E+03  0.40239411577E+03  0.00000000000E+00 0. -1.
         25    2    1    2    0    0 -0.88907999674E+02 -0.33249877709E+02 -0.23833565597E+03  0.28541447992E+03  0.12508938272E+03 0.  0.
          5    1    3    3  502    0  0.30083576233E+02  0.55833936342E+01 -0.35726004357E+02  0.47223041312E+02  0.41800000000E+01 0. -1.
         -5    1    3    3    0  502 -0.11899157591E+03 -0.38833271343E+02 -0.20260965162E+03  0.23819143861E+03  0.41800000000E+01 0. -1.
        -11    1    1    2    0    0  0.64064017097E+02  0.28213085605E+02 -0.13320963046E+02  0.71257452540E+02  0.00000000000E+00 0.  1.
         11    1    1    2    0    0  0.24843982577E+02  0.50367921041E+01 -0.96594408410E+02  0.99865271646E+02  0.00000000000E+00 0. -1.
</event>
<event>
 7    1  0.2626349E-009  0.6320709E+02  0.7561462E-02  0.1384845E+00
          1   -1    0    0  501    0  0.00000000000E+00  0.00000000000E+00  0.38494087685E+03  0.38494087685E+03  0.00000000000E+00 0. -1.
         -1   -1    0    0    0  501 -0.00000000000E+00 -0.00000000000E+00 -0.28582559432E+02  0.28582559432E+02  0.00000000000E+00 0.  1.
         25    2    1    2    0    0  0.78899851684E+01  0.22660802964E+02  0.19339739385E+03  0.23157397767E+03  0.12509273092E+03 0.  0.
          5    1    3    3  502    0 -0.17485093163E+02 -0.81209205210E+00  0.19584428478E+03  0.19666937804E+03  0.41800000000E+01 0.  1.
         -5    1    3    3    0  502  0.25375078331E+02  0.23472895016E+02 -0.24468909258E+01  0.34904599639E+02  0.41800000000E+01 0.  1.
        -11    1    1    2    0    0 -0.90779635921E+01 -0.47687800955E+02  0.66786588686E+02  0.82565030196E+02  0.00000000000E+00 0.  1.
         11    1    1    2    0    0  0.11879784238E+01  0.25026997992E+02  0.96174334880E+02  0.99384428412E+02  0.00000000000E+00 0. -1.
</event>
<event>
 7    1  0.2626349E-009  0.1045276E+03  0.7561462E-02  0.1271053E+00
          2   -1    0    0  501    0  0.00000000000E+00  0.00000000000E+00  0.27154602756E+03  0.27154602756E+03  0.00000000000E+00 0. -1.
         -2   -1    0    0    0  501 -0.00000000000E+00 -0.00000000000E+00 -0.93725015174E+02  0.93725015174E+02  0.00000000000E+00 0.  1.
         25    2    1    2    0    0 -0.23383704043E+01  0.92693359948E+02  0.12488083158E+02  0.15621390407E+03  0.12509718081E+03 0.  0.
          5    1    3    3  502    0 -0.14710032083E+02  0.31398693470E+01 -0.45920538498E+02  0.48501670892E+02  0.41800000000E+01 0.  1.
         -5    1    3    3    0  502  0.12371661679E+02  0.89553490601E+02  0.58408621655E+02  0.10771223317E+03  0.41800000000E+01 0.  1.
        -11    1    1    2    0    0 -0.20749577791E+02 -0.54466615707E+02  0.28031275479E+02  0.64675417355E+02  0.00000000000E+00 0. -1.
         11    1    1    2    0    0  0.23087948196E+02 -0.38226744241E+02  0.13730165375E+03  0.14438172132E+03  0.00000000000E+00 0.  1.
</event>
<event>
 7    1  0.2626349E-009  0.8478607E+02  0.7561462E-02  0.1315993E+00
          1   -1    0    0  501    0  0.00000000000E+00  0.00000000000E+00  0.39451237161E+03  0.39451237161E+03  0.00000000000E+00 0. -1.
         -1   -1    0    0    0  501 -0.00000000000E+00 -0.00000000000E+00 -0.29597560866E+02  0.29597560866E+02  0.00000000000E+00 0.  1.
         25    2    1    2    0    0 -0.10099597567E+01 -0.16417794578E+02  0.20217177137E+03  0.23831274362E+03  0.12509586179E+03 0.  0.
          5    1    3    3  502    0 -0.19601690160E+02 -0.48428297110E+02  0.26492159757E+02  0.58726766867E+02  0.41800000000E+01 0. -1.
         -5    1    3    3    0  502  0.18591730403E+02  0.32010502532E+02  0.17567961161E+03  0.17958597675E+03  0.41800000000E+01 0. -1.
        -11    1    1    2    0    0  0.25558376923E+02  0.38949205492E+02  0.13374090222E+03  0.14162238582E+03  0.00000000000E+00 0. -1.
         11    1    1    2    0    0 -0.24548417166E+02 -0.22531410914E+02  0.29002137156E+02  0.44174803030E+02  0.00000000000E+00 0.  1.
</event>
<event>
 7    1  0.2626349E-009  0.1024039E+03  0.7561462E-02  0.1275320E+00
          2   -1    0    0  501    0  0.00000000000E+00  0.00000000000E+00  0.29257492166E+03  0.29257492166E+03  0.00000000000E+00 0. -1.
         -2   -1    0    0    0  501 -0.00000000000E+00 -0.00000000000E+00 -0.44243263609E+02  0.44243263609E+02  0.00000000000E+00 0.  1.
         25    2    1    2    0    0  0.12448496745E+02 -0.23916875462E+00  0.19009582110E+03  0.22790250726E+03  0.12509240322E+03 0.  0.
          5    1    3    3  502    0 -0.55183324633E+02 -0.95500630100E+01  0.10120824716E+03  0.11574534425E+03  0.41800000000E+01 0. -1.
         -5    1    3    3    0  502  0.67631821378E+02  0.93108942554E+01  0.88887573937E+02  0.11215716301E+03  0.41800000000E+01 0. -1.
        -11    1    1    2    0    0  0.20575470794E+02 -0.29394720277E+02  0.22457475639E+00  0.35881053669E+02  0.00000000000E+00 0.  1.
         11    1    1    2    0    0 -0.33023967539E+02  0.29633889032E+02  0.58011262198E+02  0.73034624343E+02  0.00000000000E+00 0. -1.
</event>
<event>
 7    1  0.2626349E-009  0.1131559E+03  0.7561462E-02  0.1254835E+00
          4   -1    0    0  501    0  0.00000000000E+00  0.00000000000E+00  0.10121547627E+03  0.10121547627E+03  0.00000000000E+00 0. -1.
         -4   -1    0    0    0  501 -0.00000000000E+00 -0.00000000000E+00 -0.23308530417E+03  0.23308530417E+03  0.00000000000E+00 0.  1.
         25    2    1    2    0    0 -0.17517195542E+02  0.99654349085E+02 -0.10858321906E+03  0.19409805150E+03  0.12508355889E+03 0.  0.
          5    1    3    3  502    0 -0.34886709941E+02  0.78133958216E+02 -0.13217264097E+03  0.15750897555E+03  0.41800000000E+01 0. -1.
         -5    1    3    3    0  502  0.17369514399E+02  0.21520390869E+02  0.23589421906E+02  0.36589075958E+02  0.41800000000E+01 0. -1.
        -11    1    1    2    0    0 -0.16139826515E+02 -0.51132259891E+02 -0.51864753487E+02  0.74598623686E+02  0.00000000000E+00 0.  1.
         11    1    1    2    0    0  0.33657022057E+02 -0.48522089194E+02  0.28578144649E+02  0.65604105245E+02  0.00000000000E+00 0. -1.
</event>
<event>
 7    1  0.2626349E-009  0.1019118E+03  0.7561462E-02  0.1276326E+00
         -1   -1    0    0    0  501 -0.00000000000E+00  0.00000000000E+00  0.22087103425E+03  0.22087103425E+03  0.00000000000E+00 0.  1.
          1   -1    0    0  501    0  0.00000000000E+00 -0.00000000000E+00 -0.10756946628E+03  0.10756946628E+03  0.00000000000E+00 0. -1.
         25    2    1    2    0    0 -0.71355664181E+02  0.54336001962E+02 -0.56690781985E+01  0.15402497972E+03  0.12509006359E+03 0.  0.
          5    1    3    3  502    0 -0.73563988674E+01  0.32793496063E+01 -0.56727009966E+02  0.57448209700E+02  0.41800000000E+01 0.  1.
         -5    1    3    3    0  502 -0.63999265313E+02  0.51056652356E+02  0.51057931767E+02  0.96576770016E+02  0.41800000000E+01 0.  1.
        -11    1    1    2    0    0 -0.41761307095E+01  0.11713318511E+02  0.52749989254E+02  0.54195970925E+02  0.00000000000E+00 0.  1.
         11    1    1    2    0    0  0.75531794890E+02 -0.66049320473E+02  0.66220656905E+02  0.12021954989E+03  0.00000000000E+00 0. -1.
</event>
<event>
 7    1  0.2626349E-009  0.1734606E+03  0.7561462E-02  0.1174286E+00
          2   -1    0    0  501    0  0.00000000000E+00  0.00000000000E+00  0.31100843831E+03  0.31100843831E+03  0.00000000000E+00 0. -1.
         -2   -1    0    0    0  501 -0.00000000000E+00 -0.00000000000E+00 -0.12015019238E+03  0.12015019238E+03  0.00000000000E+00 0.  1.
         25    2    1    2    0    0  0.99684341608E+02 -0.11391210116E+03  0.40514693330E+02  0.20050464062E+03  0.12509091006E+03 0.  0.
          5    1    3    3  502    0  0.11370815349E+03 -0.10624032230E+03 -0.11567851863E+01  0.15567710430E+03  0.41800000000E+01 0.  1.
         -5    1    3    3    0  502 -0.14023811878E+02 -0.76717788686E+01  0.41671478517E+02  0.44827536318E+02  0.41800000000E+01 0.  1.
        -11    1    1    2    0    0 -0.26094228382E+02  0.95314861998E+02  0.90437274162E+02  0.13395794949E+03  0.00000000000E+00 0. -1.
         11    1    1    2    0    0 -0.73590113227E+02  0.18597239167E+02  0.59906278430E+02  0.96696040585E+02  0.00000000000E+00 0.  1.
</event>
<event>
 7    1  0.2626349E-009  0.1047539E+03  0.7561462E-02  0.1270605E+00
         -1   -1    0    0    0  501 -0.00000000000E+00  0.00000000000E+00  0.19702715022E+03  0.19702715022E+03  0.00000000000E+00 0.  1.
          1   -1    0    0  501    0  0.00000000000E+00 -0.00000000000E+00 -0.66130076296E+02  0.66130076296E+02  0.00000000000E+00 0. -1.
         25    2    1    2    0    0 -0.18346575056E+02  0.32301392085E+02  0.69732284562E+02  0.14795091350E+03  0.12508758751E+03 0.  0.
          5    1    3    3  502    0 -0.22505728133E+02  0.75583226610E+02  0.19428045118E+02  0.81328059614E+02  0.41800000000E+01 0. -1.
         -5    1    3    3    0  502  0.41591530772E+01 -0.43281834525E+02  0.50304239444E+02  0.66622853888E+02  0.41800000000E+01 0. -1.
        -11    1    1    2    0    0  0.17440109206E+02  0.24483854104E+02  0.48434507141E+02  0.57004543704E+02  0.00000000000E+00 0.  1.
         11    1    1    2    0    0  0.90646584994E+00 -0.56785246188E+02  0.12730282216E+02  0.58201769306E+02  0.00000000000E+00 0. -1.
</event>
<event>
 7    1  0.2626349E-009  0.1072638E+03  0.7561462E-02  0.1265723E+00
         -4   -1    0    0    0  501 -0.00000000000E+00  0.00000000000E+00  0.58943685422E+02  0.58943685422E+02  0.00000000000E+00 0.  1.
          4   -1    0    0  501    0  0.00000000000E+00 -0.00000000000E+00 -0.21407329636E+03  0.21407329636E+03  0.00000000000E+00 0. -1.
         25    2    1    2    0    0 -0.19003915188E+02  0.10674708287E+02 -0.63347659382E+02  0.14191360364E+03  0.12510574232E+03 0.  0.
          5    1    3    3  502    0  0.53531305036E+02  0.11677148903E+01 -0.27603062962E+02  0.60385144380E+02  0.41800000000E+01 0.  1.
         -5    1    3    3    0  502 -0.72535220225E+02  0.95069933964E+01 -0.35744596420E+02  0.81528459262E+02  0.41800000000E+01 0.  1.
        -11    1    1    2    0    0  0.50456262977E+02  0.78199369975E+01 -0.75510247090E+02  0.91152527687E+02  0.00000000000E+00 0. -1.
         11    1    1    2    0    0 -0.31452347789E+02 -0.18494645284E+02 -0.16271704467E+02  0.39950850453E+02  0.00000000000E+00 0.  1.
</event>
<event>
 7    1  0.2626349E-009  0.1073099E+03  0.7561462E-02  0.1265634E+00
          2   -1    0    0  501    0  0.00000000000E+00  0.00000000000E+00  0.16534452271E+03  0.16534452271E+03  0.00000000000E+00 0. -1.
         -2   -1    0    0    0  501 -0.00000000000E+00 -0.00000000000E+00 -0.88171730954E+02  0.88171730954E+02  0.00000000000E+00 0.  1.
         25    2    1    2    0    0  0.31220480444E+02  0.43058853309E+02  0.50528774082E+02  0.14502331323E+03  0.12509924509E+03 0.  0.
          5    1    3    3  502    0  0.38275667429E+02 -0.21691928018E+02  0.64586181689E+02  0.78258633539E+02  0.41800000000E+01 0. -1.
         -5    1    3    3    0  502 -0.70551869852E+01  0.64750781327E+02 -0.14057407606E+02  0.66764679693E+02  0.41800000000E+01 0. -1.
        -11    1    1    2    0    0  0.21531566056E+02  0.15358569230E+02  0.74066080988E+01  0.27465466119E+02  0.00000000000E+00 0. -1.
         11    1    1    2    0    0 -0.52752046500E+02 -0.58417422539E+02  0.19237409571E+02  0.81027474310E+02  0.00000000000E+00 0.  1.
</event>
<event>
 7    1  0.2626349E-009  0.1135748E+03  0.7561462E-02  0.1254089E+00
          3   -1    0    0  501    0  0.00000000000E+00  0.00000000000E+00  0.64383690258E+02  0.64383690258E+02  0.00000000000E+00 0. -1.
         -3   -1    0    0    0  501 -0.00000000000E+00 -0.00000000000E+00 -0.25598492925E+03  0.25598492925E+03  0.00000000000E+00 0.  1.
         25    2    1    2    0    0  0.63532458410E+02  0.94206816725E+01 -0.78459789087E+02  0.16102341183E+03  0.12508988024E+03 0.  0.
          5    1    3    3  502    0  0.38436692413E+02  0.59377521765E+02 -0.84871967693E+01  0.71362275213E+02  0.41800000000E+01 0.  1.
         -5    1    3    3    0  502  0.25095765997E+02 -0.49956840093E+02 -0.69972592318E+02  0.89661136613E+02  0.41800000000E+01 0.  1.
        -11    1    1    2    0    0 -0.71886094445E+02  0.15852993269E+02 -0.11025448629E+03  0.13257065934E+03  0.00000000000E+00 0.  1.
         11    1    1    2    0    0  0.83536360353E+01 -0.25273674941E+02 -0.28869636131E+01  0.26774548343E+02  0.00000000000E+00 0. -1.
</event>
<event>
 7    1  0.2626349E-009  0.1492833E+03  0.7561462E-02  0.1201356E+00
         -2   -1    0    0    0  501 -0.00000000000E+00  0.00000000000E+00  0.81597521268E+02  0.81597521268E+02  0.00000000000E+00 0.  1.
          2   -1    0    0  501    0  0.00000000000E+00 -0.00000000000E+00 -0.30205743047E+03  0.30205743047E+03  0.00000000000E+00 0. -1.
         25    2    1    2    0    0 -0.15352920637E+02 -0.11177001489E+03 -0.12195762793E+03  0.20795822871E+03  0.12507882904E+03 0.  0.
          5    1    3    3  502    0  0.32493330789E+02 -0.11560213742E+03 -0.83668086233E+02  0.14641547656E+03  0.41800000000E+01 0. -1.
         -5    1    3    3    0  502 -0.47846251426E+02  0.38321225283E+01 -0.38289541695E+02  0.61542752147E+02  0.41800000000E+01 0. -1.
        -11    1    1    2    0    0 -0.25617064318E+02  0.37591612148E+02  0.35312994557E+00  0.45491625481E+02  0.00000000000E+00 0.  1.
         11    1    1    2    0    0  0.40969984954E+02  0.74178402745E+02 -0.98855411219E+02  0.13020509755E+03  0.00000000000E+00 0. -1.
</event>
<event>
 7    1  0.2626349E-009  0.1231737E+03  0.7561462E-02  0.1237951E+00
         -2   -1    0    0    0  501 -0.00000000000E+00  0.00000000000E+00  0.44382233579E+02  0.44382233579E+02  0.00000000000E+00 0.  1.
          2   -1    0    0  501    0  0.00000000000E+00 -0.00000000000E+00 -0.49773582249E+03  0.49773582249E+03  0.00000000000E+00 0. -1.
         25    2    1    2    0    0  0.61309093961E+02 -0.39966754221E+02 -0.37227824197E+03  0.39949235915E+03  0.12508760584E+03 0.  0.
          5    1    3    3  502    0 -0.22285849255E+02 -0.55357202879E+02 -0.15428502427E+03  0.16547634303E+03  0.41800000000E+01 0.  1.
         -5    1    3    3    0  502  0.83594943216E+02  0.15390448658E+02 -0.21799321770E+03  0.23401601613E+03  0.41800000000E+01 0.  1.
        -11    1    1    2    0    0 -0.44641118000E+02  0.60367048938E+02 -0.87713452131E+02  0.11545847608E+03  0.00000000000E+00 0. -1.
         11    1    1    2    0    0 -0.16667975960E+02 -0.20400294717E+02  0.66381051938E+01  0.27167220832E+02  0.00000000000E+00 0.  1.
</event>
<event>
 7    1  0.2626349E-009  0.6550225E+02  0.7561462E-02  0.1376092E+00
         -1   -1    0    0    0  501 -0.00000000000E+00  0.00000000000E+00  0.68524379244E+03  0.68524379244E+03  0.00000000000E+00 0.  1.
          1   -1    0    0  501    0  0.00000000000E+00 -0.00000000000E+00 -0.18571058344E+02  0.18571058344E+02  0.00000000000E+00 0. -1.
         25    2    1    2    0    0  0.35362533613E+02  0.24486966876E+01  0.40823477371E+03  0.42844002270E+03  0.12509483476E+03 0.  0.
          5    1    3    3  502    0  0.28657598998E+02  0.21927734910E+02  0.23793489050E+02  0.43424486869E+02  0.41800000000E+01 0.  1.
         -5    1    3    3    0  502  0.67049346145E+01 -0.19479038222E+02  0.38444128466E+03  0.38501553583E+03  0.41800000000E+01 0.  1.
        -11    1    1    2    0    0  0.17664181471E+02  0.83577856487E+01  0.11709767321E+02  0.22781451637E+02  0.00000000000E+00 0.  1.
         11    1    1    2    0    0 -0.53026715083E+02 -0.10806482336E+02  0.24672819306E+03  0.25259337644E+03  0.00000000000E+00 0. -1.
</event>
<event>
 7    1  0.2626349E-009  0.1415493E+03  0.7561462E-02  0.1211259E+00
         -2   -1    0    0    0  501 -0.00000000000E+00  0.00000000000E+00  0.31694951952E+02  0.31694951952E+02  0.00000000000E+00 0. -1.
          2   -1    0    0  501    0  0.00000000000E+00 -0.00000000000E+00 -0.65838174443E+03  0.65838174443E+03  0.00000000000E+00 0.  1.
         25    2    1    2    0    0  0.17795731642E+02 -0.90694557832E+02 -0.40199104360E+03  0.43102976753E+03  0.12509064905E+03 0.  0.
          5    1    3    3  502    0 -0.45888471840E+02 -0.75864365337E+02 -0.25772528479E+03  0.27258200343E+03  0.41800000000E+01 0. -1.
         -5    1    3    3    0  502  0.63684203482E+02 -0.14830192494E+02 -0.14426575881E+03  0.15844776409E+03  0.41800000000E+01 0. -1.
        -11    1    1    2    0    0 -0.10073676948E+02 -0.17582220579E+02 -0.39022471946E+02  0.43970066687E+02  0.00000000000E+00 0.  1.
         11    1    1    2    0    0 -0.77220546942E+01  0.10827677841E+03 -0.18567327694E+03  0.21507686217E+03  0.00000000000E+00 0. -1.
</event>
<event>
 7    1  0.2626349E-009  0.1339528E+03  0.7561462E-02  0.1221706E+00
          2   -1    0    0  501    0  0.00000000000E+00  0.00000000000E+00  0.21695353734E+03  0.21695353734E+03  0.00000000000E+00 0. -1.
         -2   -1    0    0    0  501 -0.00000000000E+00 -0.00000000000E+00 -0.13108286374E+03  0.13108286374E+03  0.00000000000E+00 0.  1.
         25    2    1    2    0    0 -0.85218425317E+02  0.63149156333E+02 -0.29909458951E+02  0.16670901311E+03  0.12508926156E+03 0.  0.
          5    1    3    3  502    0 -0.70898375430E+02  0.82835881178E+01 -0.67676003895E+02  0.98451568672E+02  0.41800000000E+01 0.  1.
         -5    1    3    3    0  502 -0.14320049887E+02  0.54865568215E+02  0.37766544944E+02  0.68257444439E+02  0.41800000000E+01 0.  1.
        -11    1    1    2    0    0  0.25318201012E+01 -0.56538128813E+02  0.46124743805E+02  0.73010013791E+02  0.00000000000E+00 0.  1.
         11    1    1    2    0    0  0.82686605216E+02 -0.66110275194E+01  0.69655388750E+02  0.10831737418E+03  0.00000000000E+00 0. -1.
</event>
<event>
 7    1  0.2626349E-009  0.1053756E+03  0.7561462E-02  0.1269381E+00
         -2   -1    0    0    0  501 -0.00000000000E+00  0.00000000000E+00  0.12319461144E+02  0.12319461144E+02  0.00000000000E+00 0.  1.
          2   -1    0    0  501    0  0.00000000000E+00 -0.00000000000E+00 -0.10346772701E+04  0.10346772701E+04  0.00000000000E+00 0. -1.
         25    2    1    2    0    0  0.32157968487E+02 -0.14975643568E+01 -0.55787440086E+03  0.57263030592E+03  0.12508094373E+03 0.  0.
          5    1    3    3  502    0  0.39946742821E+01  0.52801316418E+02 -0.39577605708E+03  0.39932454995E+03  0.41800000000E+01 0.  1.
         -5    1    3    3    0  502  0.28163294205E+02 -0.54298880775E+02 -0.16209834379E+03  0.17330575597E+03  0.41800000000E+01 0.  1.
        -11    1    1    2    0    0 -0.12388773276E+02  0.45993886271E+02 -0.23136393106E+03  0.23621640052E+03  0.00000000000E+00 0. -1.
         11    1    1    2    0    0 -0.19769195211E+02 -0.44496321915E+02 -0.23311947700E+03  0.23815002477E+03  0.00000000000E+00 0.  1.
</event>
<event>
 7    1  0.2626349E-009  0.1018775E+03  0.7561462E-02  0.1276397E+00
         -1   -1    0    0    0  501 -0.00000000000E+00  0.00000000000E+00  0.48278944857E+02  0.48278944857E+02  0.00000000000E+00 0.  1.
          1   -1    0    0  501    0  0.00000000000E+00 -0.00000000000E+00 -0.30177828717E+03  0.30177828717E+03  0.00000000000E+00 0. -1.
         25    2    1    2    0    0  0.42792640486E+02 -0.33789886431E+02 -0.15989768700E+03  0.21020880060E+03  0.12508997975E+03 0.  0.
          5    1    3    3  502    0  0.82902993845E+02 -0.86684458894E+01 -0.12862144927E+03  0.15332644245E+03  0.41800000000E+01 0.  1.
         -5    1    3    3    0  502 -0.40110353359E+02 -0.25121440542E+02 -0.31276237733E+02  0.56882358146E+02  0.41800000000E+01 0.  1.
        -11    1    1    2    0    0  0.75328288474E+01  0.18830734096E+02  0.10808176440E+02  0.22981660841E+02  0.00000000000E+00 0.  1.
         11    1    1    2    0    0 -0.50325469333E+02  0.14959152335E+02 -0.10440983175E+03  0.11686677059E+03  0.00000000000E+00 0. -1.
</event>
<event>
 7    1  0.2936755E-009  0.1002128E+03  0.7561462E-02  0.1279849E+00
         -2   -1    0    0    0  501 -0.00000000000E+00  0.00000000000E+00  0.34468521770E+02  0.34468521770E+02  0.00000000000E+00 0. -1.
          2   -1    0    0  501    0  0.00000000000E+00 -0.00000000000E+00 -0.59125243194E+03  0.59125243194E+03  0.00000000000E+00 0.  1.
         25    2    1    2    0    0  0.77132742613E+02  0.40630948802E+02 -0.23400595656E+03  0.27929723759E+03  0.12509126764E+03 0.  0.
          5    1    3    3  502    0  0.75651682341E+02  0.16406159363E+02 -0.24143338476E+03  0.25357423130E+03  0.41800000000E+01 0.  1.
         -5    1    3    3    0  502  0.14810602723E+01  0.24224789440E+02  0.74274282009E+01  0.25723006290E+02  0.41800000000E+01 0.  1.
        -11    1    1    2    0    0 -0.33786602382E+02 -0.43211793678E+02 -0.65170146720E+02  0.85181815178E+02  0.00000000000E+00 0. -1.
         11    1    1    2    0    0 -0.43346140232E+02  0.25808448762E+01 -0.25760780689E+03  0.26124190094E+03  0.00000000000E+00 0.  1.
</event>
<event>
 7    1  0.2626349E-009  0.1078793E+03  0.7561462E-02  0.1264548E+00
         -2   -1    0    0    0  501 -0.00000000000E+00  0.00000000000E+00  0.11142338569E+03  0.11142338569E+03  0.00000000000E+00 0.  1.
          2   -1    0    0  501    0  0.00000000000E+00 -0.00000000000E+00 -0.25111392800E+03  0.25111392800E+03  0.00000000000E+00 0. -1.
         25    2    1    2    0    0 -0.43375887400E+02 -0.94027406774E+02 -0.15211569613E+03  0.22250938593E+03  0.12509444826E+03 0.  0.
          5    1    3    3  502    0 -0.14220564030E+02 -0.75024007971E+02 -0.16757476513E+03  0.18419989284E+03  0.41800000000E+01 0.  1.
         -5    1    3    3    0  502 -0.29155323369E+02 -0.19003398803E+02  0.15459068998E+02  0.38309493094E+02  0.41800000000E+01 0.  1.
        -11    1    1    2    0    0  0.32841782274E+02  0.81478960937E+02  0.48542495201E+02  0.10036821000E+03  0.00000000000E+00 0.  1.
         11    1    1    2    0    0  0.10534105126E+02  0.12548445836E+02 -0.36117341388E+02  0.39659717758E+02  0.00000000000E+00 0. -1.
</event>
<event>
 7    1  0.2626349E-009  0.1529781E+03  0.7561462E-02  0.1196861E+00
          2   -1    0    0  501    0  0.00000000000E+00  0.00000000000E+00  0.16675678552E+03  0.16675678552E+03  0.00000000000E+00 0. -1.
         -2   -1    0    0    0  501 -0.00000000000E+00 -0.00000000000E+00 -0.20773914926E+03  0.20773914926E+03  0.00000000000E+00 0.  1.
         25    2    1    2    0    0  0.46573177533E+02 -0.12290811942E+03  0.51847928363E+02  0.18871294066E+03  0.12509556191E+03 0.  0.
          5    1    3    3  502    0 -0.36939591896E+02 -0.27375586336E+02 -0.10387274597E+02  0.47321496704E+02  0.41800000000E+01 0. -1.
         -5    1    3    3    0  502  0.83512769430E+02 -0.95532533088E+02  0.62235202960E+02  0.14139144395E+03  0.41800000000E+01 0. -1.
        -11    1    1    2    0    0 -0.18051408181E+02  0.74403269155E+02 -0.10326859872E+03  0.12855389251E+03  0.00000000000E+00 0.  1.
         11    1    1    2    0    0 -0.28521769352E+02  0.48504850268E+02  0.10438306605E+02  0.57229101612E+02  0.00000000000E+00 0. -1.
</event>
<event>
 7    1  0.2626349E-009  0.1034802E+03  0.7561462E-02  0.1273143E+00
         -2   -1    0    0    0  501 -0.00000000000E+00  0.00000000000E+00  0.20472109156E+02  0.20472109156E+02  0.00000000000E+00 0. -1.
          2   -1    0    0  501    0  0.00000000000E+00 -0.00000000000E+00 -0.77289485802E+03  0.77289485802E+03  0.00000000000E+00 0.  1.
         25    2    1    2    0    0  0.78771710733E+01  0.57734216117E+02 -0.48876492484E+03  0.50787204838E+03  0.12509027235E+03 0.  0.
          5    1    3    3  502    0  0.40065240070E+02  0.52990931427E+02 -0.45828579415E+03  0.46309459487E+03  0.41800000000E+01 0. -1.
         -5    1    3    3    0  502 -0.32188068997E+02  0.47432846893E+01 -0.30479130686E+02  0.44777453509E+02  0.41800000000E+01 0. -1.
        -11    1    1    2    0    0  0.35034325636E+02  0.76559863473E+00 -0.11242936846E+03  0.11776397160E+03  0.00000000000E+00 0.  1.
         11    1    1    2    0    0 -0.42911496710E+02 -0.58499814751E+02 -0.15122845556E+03  0.16773094720E+03  0.00000000000E+00 0. -1.
</event>
<event>
 7    1  0.2626349E-009  0.1380592E+03  0.7561462E-02  0.1215965E+00
          2   -1    0    0  501    0  0.00000000000E+00  0.00000000000E+00  0.44763064588E+03  0.44763064588E+03  0.00000000000E+00 0. -1.
         -2   -1    0    0    0  501 -0.00000000000E+00 -0.00000000000E+00 -0.44201318112E+02  0.44201318112E+02  0.00000000000E+00 0.  1.
         25    2    1    2    0    0  0.41958199770E+02 -0.78532237753E+02  0.22221577949E+03  0.27010185692E+03  0.12508939828E+03 0.  0.
          5    1    3    3  502    0  0.36526280305E+02 -0.11272647648E+03  0.16760196893E+03  0.20530299570E+03  0.41800000000E+01 0.  1.
         -5    1    3    3    0  502  0.54319194644E+01  0.34194238730E+02  0.54613810564E+02  0.64798861223E+02  0.41800000000E+01 0.  1.
        -11    1    1    2    0    0 -0.90380632559E+01  0.87965666496E+02  0.15557707673E+03  0.17895214967E+03  0.00000000000E+00 0. -1.
         11    1    1    2    0    0 -0.32920136514E+02 -0.94334287425E+01  0.25636471549E+02  0.42777957401E+02  0.00000000000E+00 0.  1.
</event>
<event>
 7    1  0.2626349E-009  0.1462484E+03  0.7561462E-02  0.1205160E+00
          2   -1    0    0  501    0  0.00000000000E+00  0.00000000000E+00  0.83344696196E+03  0.83344696196E+03  0.00000000000E+00 0. -1.
         -2   -1    0    0    0  501 -0.00000000000E+00 -0.00000000000E+00 -0.44877001274E+02  0.44877001274E+02  0.00000000000E+00 0.  1.
         25    2    1    2    0    0  0.14527338368E+03 -0.14460100860E+02  0.26193719347E+03  0.32491584053E+03  0.12508301077E+03 0.  0.
          5    1    3    3  502    0  0.74489649551E+02 -0.36915843852E+01  0.27248206579E+02  0.79512721292E+02  0.41800000000E+01 0.  1.
         -5    1    3    3    0  502  0.70783734131E+02 -0.10768516475E+02  0.23468898689E+03  0.24540311924E+03  0.41800000000E+01 0.  1.
        -11    1    1    2    0    0 -0.45668766601E+02  0.21917435972E+01  0.56494388529E+02  0.72677753943E+02  0.00000000000E+00 0.  1.
         11    1    1    2    0    0 -0.99604617080E+02  0.12268357263E+02  0.47013837869E+03  0.48073036876E+03  0.00000000000E+00 0. -1.
</event>
<event>
 7    1  0.2626349E-009  0.1239273E+03  0.7561462E-02  0.1236755E+00
         -4   -1    0    0    0  501 -0.00000000000E+00  0.00000000000E+00  0.11041397287E+03  0.11041397287E+03  0.00000000000E+00 0.  1.
          4   -1    0    0  501    0  0.00000000000E+00 -0.00000000000E+00 -0.15130214665E+03  0.15130214665E+03  0.00000000000E+00 0. -1.
         25    2    1    2    0    0  0.36902384998E+02  0.54436035157E+02  0.67075611538E+01  0.14147772344E+03  0.12508351975E+03 0.  0.
          5    1    3    3  502    0  0.27901422896E+02  0.94240279011E+02 -0.59333874275E+01  0.98551494530E+02  0.41800000000E+01 0.  1.
         -5    1    3    3    0  502  0.90009621023E+01 -0.39804243855E+02  0.12640948581E+02  0.42926228913E+02  0.41800000000E+01 0.  1.
        -11    1    1    2    0    0 -0.18278850499E+02 -0.77035678864E+02 -0.24304553892E+02  0.82821033159E+02  0.00000000000E+00 0.  1.
         11    1    1    2    0    0 -0.18623534499E+02  0.22599643707E+02 -0.23291181048E+02  0.37417362916E+02  0.00000000000E+00 0. -1.
</event>
<event>
 7    1  0.2626349E-009  0.1304421E+03  0.7561462E-02  0.1226801E+00
          2   -1    0    0  501    0  0.00000000000E+00  0.00000000000E+00  0.21786141245E+03  0.21786141245E+03  0.00000000000E+00 0. -1.
         -2   -1    0    0    0  501 -0.00000000000E+00 -0.00000000000E+00 -0.11046166240E+03  0.11046166240E+03  0.00000000000E+00 0.  1.
         25    2    1    2    0    0  0.42048923826E+02 -0.96046793382E+02  0.19526626496E+02  0.16437964842E+03  0.12508509567E+03 0.  0.
          5    1    3    3  502    0  0.78831384037E+01 -0.86454434899E+02 -0.39430370080E+02  0.95439717463E+02  0.41800000000E+01 0. -1.
         -5    1    3    3    0  502  0.34165785422E+02 -0.95923584833E+01  0.58956996576E+02  0.68939930955E+02  0.41800000000E+01 0. -1.
        -11    1    1    2    0    0 -0.55019514992E+02  0.16214181982E+02  0.40433858002E+02  0.70177942405E+02  0.00000000000E+00 0.  1.
         11    1    1    2    0    0  0.12970591166E+02  0.79832611400E+02  0.47439265554E+02  0.93765484025E+02  0.00000000000E+00 0. -1.
</event>
<event>
 7    1  0.2626349E-009  0.2711768E+03  0.7561462E-02  0.1100608E+00
          1   -1    0    0  501    0  0.00000000000E+00  0.00000000000E+00  0.27720849119E+02  0.27720849119E+02  0.00000000000E+00 0. -1.
         -1   -1    0    0    0  501 -0.00000000000E+00 -0.00000000000E+00 -0.29088149810E+04  0.29088149810E+04  0.00000000000E+00 0.  1.
         25    2    1    2    0    0  0.50228654539E+02  0.25363815917E+03 -0.16956844498E+04  0.17198397483E+04  0.12509105951E+03 0.  0.
          5    1    3    3  502    0  0.70985154026E+02  0.23591364080E+03 -0.12968003015E+04  0.13200009971E+04  0.41800000000E+01 0. -1.
         -5    1    3    3    0  502 -0.20756499487E+02  0.17724518369E+02 -0.39888414828E+03  0.39983875121E+03  0.41800000000E+01 0. -1.
        -11    1    1    2    0    0  0.32979470151E+01 -0.16333734559E+03 -0.83788348623E+03  0.85366193626E+03  0.00000000000E+00 0.  1.
         11    1    1    2    0    0 -0.53526601554E+02 -0.90300813573E+02 -0.34752619580E+03  0.36303414547E+03  0.00000000000E+00 0. -1.
</event>
<event>
 7    1  0.3277890E-009  0.1206497E+03  0.7561462E-02  0.1242029E+00
         -1   -1    0    0    0  501 -0.00000000000E+00  0.00000000000E+00  0.71273492140E+02  0.71273492140E+02  0.00000000000E+00 0.  1.
          1   -1    0    0  501    0  0.00000000000E+00 -0.00000000000E+00 -0.24328623900E+03  0.24328623900E+03  0.00000000000E+00 0. -1.
         25    2    1    2    0    0 -0.57890560317E+02 -0.45917846478E+02 -0.91059558024E+02  0.17146175828E+03  0.12509007094E+03 0.  0.
          5    1    3    3  502    0 -0.51731685175E+02  0.21187962646E+02 -0.87415378240E+02  0.10384612542E+03  0.41800000000E+01 0.  1.
         -5    1    3    3    0  502 -0.61588751421E+01 -0.67105809125E+02 -0.36441797843E+01  0.67615632864E+02  0.41800000000E+01 0.  1.
        -11    1    1    2    0    0 -0.15425797116E+02  0.41499849732E+02 -0.25762163654E+02  0.51223840353E+02  0.00000000000E+00 0.  1.
         11    1    1    2    0    0  0.73316357432E+02  0.44179967464E+01 -0.55191025180E+02  0.91874132501E+02  0.00000000000E+00 0. -1.
</event>
<event>
 7    1  0.2626349E-009  0.1166766E+03  0.7561462E-02  0.1248682E+00
          2   -1    0    0  501    0  0.00000000000E+00  0.00000000000E+00  0.96966306882E+02  0.96966306882E+02  0.00000000000E+00 0. -1.
         -2   -1    0    0    0  501 -0.00000000000E+00 -0.00000000000E+00 -0.26618749027E+03  0.26618749027E+03  0.00000000000E+00 0.  1.
         25    2    1    2    0    0  0.75849156569E+02  0.28648678295E+02  0.64130235760E+01  0.14920716063E+03  0.12509120110E+03 0.  0.
          5    1    3    3  502    0  0.10755191998E+03  0.22981532788E+02 -0.13852097562E+02  0.11092754098E+03  0.41800000000E+01 0.  1.
         -5    1    3    3    0  502 -0.31702763411E+02  0.56671455071E+01  0.20265121138E+02  0.38279619653E+02  0.41800000000E+01 0.  1.
        -11    1    1    2    0    0 -0.61590540913E+02 -0.32316620919E+01 -0.36231404384E+02  0.71530084814E+02  0.00000000000E+00 0. -1.
         11    1    1    2    0    0 -0.14258615655E+02 -0.25417016204E+02 -0.13940280258E+03  0.14241655171E+03  0.00000000000E+00 0.  1.
</event>
<event>
 7    1  0.2626349E-009  0.2398725E+03  0.7561462E-02  0.1119878E+00
         -1   -1    0    0    0  501 -0.00000000000E+00  0.00000000000E+00  0.26651012887E+03  0.26651012887E+03  0.00000000000E+00 0.  1.
          1   -1    0    0  501    0  0.00000000000E+00 -0.00000000000E+00 -0.24785711706E+03  0.24785711706E+03  0.00000000000E+00 0. -1.
         25    2    1    2    0    0  0.21599734093E+03 -0.85087249337E+02  0.27470002283E+02  0.26513409976E+03  0.12508716377E+03 0.  0.
          5    1    3    3  502    0  0.16575576602E+02 -0.26890163702E+02  0.46622779165E+02  0.56471112798E+02  0.41800000000E+01 0.  1.
         -5    1    3    3    0  502  0.19942176433E+03 -0.58197085635E+02 -0.19152776883E+02  0.20866298696E+03  0.41800000000E+01 0.  1.
        -11    1    1    2    0    0 -0.12978627177E+03  0.82620664894E+02 -0.37473584087E+02  0.15835062397E+03  0.00000000000E+00 0.  1.
         11    1    1    2    0    0 -0.86211069163E+02  0.24665844425E+01  0.28656593615E+02  0.90882522207E+02  0.00000000000E+00 0. -1.
</event>
<event>
 7    1  0.2626349E-009  0.1438807E+03  0.7561462E-02  0.1208201E+00
          2   -1    0    0  501    0  0.00000000000E+00  0.00000000000E+00  0.13488198976E+03  0.13488198976E+03  0.00000000000E+00 0. -1.
         -2   -1    0    0    0  501 -0.00000000000E+00 -0.00000000000E+00 -0.15535268504E+03  0.15535268504E+03  0.00000000000E+00 0.  1.
         25    2    1    2    0    0  0.90759157074E+02  0.33393356145E+02 -0.18377378782E+02  0.15917410662E+03  0.12508528027E+03 0.  0.
          5    1    3    3  502    0  0.36151717756E+02 -0.47236387092E+02  0.17125185899E+01  0.59654237755E+02  0.41800000000E+01 0.  1.
         -5    1    3    3    0  502  0.54607439318E+02  0.80629743236E+02 -0.20089897371E+02  0.99519868869E+02  0.41800000000E+01 0.  1.
        -11    1    1    2    0    0 -0.73619379071E+02 -0.62705924039E+02 -0.59419775427E+01  0.96887321057E+02  0.00000000000E+00 0.  1.
         11    1    1    2    0    0 -0.17139778003E+02  0.29312567895E+02  0.38486610507E+01  0.34173247116E+02  0.00000000000E+00 0. -1.
</event>
<event>
 7    1  0.2626349E-009  0.1114582E+03  0.7561462E-02  0.1257893E+00
         -1   -1    0    0    0  501 -0.00000000000E+00  0.00000000000E+00  0.22837384456E+03  0.22837384456E+03  0.00000000000E+00 0.  1.
          1   -1    0    0  501    0  0.00000000000E+00 -0.00000000000E+00 -0.72625018267E+02  0.72625018267E+02  0.00000000000E+00 0. -1.
         25    2    1    2    0    0  0.28867046846E+02  0.33675213822E-01  0.12772251775E+02  0.12900767063E+03  0.12508613488E+03 0.  0.
          5    1    3    3  502    0  0.12990440413E+02 -0.62362793139E+02  0.73461623399E+01  0.64259691964E+02  0.41800000000E+01 0. -1.
         -5    1    3    3    0  502  0.15876606434E+02  0.62396468353E+02  0.54260894349E+01  0.64747978666E+02  0.41800000000E+01 0. -1.
        -11    1    1    2    0    0 -0.59345220308E+02  0.14045761136E+02  0.79653409043E+02  0.10031851350E+03  0.00000000000E+00 0.  1.
         11    1    1    2    0    0  0.30478173461E+02 -0.14079436350E+02  0.63323165480E+02  0.71672678699E+02  0.00000000000E+00 0. -1.
</event>
<event>
 7    1  0.2626349E-009  0.1062850E+03  0.7561462E-02  0.1267608E+00
         -1   -1    0    0    0  501 -0.00000000000E+00  0.00000000000E+00  0.15924321761E+02  0.15924321761E+02  0.00000000000E+00 0.  1.
          1   -1    0    0  501    0  0.00000000000E+00 -0.00000000000E+00 -0.13949634619E+04  0.13949634619E+04  0.00000000000E+00 0. -1.
         25    2    1    2    0    0  0.54830409126E+01  0.31284949616E+02 -0.11690765054E+04  0.11761786615E+04  0.12509019341E+03 0.  0.
          5    1    3    3  502    0  0.48035020745E+01 -0.38003090590E+02 -0.78048060479E+03  0.78143122242E+03  0.41800000000E+01 0.  1.
         -5    1    3    3    0  502  0.67953883818E+00  0.69288040206E+02 -0.38859590064E+03  0.39474743911E+03  0.41800000000E+01 0.  1.
        -11    1    1    2    0    0 -0.19400525167E+01  0.36595508762E+02 -0.81900034240E+02  0.89725195313E+02  0.00000000000E+00 0.  1.
         11    1    1    2    0    0 -0.35429883959E+01 -0.67880458378E+02 -0.12806260048E+03  0.14498392683E+03  0.00000000000E+00 0. -1.
</event>
<event>
 7    1  0.2626349E-009  0.1288114E+03  0.7561462E-02  0.1229230E+00
          2   -1    0    0  501    0  0.00000000000E+00  0.00000000000E+00  0.89722730114E+02  0.89722730114E+02  0.00000000000E+00 0. -1.
         -2   -1    0    0    0  501 -0.00000000000E+00 -0.00000000000E+00 -0.28585057216E+03  0.28585057216E+03  0.00000000000E+00 0.  1.
         25    2    1    2    0    0 -0.75418847662E+02 -0.87335250159E+02 -0.78825469647E+02  0.18755285462E+03  0.12508864900E+03 0.  0.
          5    1    3    3  502    0 -0.58761681720E+02 -0.54925041834E+02  0.19277016125E+02  0.82817698650E+02  0.41800000000E+01 0.  1.
         -5    1    3    3    0  502 -0.16657165941E+02 -0.32410208326E+02 -0.98102485773E+02  0.10473515597E+03  0.41800000000E+01 0.  1.
        -11    1    1    2    0    0 -0.15079189187E+02  0.29128222363E+02 -0.62502019089E+01  0.33390122917E+02  0.00000000000E+00 0. -1.
         11    1    1    2    0    0  0.90498036848E+02  0.58207027797E+02 -0.11105217049E+03  0.15463032474E+03  0.00000000000E+00 0.  1.
</event>
<event>
 7    1  0.2626349E-009  0.1646863E+03  0.7561462E-02  0.1183505E+00
          2   -1    0    0  501    0  0.00000000000E+00  0.00000000000E+00  0.14370314605E+04  0.14370314605E+04  0.00000000000E+00 0. -1.
         -2   -1    0    0    0  501 -0.00000000000E+00 -0.00000000000E+00 -0.21937743735E+02  0.21937743735E+02  0.00000000000E+00 0.  1.
         25    2    1    2    0    0  0.87881761405E+02  0.10869807212E+03  0.92798997769E+03  0.94675772356E+03  0.12508522522E+03 0.  0.
          5    1    3    3  502    0  0.25437522473E+02 -0.19464523222E+02  0.71294181308E+02  0.78270479124E+02  0.41800000000E+01 0.  1.
         -5    1    3    3    0  502  0.62444238932E+02  0.12816259534E+03  0.85669579638E+03  0.86848724444E+03  0.41800000000E+01 0.  1.
        -11    1    1    2    0    0 -0.58783727463E+02 -0.11063440903E+03  0.43286135908E+03  0.45062673606E+03  0.00000000000E+00 0.  1.
         11    1    1    2    0    0 -0.29098033942E+02  0.19363369109E+01  0.54242379986E+02  0.61584744592E+02  0.00000000000E+00 0. -1.
</event>
<event>
 7    1  0.2626349E-009  0.7971725E+02  0.7561462E-02  0.1329856E+00
          1   -1    0    0  501    0  0.00000000000E+00  0.00000000000E+00  0.57248833132E+03  0.57248833132E+03  0.00000000000E+00 0. -1.
         -1   -1    0    0    0  501 -0.00000000000E+00 -0.00000000000E+00 -0.29429456583E+02  0.29429456583E+02  0.00000000000E+00 0.  1.
         25    2    1    2    0    0 -0.56456698320E+02  0.20877961697E+02  0.21286690892E+03  0.25413194262E+03  0.12508986881E+03 0.  0.
          5    1    3    3  502    0 -0.33556446085E+02  0.26893272501E+02  0.22364727303E+03  0.22778248026E+03  0.41800000000E+01 0. -1.
         -5    1    3    3    0  502 -0.22900252235E+02 -0.60153108039E+01 -0.10780364109E+02  0.26349462363E+02  0.41800000000E+01 0. -1.
        -11    1    1    2    0    0  0.23232706298E+02 -0.45327489933E+02  0.27033471608E+03  0.27509125523E+03  0.00000000000E+00 0. -1.
         11    1    1    2    0    0  0.33223992022E+02  0.24449528236E+02  0.59857249743E+02  0.72694590058E+02  0.00000000000E+00 0.  1.
</event>
<event>
 7    1  0.2626349E-009  0.1328965E+03  0.7561462E-02  0.1223220E+00
          2   -1    0    0  501    0  0.00000000000E+00  0.00000000000E+00  0.12760332197E+03  0.12760332197E+03  0.00000000000E+00 0. -1.
         -2   -1    0    0    0  501 -0.00000000000E+00 -0.00000000000E+00 -0.22036994775E+03  0.22036994775E+03  0.00000000000E+00 0.  1.
         25    2    1    2    0    0  0.12068050035E+03 -0.38540681365E+02 -0.34544594087E+02  0.18135657567E+03  0.12509081210E+03 0.  0.
          5    1    3    3  502    0  0.50530799680E+02 -0.30635091316E+02  0.45390453003E+02  0.74629995043E+02  0.41800000000E+01 0. -1.
         -5    1    3    3    0  502  0.70149700674E+02 -0.79055900487E+01 -0.79935047090E+02  0.10672658063E+03  0.41800000000E+01 0. -1.
        -11    1    1    2    0    0 -0.53832289650E+02  0.42914749795E+02 -0.70467793823E+02  0.98515486728E+02  0.00000000000E+00 0.  1.
         11    1    1    2    0    0 -0.66848210704E+02 -0.43740684302E+01  0.12245762137E+02  0.68101207326E+02  0.00000000000E+00 0. -1.
</event>
<event>
 7    1  0.2626349E-009  0.1488829E+03  0.7561462E-02  0.1201853E+00
          2   -1    0    0  501    0  0.00000000000E+00  0.00000000000E+00  0.12435104715E+03  0.12435104715E+03  0.00000000000E+00 0. -1.
         -2   -1    0    0    0  501 -0.00000000000E+00 -0.00000000000E+00 -0.23366147880E+03  0.23366147880E+03  0.00000000000E+00 0.  1.
         25    2    1    2    0    0 -0.97022143908E+02  0.55544440839E+02 -0.14049824901E+03  0.21882864852E+03  0.12509091942E+03 0.  0.
          5    1    3    3  502    0 -0.11196918107E+03  0.54523327899E+01 -0.75083072042E+02  0.13498802002E+03  0.41800000000E+01 0. -1.
         -5    1    3    3    0  502  0.14947037165E+02  0.50092108049E+02 -0.65415176968E+02  0.83840628496E+02  0.41800000000E+01 0. -1.
        -11    1    1    2    0    0  0.36492526819E+01 -0.37954113396E+02 -0.28990183139E+01  0.38239195546E+02  0.00000000000E+00 0.  1.
         11    1    1    2    0    0  0.93372891226E+02 -0.17590327443E+02  0.34086835674E+02  0.10094468189E+03  0.00000000000E+00 0. -1.
</event>
<event>
 7    1  0.2626349E-009  0.1192269E+03  0.7561462E-02  0.1244378E+00
         -1   -1    0    0    0  501 -0.00000000000E+00  0.00000000000E+00  0.36045800405E+03  0.36045800405E+03  0.00000000000E+00 0.  1.
          1   -1    0    0  501    0  0.00000000000E+00 -0.00000000000E+00 -0.43002059292E+02  0.43002059292E+02  0.00000000000E+00 0. -1.
         25    2    1    2    0    0 -0.49795371328E+02 -0.35134948531E+02  0.21670226887E+03  0.25752865715E+03  0.12508833802E+03 0.  0.
          5    1    3    3  502    0  0.25186600722E+02 -0.51768643916E+02  0.61701777340E+02  0.84492242696E+02  0.41800000000E+01 0.  1.
         -5    1    3    3    0  502 -0.74981972050E+02  0.16633695385E+02  0.15500049153E+03  0.17303641446E+03  0.41800000000E+01 0.  1.
        -11    1    1    2    0    0  0.93542315791E+01 -0.27617384224E+02  0.17071489069E+02  0.33788419597E+02  0.00000000000E+00 0. -1.
         11    1    1    2    0    0  0.40441139749E+02  0.62752332755E+02  0.83682186818E+02  0.11214298659E+03  0.00000000000E+00 0.  1.
</event>
<event>
 7    1  0.2626349E-009  0.1575498E+03  0.7561462E-02  0.1191491E+00
         -2   -1    0    0    0  501 -0.00000000000E+00  0.00000000000E+00  0.13908352774E+03  0.13908352774E+03  0.00000000000E+00 0.  1.
          2   -1    0    0  501    0  0.00000000000E+00 -0.00000000000E+00 -0.21395595559E+03  0.21395595559E+03  0.00000000000E+00 0. -1.
         25    2    1    2    0    0  0.47784518812E+02  0.12378820459E+03 -0.60955009804E+02  0.19227471769E+03  0.12508866460E+03 0.  0.
          5    1    3    3  502    0 -0.23817864835E+02  0.77849160526E+01  0.21172477169E+02  0.33070255407E+02  0.41800000000E+01 0. -1.
         -5    1    3    3    0  502  0.71602383647E+02  0.11600328853E+03 -0.82127486973E+02  0.15920446228E+03  0.41800000000E+01 0. -1.
        -11    1    1    2    0    0 -0.29990772512E+02 -0.13079246119E+03 -0.27923517718E+02  0.13706143579E+03  0.00000000000E+00 0. -1.
         11    1    1    2    0    0 -0.17793746300E+02  0.70042566031E+01  0.14006099666E+02  0.23703329846E+02  0.00000000000E+00 0.  1.
</event>
<event>
 7    1  0.2626349E-009  0.1312086E+03  0.7561462E-02  0.1225673E+00
          1   -1    0    0  501    0  0.00000000000E+00  0.00000000000E+00  0.14045899798E+03  0.14045899798E+03  0.00000000000E+00 0. -1.
         -1   -1    0    0    0  501 -0.00000000000E+00 -0.00000000000E+00 -0.14735696594E+03  0.14735696594E+03  0.00000000000E+00 0.  1.
         25    2    1    2    0    0  0.79456334825E+02 -0.37271208161E+02  0.16269151114E+02  0.15366974911E+03  0.12508898598E+03 0.  0.
          5    1    3    3  502    0  0.45813734925E+01  0.34089073417E+02  0.34114836897E+02  0.48624565870E+02  0.41800000000E+01 0.  1.
         -5    1    3    3    0  502  0.74874961332E+02 -0.71360281579E+02 -0.17845685784E+02  0.10504518324E+03  0.41800000000E+01 0.  1.
        -11    1    1    2    0    0 -0.98926625558E+02  0.28943316612E+02 -0.36240631594E+02  0.10925921563E+03  0.00000000000E+00 0.  1.
         11    1    1    2    0    0  0.19470290733E+02  0.83278915499E+01  0.13073512520E+02  0.24886999187E+02  0.00000000000E+00 0. -1.
</event>
<event>
 7    1  0.2626349E-009  0.9649303E+02  0.7561462E-02  0.1287848E+00
         -1   -1    0    0    0  501 -0.00000000000E+00  0.00000000000E+00  0.11845350575E+03  0.11845350575E+03  0.00000000000E+00 0.  1.
          1   -1    0    0  501    0  0.00000000000E+00 -0.00000000000E+00 -0.14145511361E+03  0.14145511361E+03  0.00000000000E+00 0. -1.
         25    2    1    2    0    0  0.94682502979E+00  0.60026143255E+02 -0.48991840817E+02  0.14713924274E+03  0.12508286028E+03 0.  0.
          5    1    3    3  502    0 -0.32658403103E+02  0.42054835929E+02 -0.81116858908E+02  0.97121561547E+02  0.41800000000E+01 0. -1.
         -5    1    3    3    0  502  0.33605228133E+02  0.17971307326E+02  0.32125018091E+02  0.50017681196E+02  0.41800000000E+01 0. -1.
        -11    1    1    2    0    0 -0.13928194846E+02  0.17650771422E+02  0.25522451678E+02  0.34013819002E+02  0.00000000000E+00 0.  1.
         11    1    1    2    0    0  0.12981369817E+02 -0.77676914677E+02  0.46778128490E+00  0.78755557615E+02  0.00000000000E+00 0. -1.
</event>
<event>
 7    1  0.2626349E-009  0.1150917E+03  0.7561462E-02  0.1251421E+00
          1   -1    0    0  501    0  0.00000000000E+00  0.00000000000E+00  0.22011485402E+03  0.22011485402E+03  0.00000000000E+00 0. -1.
         -1   -1    0    0    0  501 -0.00000000000E+00 -0.00000000000E+00 -0.10108613977E+03  0.10108613977E+03  0.00000000000E+00 0.  1.
         25    2    1    2    0    0  0.63766631099E+02 -0.48881351122E+02  0.63892043223E+01  0.14880517722E+03  0.12508632662E+03 0.  0.
          5    1    3    3  502    0 -0.20160931787E+02 -0.23993204582E+02 -0.38921904144E+02  0.50145030250E+02  0.41800000000E+01 0.  1.
         -5    1    3    3    0  502  0.83927562887E+02 -0.24888146541E+02  0.45311108466E+02  0.98660146973E+02  0.41800000000E+01 0.  1.
        -11    1    1    2    0    0  0.44084537581E+01 -0.16131150718E+02  0.64444552975E+02  0.66578892272E+02  0.00000000000E+00 0. -1.
         11    1    1    2    0    0 -0.68175084858E+02  0.65012501841E+02  0.48194956951E+02  0.10581692429E+03  0.00000000000E+00 0.  1.
</event>
<event>
 7    1  0.2626349E-009  0.7815098E+02  0.7561462E-02  0.1334382E+00
          2   -1    0    0  501    0  0.00000000000E+00  0.00000000000E+00  0.21868839140E+03  0.21868839140E+03  0.00000000000E+00 0. -1.
         -2   -1    0    0    0  501 -0.00000000000E+00 -0.00000000000E+00 -0.92955627349E+02  0.92955627349E+02  0.00000000000E+00 0.  1.
         25    2    1    2    0    0 -0.25216368357E+02 -0.37275840238E+01 -0.27779307033E+02  0.13064924649E+03  0.12509106920E+03 0.  0.
          5    1    3    3  502    0 -0.31247600811E+02  0.23245844029E+02  0.40819927052E+02  0.56573144385E+02  0.41800000000E+01 0. -1.
         -5    1    3    3    0  502  0.60312324537E+01 -0.26973428053E+02 -0.68599234085E+02  0.74076102103E+02  0.41800000000E+01 0. -1.
        -11    1    1    2    0    0  0.25333025132E+02 -0.38970289962E+02  0.11278735577E+03  0.12198948022E+03  0.00000000000E+00 0. -1.
         11    1    1    2    0    0 -0.11665677510E+00  0.42697873986E+02  0.40724715312E+02  0.59005292042E+02  0.00000000000E+00 0.  1.
</event>
<event>
 7    1  0.2626349E-009  0.1146772E+03  0.7561462E-02  0.1252146E+00
         -1   -1    0    0    0  501 -0.00000000000E+00  0.00000000000E+00  0.78877207318E+02  0.78877207318E+02  0.00000000000E+00 0.  1.
          1   -1    0    0  501    0  0.00000000000E+00 -0.00000000000E+00 -0.33261750845E+03  0.33261750845E+03  0.00000000000E+00 0. -1.
         25    2    1    2    0    0 -0.11682936686E+02 -0.45037287186E+02 -0.27712994951E+03  0.30759146409E+03  0.12508657649E+03 0.  0.
          5    1    3    3  502    0  0.46635886025E+02  0.13685238360E+02 -0.79242193749E+02  0.93053690332E+02  0.41800000000E+01 0.  1.
         -5    1    3    3    0  502 -0.58318822710E+02 -0.58722525546E+02 -0.19788775576E+03  0.21453777376E+03  0.41800000000E+01 0.  1.
        -11    1    1    2    0    0  0.46096831049E+02  0.73654861071E+01  0.24798345470E+02  0.52859494477E+02  0.00000000000E+00 0.  1.
         11    1    1    2    0    0 -0.34413894363E+02  0.37671801079E+02 -0.14086970936E+01  0.51043757201E+02  0.00000000000E+00 0. -1.
</event>
<event>
 7    1  0.2626349E-009  0.1009631E+03  0.7561462E-02  0.1278284E+00
          1   -1    0    0  501    0  0.00000000000E+00  0.00000000000E+00  0.81655580769E+02  0.81655580769E+02  0.00000000000E+00 0. -1.
         -1   -1    0    0    0  501 -0.00000000000E+00 -0.00000000000E+00 -0.20350004417E+03  0.20350004417E+03  0.00000000000E+00 0.  1.
         25    2    1    2    0    0 -0.60721137088E+02 -0.22443267267E+02 -0.98039397880E+02  0.17160965550E+03  0.12508954229E+03 0.  0.
          5    1    3    3  502    0 -0.50356777299E+00  0.24241102741E+02 -0.91806846331E+02  0.95046588975E+02  0.41800000000E+01 0. -1.
         -5    1    3    3    0  502 -0.60217569315E+02 -0.46684370008E+02 -0.62325515486E+01  0.76563066527E+02  0.41800000000E+01 0. -1.
        -11    1    1    2    0    0 -0.11514079430E+02  0.26264046420E+02  0.14016031600E+02  0.31919011596E+02  0.00000000000E+00 0. -1.
         11    1    1    2    0    0  0.72235216518E+02 -0.38207791529E+01 -0.37821097120E+02  0.81626957839E+02  0.00000000000E+00 0.  1.
</event>
<event>
 7    1  0.2626349E-009  0.8117371E+02  0.7561462E-02  0.1325753E+00
          1   -1    0    0  501    0  0.00000000000E+00  0.00000000000E+00  0.11393732136E+03  0.11393732136E+03  0.00000000000E+00 0. -1.
         -1   -1    0    0    0  501 -0.00000000000E+00 -0.00000000000E+00 -0.12915189487E+03  0.12915189487E+03  0.00000000000E+00 0.  1.
         25    2    1    2    0    0 -0.41718525157E+02  0.24303273978E+02 -0.35308902931E+02  0.13865782856E+03  0.12509272691E+03 0.  0.
          5    1    3    3  502    0 -0.13167902049E+02  0.41364166870E+02  0.38130802631E+02  0.57929426499E+02  0.41800000000E+01 0. -1.
         -5    1    3    3    0  502 -0.28550623109E+02 -0.17060892891E+02 -0.73439705561E+02  0.80728402059E+02  0.41800000000E+01 0. -1.
        -11    1    1    2    0    0  0.83202335940E+01  0.24615236706E+02 -0.20098766587E+02  0.32849605530E+02  0.00000000000E+00 0.  1.
         11    1    1    2    0    0  0.33398291563E+02 -0.48918510684E+02  0.40193096013E+02  0.71581782138E+02  0.00000000000E+00 0. -1.
</event>
<event>
 7    1  0.2626349E-009  0.1437132E+03  0.7561462E-02  0.1208418E+00
          1   -1    0    0  501    0  0.00000000000E+00  0.00000000000E+00  0.54519547419E+03  0.54519547419E+03  0.00000000000E+00 0. -1.
         -1   -1    0    0    0  501 -0.00000000000E+00 -0.00000000000E+00 -0.54491664408E+02  0.54491664408E+02  0.00000000000E+00 0.  1.
         25    2    1    2    0    0 -0.95669985024E+01 -0.11702730713E+03  0.37053483032E+03  0.40832501706E+03  0.12508533490E+03 0.  0.
          5    1    3    3  502    0  0.54919836314E+02 -0.35472036717E+02  0.11388557061E+03  0.13138435752E+03  0.41800000000E+01 0. -1.
         -5    1    3    3    0  502 -0.64486834816E+02 -0.81555270414E+02  0.25664925971E+03  0.27694065954E+03  0.41800000000E+01 0. -1.
        -11    1    1    2    0    0  0.35024399299E+01  0.93418864610E+02  0.30339689742E+02  0.98284526372E+02  0.00000000000E+00 0.  1.
         11    1    1    2    0    0  0.60645585725E+01  0.23608442521E+02  0.89829289729E+02  0.93077595167E+02  0.00000000000E+00 0. -1.
</event>
<event>
 7    1  0.2626349E-009  0.2127254E+03  0.7561462E-02  0.1139426E+00
          2   -1    0    0  501    0  0.00000000000E+00  0.00000000000E+00  0.62327939510E+03  0.62327939510E+03  0.00000000000E+00 0. -1.
         -2   -1    0    0    0  501 -0.00000000000E+00 -0.00000000000E+00 -0.82427209596E+02  0.82427209596E+02  0.00000000000E+00 0.  1.
         25    2    1    2    0    0 -0.19318245475E+03  0.13612301310E+02  0.21442407689E+03  0.31484855755E+03  0.12508866404E+03 0.  0.
          5    1    3    3  502    0 -0.11856397469E+02  0.42929164228E+02  0.26299530288E+02  0.51890509688E+02  0.41800000000E+01 0. -1.
         -5    1    3    3    0  502 -0.18132605728E+03 -0.29316862918E+02  0.18812454660E+03  0.26295804786E+03  0.41800000000E+01 0. -1.
        -11    1    1    2    0    0  0.14753998534E+03  0.51795346857E+01  0.30117844374E+03  0.33541516040E+03  0.00000000000E+00 0.  1.
         11    1    1    2    0    0  0.45642469412E+02 -0.18791835996E+02  0.25249664876E+02  0.55442886744E+02  0.00000000000E+00 0. -1.
</event>
<event>
 7    1  0.2626349E-009  0.2424839E+03  0.7561462E-02  0.1118149E+00
         -1   -1    0    0    0  501 -0.00000000000E+00  0.00000000000E+00  0.11104667302E+03  0.11104667302E+03  0.00000000000E+00 0.  1.
          1   -1    0    0  501    0  0.00000000000E+00 -0.00000000000E+00 -0.67281428727E+03  0.67281428727E+03  0.00000000000E+00 0. -1.
         25    2    1    2    0    0 -0.91404297237E+02  0.21150477714E+03 -0.42912835264E+03  0.50287963316E+03  0.12509103127E+03 0.  0.
          5    1    3    3  502    0 -0.31076751564E+02  0.15303626688E+03 -0.17204491225E+03  0.23238499887E+03  0.41800000000E+01 0.  1.
         -5    1    3    3    0  502 -0.60327545673E+02  0.58468510256E+02 -0.25708344038E+03  0.27049463429E+03  0.41800000000E+01 0.  1.
        -11    1    1    2    0    0  0.60479482597E+02 -0.45259318685E+02 -0.21171759316E+02  0.78450093280E+02  0.00000000000E+00 0.  1.
         11    1    1    2    0    0  0.30924814640E+02 -0.16624545845E+03 -0.11146750229E+03  0.20253123385E+03  0.00000000000E+00 0. -1.
</event>
<event>
 7    1  0.2626349E-009  0.1233199E+03  0.7561462E-02  0.1237719E+00
         -2   -1    0    0    0  501 -0.00000000000E+00  0.00000000000E+00  0.19567186049E+02  0.19567186049E+02  0.00000000000E+00 0.  1.
          2   -1    0    0  501    0  0.00000000000E+00 -0.00000000000E+00 -0.94717472741E+03  0.94717472741E+03  0.00000000000E+00 0. -1.
         25    2    1    2    0    0  0.39122965295E+02  0.67861224772E+02 -0.42362476094E+03  0.44859833089E+03  0.12508705832E+03 0.  0.
          5    1    3    3  502    0  0.69539278831E+02  0.20122051379E+02 -0.12400728138E+03  0.14365196305E+03  0.41800000000E+01 0. -1.
         -5    1    3    3    0  502 -0.30416313537E+02  0.47739173394E+02 -0.29961747956E+03  0.30494636785E+03  0.41800000000E+01 0. -1.
        -11    1    1    2    0    0 -0.54444500898E+02 -0.73399874025E+01 -0.29350125021E+03  0.29859849794E+03  0.00000000000E+00 0.  1.
         11    1    1    2    0    0  0.15321535603E+02 -0.60521237370E+02 -0.21048153021E+03  0.21954508463E+03  0.00000000000E+00 0. -1.
</event>
<event>
 7    1  0.2626349E-009  0.7758680E+02  0.7561462E-02  0.1336043E+00
          1   -1    0    0  501    0  0.00000000000E+00  0.00000000000E+00  0.62127540712E+02  0.62127540712E+02  0.00000000000E+00 0. -1.
         -1   -1    0    0    0  501 -0.00000000000E+00 -0.00000000000E+00 -0.33340447096E+03  0.33340447096E+03  0.00000000000E+00 0.  1.
         25    2    1    2    0    0 -0.60879375172E+02  0.11090884452E+01 -0.24638430427E+03  0.28295016421E+03  0.12509213259E+03 0.  0.
          5    1    3    3  502    0 -0.26788462319E+02 -0.33508340214E+01 -0.24680566797E+03  0.24831302814E+03  0.41800000000E+01 0. -1.
         -5    1    3    3    0  502 -0.34090912853E+02  0.44599224666E+01  0.42136370080E+00  0.34637136067E+02  0.41800000000E+01 0.  1.
        -11    1    1    2    0    0  0.52169601800E+02  0.30501305987E+02  0.13675646411E+02  0.61959828306E+02  0.00000000000E+00 0. -1.
         11    1    1    2    0    0  0.87097733719E+01 -0.31610394433E+02 -0.38568272387E+02  0.50622019155E+02  0.00000000000E+00 0.  1.
</event>
<event>
 7    1  0.2626349E-009  0.1444573E+03  0.7561462E-02  0.1207454E+00
         -2   -1    0    0    0  501 -0.00000000000E+00  0.00000000000E+00  0.26166705573E+02  0.26166705573E+02  0.00000000000E+00 0.  1.
          2   -1    0    0  501    0  0.00000000000E+00 -0.00000000000E+00 -0.87966390638E+03  0.87966390638E+03  0.00000000000E+00 0. -1.
         25    2    1    2    0    0 -0.62615827728E+02 -0.74523145040E+02 -0.33395821421E+03  0.36965831036E+03  0.12507892130E+03 0.  0.
          5    1    3    3  502    0 -0.26048834894E+02  0.34390848912E+02 -0.83728222920E+02  0.94282341939E+02  0.41800000000E+01 0. -1.
         -5    1    3    3    0  502 -0.36566992834E+02 -0.10891399395E+03 -0.25022999129E+03  0.27537596842E+03  0.41800000000E+01 0. -1.
        -11    1    1    2    0    0  0.20344855363E+02  0.84714547364E+02 -0.38689491595E+03  0.39658308545E+03  0.00000000000E+00 0. -1.
         11    1    1    2    0    0  0.42270972365E+02 -0.10191402324E+02 -0.13264407065E+03  0.13958921615E+03  0.00000000000E+00 0.  1.
</event>
<event>
 7    1  0.2626349E-009  0.2818140E+03  0.7561462E-02  0.1094702E+00
         -2   -1    0    0    0  501 -0.00000000000E+00  0.00000000000E+00  0.34178701447E+03  0.34178701447E+03  0.00000000000E+00 0.  1.
          2   -1    0    0  501    0  0.00000000000E+00 -0.00000000000E+00 -0.77123206026E+03  0.77123206026E+03  0.00000000000E+00 0. -1.
         25    2    1    2    0    0  0.93324782472E+02 -0.25399972477E+03  0.24160361193E+03  0.38372597128E+03  0.12509172846E+03 0.  0.
          5    1    3    3  502    0 -0.56195871908E+01 -0.14594148746E+03  0.84156228545E+02  0.16861269444E+03  0.41800000000E+01 0.  1.
         -5    1    3    3    0  502  0.98944369663E+02 -0.10805823731E+03  0.15744738339E+03  0.21511327684E+03  0.41800000000E+01 0.  1.
        -11    1    1    2    0    0 -0.52553165079E+02  0.12329482659E+03 -0.44757606781E+03  0.46721278439E+03  0.00000000000E+00 0.  1.
         11    1    1    2    0    0 -0.40771617393E+02  0.13070489818E+03 -0.22347258991E+03  0.26208031905E+03  0.00000000000E+00 0. -1.
</event>
<event>
 7    1  0.2626349E-009  0.1021532E+03  0.7561462E-02  0.1275832E+00
         -2   -1    0    0    0  501 -0.00000000000E+00  0.00000000000E+00  0.12911332259E+02  0.12911332259E+02  0.00000000000E+00 0.  1.
          2   -1    0    0  501    0  0.00000000000E+00 -0.00000000000E+00 -0.11300779688E+04  0.11300779688E+04  0.00000000000E+00 0. -1.
         25    2    1    2    0    0 -0.27518842648E+01  0.39916228547E+02 -0.79577206094E+03  0.80653683281E+03  0.12509041341E+03 0.  0.
          5    1    3    3  502    0 -0.77584250899E+01  0.71910194342E+02 -0.26391444084E+03  0.27367786482E+03  0.41800000000E+01 0.  1.
         -5    1    3    3    0  502  0.50065408251E+01 -0.31993965795E+02 -0.53185762011E+03  0.53285896799E+03  0.41800000000E+01 0.  1.
        -11    1    1    2    0    0 -0.41724774686E+02 -0.34996525129E+02 -0.18977223961E+03  0.19743154895E+03  0.00000000000E+00 0. -1.
         11    1    1    2    0    0  0.44476658951E+02 -0.49197034184E+01 -0.13162233600E+03  0.13902091931E+03  0.00000000000E+00 0.  1.
</event>
<event>
 7    1  0.2626349E-009  0.1731086E+03  0.7561462E-02  0.1174644E+00
         -1   -1    0    0    0  501 -0.00000000000E+00  0.00000000000E+00  0.13066528591E+03  0.13066528591E+03  0.00000000000E+00 0.  1.
          1   -1    0    0  501    0  0.00000000000E+00 -0.00000000000E+00 -0.33717041958E+03  0.33717041958E+03  0.00000000000E+00 0. -1.
         25    2    1    2    0    0  0.44132788474E+02 -0.15742152685E+03 -0.18969011494E+03  0.27992202604E+03  0.12507901831E+03 0.  0.
          5    1    3    3  502    0  0.47330213959E+02 -0.12806081689E+03 -0.20504364186E+03  0.24637388141E+03  0.41800000000E+01 0.  1.
         -5    1    3    3    0  502 -0.31974254853E+01 -0.29360709956E+02  0.15353526917E+02  0.33548144624E+02  0.41800000000E+01 0.  1.
        -11    1    1    2    0    0  0.19427454528E+02  0.63380998279E+02 -0.31620015487E+02  0.73446594964E+02  0.00000000000E+00 0. -1.
         11    1    1    2    0    0 -0.63560243002E+02  0.94040528571E+02  0.14804996756E+02  0.11446708450E+03  0.00000000000E+00 0.  1.
</event>
<event>
 7    1  0.2843235E-009  0.1036158E+03  0.7561462E-02  0.1272871E+00
         -2   -1    0    0    0  501 -0.00000000000E+00  0.00000000000E+00  0.10865045115E+03  0.10865045115E+03  0.00000000000E+00 0.  1.
          2   -1    0    0  501    0  0.00000000000E+00 -0.00000000000E+00 -0.14033197608E+03  0.14033197608E+03  0.00000000000E+00 0. -1.
         25    2    1    2    0    0 -0.62484054004E+01  0.27285631887E+02  0.33461510475E+02  0.13248091930E+03  0.12509185832E+03 0.  0.
          5    1    3    3  502    0 -0.17713397404E+02  0.75652539552E+02  0.26020323086E+02  0.82046333262E+02  0.41800000000E+01 0. -1.
         -5    1    3    3    0  502  0.11464992003E+02 -0.48366907665E+02  0.74411873890E+01  0.50434586035E+02  0.41800000000E+01 0. -1.
        -11    1    1    2    0    0  0.34356532870E+02 -0.36337907100E+02 -0.59620911663E+01  0.50362301123E+02  0.00000000000E+00 0.  1.
         11    1    1    2    0    0 -0.28108127470E+02  0.90522752131E+01 -0.59180944234E+02  0.66139206805E+02  0.00000000000E+00 0. -1.
</event>
<event>
 7    1  0.2626349E-009  0.1385850E+03  0.7561462E-02  0.1215246E+00
         -2   -1    0    0    0  501 -0.00000000000E+00  0.00000000000E+00  0.28042678665E+03  0.28042678665E+03  0.00000000000E+00 0.  1.
          2   -1    0    0  501    0  0.00000000000E+00 -0.00000000000E+00 -0.98720915448E+02  0.98720915448E+02  0.00000000000E+00 0. -1.
         25    2    1    2    0    0  0.62357504645E+02  0.90650127421E+02  0.16850170999E+03  0.23695246093E+03  0.12509092088E+03 0.  0.
          5    1    3    3  502    0  0.14286268846E+02  0.11215413099E+03  0.12422547572E+03  0.16802406909E+03  0.41800000000E+01 0. -1.
         -5    1    3    3    0  502  0.48071235799E+02 -0.21504003571E+02  0.44276234268E+02  0.68928391841E+02  0.41800000000E+01 0. -1.
        -11    1    1    2    0    0 -0.57353594042E+02 -0.72866106875E+02 -0.28144306331E+02  0.96907204374E+02  0.00000000000E+00 0. -1.
         11    1    1    2    0    0 -0.50039106021E+01 -0.17784020546E+02  0.41348467547E+02  0.45288036793E+02  0.00000000000E+00 0.  1.
</event>
<event>
 7    1  0.2626349E-009  0.8267255E+02  0.7561462E-02  0.1321634E+00
          2   -1    0    0  501    0  0.00000000000E+00  0.00000000000E+00  0.28217388310E+03  0.28217388310E+03  0.00000000000E+00 0. -1.
         -2   -1    0    0    0  501 -0.00000000000E+00 -0.00000000000E+00 -0.52877925398E+02  0.52877925398E+02  0.00000000000E+00 0.  1.
         25    2    1    2    0    0  0.22501308592E+02 -0.29488068262E+02  0.18198876302E+03  0.22392211607E+03  0.12508137007E+03 0.  0.
          5    1    3    3  502    0  0.36735914380E+02 -0.34721133296E+02  0.10604176824E+02  0.51817038403E+02  0.41800000000E+01 0.  1.
         -5    1    3    3    0  502 -0.14234605788E+02  0.52330650343E+01  0.17138458620E+03  0.17210507767E+03  0.41800000000E+01 0.  1.
        -11    1    1    2    0    0 -0.48080920111E+02 -0.12543185974E+02  0.33834040708E+02  0.60115295090E+02  0.00000000000E+00 0.  1.
         11    1    1    2    0    0  0.25579611519E+02  0.42031254236E+02  0.13473153970E+02  0.51014397341E+02  0.00000000000E+00 0. -1.
</event>
<event>
 7    1  0.2626349E-009  0.8722403E+02  0.7561462E-02  0.1309717E+00
         -1   -1    0    0    0  501 -0.00000000000E+00  0.00000000000E+00  0.97843087930E+03  0.97843087930E+03  0.00000000000E+00 0.  1.
          1   -1    0    0  501    0  0.00000000000E+00 -0.00000000000E+00 -0.15460148767E+02  0.15460148767E+02  0.00000000000E+00 0. -1.
         25    2    1    2    0    0  0.87211646985E+01  0.39322856334E+02  0.70614862594E+03  0.71827246365E+03  0.12508838625E+03 0.  0.
          5    1    3    3  502    0 -0.23198268748E+02  0.43715681335E+02  0.10402740507E+03  0.11527529602E+03  0.41800000000E+01 0.  1.
         -5    1    3    3    0  502  0.31919433446E+02 -0.43928250015E+01  0.60212122087E+03  0.60299716763E+03  0.41800000000E+01 0.  1.
        -11    1    1    2    0    0 -0.36031488962E+02 -0.51120327706E+02  0.21748301034E+03  0.22629718489E+03  0.00000000000E+00 0.  1.
         11    1    1    2    0    0  0.27310324263E+02  0.11797471373E+02  0.39339094251E+02  0.49321379529E+02  0.00000000000E+00 0. -1.
</event>
<event>
 7    1  0.2626349E-009  0.8394373E+02  0.7561462E-02  0.1318218E+00
          2   -1    0    0  501    0  0.00000000000E+00  0.00000000000E+00  0.28831612631E+03  0.28831612631E+03  0.00000000000E+00 0. -1.
         -2   -1    0    0    0  501 -0.00000000000E+00 -0.00000000000E+00 -0.49680246523E+02  0.49680246523E+02  0.00000000000E+00 0.  1.
         25    2    1    2    0    0  0.24909524251E+02  0.43777792181E+02  0.11931756550E+03  0.18005818306E+03  0.12508912168E+03 0.  0.
          5    1    3    3  502    0  0.37668273722E+02  0.90450329072E+01 -0.14180410263E+02  0.41464055526E+02  0.41800000000E+01 0. -1.
         -5    1    3    3    0  502 -0.12758749471E+02  0.34732759274E+02  0.13349797576E+03  0.13859412753E+03  0.41800000000E+01 0. -1.
        -11    1    1    2    0    0 -0.38009148593E+02  0.75168258362E+01  0.16144100211E+02  0.41974158943E+02  0.00000000000E+00 0.  1.
         11    1    1    2    0    0  0.13099624342E+02 -0.51294618017E+02  0.10317421408E+03  0.11596403083E+03  0.00000000000E+00 0. -1.
</event>
<event>
 7    1  0.2626349E-009  0.9964026E+02  0.7561462E-02  0.1281054E+00
         -1   -1    0    0    0  501 -0.00000000000E+00  0.00000000000E+00  0.67770650321E+02  0.67770650321E+02  0.00000000000E+00 0. -1.
          1   -1    0    0  501    0  0.00000000000E+00 -0.00000000000E+00 -0.27799404781E+03  0.27799404781E+03  0.00000000000E+00 0.  1.
         25    2    1    2    0    0 -0.61049743964E+02 -0.12056383886E+02 -0.44735747060E+02  0.14670141910E+03  0.12509033405E+03 0.  0.
          5    1    3    3  502    0 -0.29520805447E+01 -0.51329975062E+02 -0.55340916901E+02  0.75654283441E+02  0.41800000000E+01 0. -1.
         -5    1    3    3    0  502 -0.58097663419E+02  0.39273591176E+02  0.10605169841E+02  0.71047135663E+02  0.41800000000E+01 0. -1.
        -11    1    1    2    0    0  0.57600967087E+02  0.25916067889E+02 -0.17209992188E+03  0.18332456763E+03  0.00000000000E+00 0.  1.
         11    1    1    2    0    0  0.34487768770E+01 -0.13859684002E+02  0.66122714565E+01  0.15738711396E+02  0.00000000000E+00 0. -1.
</event>
<event>
 7    1  0.2626349E-009  0.8598670E+02  0.7561462E-02  0.1312872E+00
          3   -1    0    0  501    0  0.00000000000E+00  0.00000000000E+00  0.15845390134E+03  0.15845390134E+03  0.00000000000E+00 0. -1.
         -3   -1    0    0    0  501 -0.00000000000E+00 -0.00000000000E+00 -0.62596699899E+02  0.62596699899E+02  0.00000000000E+00 0.  1.
         25    2    1    2    0    0  0.40679664813E+01 -0.25108475154E+02  0.63739203104E+02  0.14267650760E+03  0.12508763301E+03 0.  0.
          5    1    3    3  502    0 -0.24464024014E+02  0.40514215676E+02  0.51307755532E+02  0.69927450408E+02  0.41800000000E+01 0.  1.
         -5    1    3    3    0  502  0.28531990495E+02 -0.65622690830E+02  0.12431447571E+02  0.72749057190E+02  0.41800000000E+01 0.  1.
        -11    1    1    2    0    0  0.16625701429E+02  0.27309551861E+02 -0.81956839602E+01  0.33005981373E+02  0.00000000000E+00 0.  1.
         11    1    1    2    0    0 -0.20693667910E+02 -0.22010767069E+01  0.40313682294E+02  0.45368112263E+02  0.00000000000E+00 0. -1.
</event>
<event>
 7    1  0.2626349E-009  0.1144907E+03  0.7561462E-02  0.1252473E+00
          2   -1    0    0  501    0  0.00000000000E+00  0.00000000000E+00  0.18976260233E+04  0.18976260233E+04  0.00000000000E+00 0. -1.
         -2   -1    0    0    0  501 -0.00000000000E+00 -0.00000000000E+00 -0.85983132018E+01  0.85983132018E+01  0.00000000000E+00 0.  1.
         25    2    1    2    0    0  0.65287300079E+02 -0.26674217658E+02  0.12489070394E+04  0.12571353444E+04  0.12508611296E+03 0.  0.
          5    1    3    3  502    0  0.43902975135E+02  0.34849835842E+02  0.25660598992E+03  0.26269010021E+03  0.41800000000E+01 0. -1.
         -5    1    3    3    0  502  0.21384324944E+02 -0.61524053500E+02  0.99230104950E+03  0.99444524422E+03  0.41800000000E+01 0. -1.
        -11    1    1    2    0    0 -0.84399247337E+02  0.26250068628E+02  0.53134823108E+03  0.53864946090E+03  0.00000000000E+00 0.  1.
         11    1    1    2    0    0  0.19111947259E+02  0.42414903048E+00  0.10877243959E+03  0.11043953116E+03  0.00000000000E+00 0. -1.
</event>
<event>
 7    1  0.2626349E-009  0.2691083E+03  0.7561462E-02  0.1101791E+00
          2   -1    0    0  501    0  0.00000000000E+00  0.00000000000E+00  0.67723839859E+03  0.67723839859E+03  0.00000000000E+00 0. -1.
         -2   -1    0    0    0  501 -0.00000000000E+00 -0.00000000000E+00 -0.12069274347E+03  0.12069274347E+03  0.00000000000E+00 0.  1.
         25    2    1    2    0    0  0.75314977314E+02 -0.25244330640E+03  0.25887966007E+03  0.38995654716E+03  0.12508981384E+03 0.  0.
          5    1    3    3  502    0  0.58349142152E+02 -0.23770487047E+03  0.27007085384E+03  0.36450509781E+03  0.41800000000E+01 0. -1.
         -5    1    3    3    0  502  0.16965835162E+02 -0.14738435926E+02 -0.11191193770E+02  0.25451449355E+02  0.41800000000E+01 0. -1.
        -11    1    1    2    0    0  0.72630376276E+01  0.69073196161E+02  0.12461349645E+03  0.14266177358E+03  0.00000000000E+00 0. -1.
         11    1    1    2    0    0 -0.82578014941E+02  0.18337011024E+03  0.17305249860E+03  0.26531282131E+03  0.00000000000E+00 0.  1.
</event>
<event>
 7    1  0.2626349E-009  0.1031027E+03  0.7561462E-02  0.1273904E+00
         -2   -1    0    0    0  501 -0.00000000000E+00  0.00000000000E+00  0.10079127758E+03  0.10079127758E+03  0.00000000000E+00 0.  1.
          2   -1    0    0  501    0  0.00000000000E+00 -0.00000000000E+00 -0.17102137606E+03  0.17102137606E+03  0.00000000000E+00 0. -1.
         25    2    1    2    0    0  0.52784570932E+01 -0.43224167294E+02 -0.10155345891E+03  0.16690360482E+03  0.12509003772E+03 0.  0.
          5    1    3    3  502    0  0.24537796919E+02 -0.75345603825E+02 -0.10198141225E+03  0.12921588269E+03  0.41800000000E+01 0. -1.
         -5    1    3    3    0  502 -0.19259339826E+02  0.32121436531E+02  0.42795334321E+00  0.37687722131E+02  0.41800000000E+01 0. -1.
        -11    1    1    2    0    0  0.28468975760E+02 -0.63787536315E+01 -0.11329976573E+02  0.31297594921E+02  0.00000000000E+00 0. -1.
         11    1    1    2    0    0 -0.33747432853E+02  0.49602920926E+02  0.42653337002E+02  0.73611453904E+02  0.00000000000E+00 0.  1.
</event>
<event>
 7    1  0.2626349E-009  0.1499352E+03  0.7561462E-02  0.1200553E+00
          2   -1    0    0  501    0  0.00000000000E+00  0.00000000000E+00  0.27601500309E+03  0.27601500309E+03  0.00000000000E+00 0. -1.
         -2   -1    0    0    0  501 -0.00000000000E+00 -0.00000000000E+00 -0.95777264523E+02  0.95777264523E+02  0.00000000000E+00 0.  1.
         25    2    1    2    0    0 -0.93447599622E+01  0.11783206229E+03  0.13703303045E+03  0.21999464129E+03  0.12509145182E+03 0.  0.
          5    1    3    3  502    0  0.45844553769E+02  0.76508909787E+02  0.11869375293E+03  0.14852951145E+03  0.41800000000E+01 0. -1.
         -5    1    3    3    0  502 -0.55189313731E+02  0.41323152503E+02  0.18339277523E+02  0.71465129839E+02  0.41800000000E+01 0. -1.
        -11    1    1    2    0    0 -0.19398240349E+02  0.82838782667E+00 -0.57609747467E+01  0.20252574776E+02  0.00000000000E+00 0.  1.
         11    1    1    2    0    0  0.28743000311E+02 -0.11866045012E+03  0.48965682863E+02  0.13154505155E+03  0.00000000000E+00 0. -1.
</event>
<event>
 7    1  0.2626349E-009  0.9011790E+02  0.7561462E-02  0.1302566E+00
          1   -1    0    0  501    0  0.00000000000E+00  0.00000000000E+00  0.60719632713E+02  0.60719632713E+02  0.00000000000E+00 0. -1.
         -1   -1    0    0    0  501 -0.00000000000E+00 -0.00000000000E+00 -0.40722411033E+03  0.40722411033E+03  0.00000000000E+00 0.  1.
         25    2    1    2    0    0 -0.39304859860E+01  0.73710485622E+01 -0.35639103483E+03  0.37779898638E+03  0.12509086030E+03 0.  0.
          5    1    3    3  502    0  0.56413637895E+02 -0.17954455476E+02 -0.15351503644E+03  0.16458796987E+03  0.41800000000E+01 0. -1.
         -5    1    3    3    0  502 -0.60344123881E+02  0.25325504038E+02 -0.20287599838E+03  0.21321101651E+03  0.41800000000E+01 0. -1.
        -11    1    1    2    0    0 -0.13045668688E+02 -0.26619972791E+02 -0.30346118500E+02  0.42422863304E+02  0.00000000000E+00 0.  1.
         11    1    1    2    0    0  0.16976154674E+02  0.19248924229E+02  0.40232675706E+02  0.47721893361E+02  0.00000000000E+00 0. -1.
</event>
<event>
 7    1  0.2626349E-009  0.1104188E+03  0.7561462E-02  0.1259796E+00
          1   -1    0    0  501    0  0.00000000000E+00  0.00000000000E+00  0.17023485319E+03  0.17023485319E+03  0.00000000000E+00 0. -1.
         -1   -1    0    0    0  501 -0.00000000000E+00 -0.00000000000E+00 -0.77141116431E+02  0.77141116431E+02  0.00000000000E+00 0.  1.
         25    2    1    2    0    0  0.32142831739E+02  0.17389660604E+01  0.48557569765E+02  0.13799116640E+03  0.12509012266E+03 0.  0.
          5    1    3    3  502    0  0.56953932556E+02  0.43934815605E+02  0.51825662886E+02  0.88754662916E+02  0.41800000000E+01 0. -1.
         -5    1    3    3    0  502 -0.24811100817E+02 -0.42195849544E+02 -0.32680931206E+01  0.49236503482E+02  0.41800000000E+01 0. -1.
        -11    1    1    2    0    0 -0.64830150374E+02 -0.10832945516E+02  0.33003911572E+02  0.73549706221E+02  0.00000000000E+00 0.  1.
         11    1    1    2    0    0  0.32687318635E+02  0.90939794561E+01  0.11532255418E+02  0.35835096999E+02  0.00000000000E+00 0. -1.
</event>
<event>
 7    1  0.2626349E-009  0.1037437E+03  0.7561462E-02  0.1272615E+00
          2   -1    0    0  501    0  0.00000000000E+00  0.00000000000E+00  0.75869848767E+03  0.75869848767E+03  0.00000000000E+00 0. -1.
         -2   -1    0    0    0  501 -0.00000000000E+00 -0.00000000000E+00 -0.22798802450E+02  0.22798802450E+02  0.00000000000E+00 0.  1.
         25    2    1    2    0    0 -0.34422949767E+02 -0.17680535137E+02  0.59517428866E+03  0.60940742062E+03  0.12508968637E+03 0.  0.
          5    1    3    3  502    0 -0.70432128879E+02 -0.71462749032E+01  0.52459335806E+03  0.52936510817E+03  0.41800000000E+01 0.  1.
         -5    1    3    3    0  502  0.36009179112E+02 -0.10534260234E+02  0.70580930595E+02  0.80042312452E+02  0.41800000000E+01 0.  1.
        -11    1    1    2    0    0 -0.14433899539E+02 -0.28274922766E+02  0.39825899242E+02  0.50930452224E+02  0.00000000000E+00 0.  1.
         11    1    1    2    0    0  0.48856849306E+02  0.45955457903E+02  0.10089949732E+03  0.12115941728E+03  0.00000000000E+00 0. -1.
</event>
<event>
 7    1  0.2626349E-009  0.1673310E+03  0.7561462E-02  0.1180660E+00
         -1   -1    0    0    0  501 -0.00000000000E+00  0.00000000000E+00  0.17743590312E+03  0.17743590312E+03  0.00000000000E+00 0.  1.
          1   -1    0    0  501    0  0.00000000000E+00 -0.00000000000E+00 -0.19025109716E+03  0.19025109716E+03  0.00000000000E+00 0. -1.
         25    2    1    2    0    0  0.10733716064E+03  0.95406314410E+02  0.30905753048E+02  0.19294348781E+03  0.12509353714E+03 0.  0.
          5    1    3    3  502    0  0.13469534929E+03  0.90382612412E+02  0.24598371487E+02  0.16411704977E+03  0.41800000000E+01 0.  1.
         -5    1    3    3    0  502 -0.27358188649E+02  0.50237019975E+01  0.63073815611E+01  0.28826438040E+02  0.41800000000E+01 0.  1.
        -11    1    1    2    0    0 -0.61555878214E+02 -0.63700207292E+02  0.19282104343E+02  0.90656726720E+02  0.00000000000E+00 0.  1.
         11    1    1    2    0    0 -0.45781282423E+02 -0.31706107118E+02 -0.63003051424E+02  0.84086785749E+02  0.00000000000E+00 0. -1.
</event>
<event>
 7    1  0.2626349E-009  0.1025974E+03  0.7561462E-02  0.1274927E+00
         -2   -1    0    0    0  501 -0.00000000000E+00  0.00000000000E+00  0.31532218167E+02  0.31532218167E+02  0.00000000000E+00 0. -1.
          2   -1    0    0  501    0  0.00000000000E+00 -0.00000000000E+00 -0.41972251240E+03  0.41972251240E+03  0.00000000000E+00 0.  1.
         25    2    1    2    0    0  0.32695069549E+02  0.14553967375E+02 -0.25547981319E+03  0.28670526167E+03  0.12509670891E+03 0.  0.
          5    1    3    3  502    0 -0.55255058624E-01  0.56423247282E+02 -0.53719811908E+02  0.78018436786E+02  0.41800000000E+01 0. -1.
         -5    1    3    3    0  502  0.32750324607E+02 -0.41869279907E+02 -0.20176000128E+03  0.20868682488E+03  0.41800000000E+01 0. -1.
        -11    1    1    2    0    0 -0.26491046103E+02  0.35814444115E+02 -0.78730577572E+02  0.90459680387E+02  0.00000000000E+00 0.  1.
         11    1    1    2    0    0 -0.62040234461E+01 -0.50368411490E+02 -0.53979903465E+02  0.74089788508E+02  0.00000000000E+00 0. -1.
</event>
<event>
 7    1  0.2626349E-009  0.1783054E+03  0.7561462E-02  0.1169453E+00
          3   -1    0    0  501    0  0.00000000000E+00  0.00000000000E+00  0.78979801853E+03  0.78979801853E+03  0.00000000000E+00 0. -1.
         -3   -1    0    0    0  501 -0.00000000000E+00 -0.00000000000E+00 -0.84078335434E+02  0.84078335434E+02  0.00000000000E+00 0.  1.
         25    2    1    2    0    0  0.17454356495E+03  0.10860975208E+01  0.62719385761E+03  0.66293981068E+03  0.12510164621E+03 0.  0.
          5    1    3    3  502    0  0.12630500008E+03  0.23722832711E+02  0.57134734045E+03  0.58563724410E+03  0.41800000000E+01 0.  1.
         -5    1    3    3    0  502  0.48238564869E+02 -0.22636735191E+02  0.55846517162E+02  0.77302566580E+02  0.41800000000E+01 0.  1.
        -11    1    1    2    0    0 -0.13416110883E+03 -0.22637534628E+01  0.14136759594E+02  0.13492285082E+03  0.00000000000E+00 0.  1.
         11    1    1    2    0    0 -0.40382456124E+02  0.11776559420E+01  0.64389065889E+02  0.76013692465E+02  0.00000000000E+00 0. -1.
</event>
<event>
 7    1  0.2626349E-009  0.1776643E+03  0.7561462E-02  0.1170083E+00
          1   -1    0    0  501    0  0.00000000000E+00  0.00000000000E+00  0.34500160489E+03  0.34500160489E+03  0.00000000000E+00 0. -1.
         -1   -1    0    0    0  501 -0.00000000000E+00 -0.00000000000E+00 -0.10002273443E+03  0.10002273443E+03  0.00000000000E+00 0.  1.
         25    2    1    2    0    0  0.42098262305E+02  0.14377967743E+03  0.14877465233E+03  0.24541514826E+03  0.12509931450E+03 0.  0.
          5    1    3    3  502    0 -0.15580153987E+02  0.13415045821E+03  0.11699405748E+03  0.17872931635E+03  0.41800000000E+01 0. -1.
         -5    1    3    3    0  502  0.57678416292E+02  0.96292192132E+01  0.31780594855E+02  0.66685831914E+02  0.41800000000E+01 0. -1.
        -11    1    1    2    0    0  0.15455346028E+02 -0.21943073824E+02  0.50736896939E+02  0.57398596853E+02  0.00000000000E+00 0. -1.
         11    1    1    2    0    0 -0.57553608333E+02 -0.12183660360E+03  0.45467321180E+02  0.14221059421E+03  0.00000000000E+00 0.  1.
</event>
<event>
 7    1  0.2626349E-009  0.1142104E+03  0.7561462E-02  0.1252966E+00
         -2   -1    0    0    0  501 -0.00000000000E+00  0.00000000000E+00  0.18848831219E+03  0.18848831219E+03  0.00000000000E+00 0.  1.
          2   -1    0    0  501    0  0.00000000000E+00 -0.00000000000E+00 -0.10658562183E+03  0.10658562183E+03  0.00000000000E+00 0. -1.
         25    2    1    2    0    0  0.65578537122E+02  0.62390271050E+02  0.41006506496E+02  0.15975542965E+03  0.12508866165E+03 0.  0.
          5    1    3    3  502    0  0.31174558772E+02  0.56321051358E+02 -0.36868342926E+02  0.74301151073E+02  0.41800000000E+01 0. -1.
         -5    1    3    3    0  502  0.34403978350E+02  0.60692196924E+01  0.77874849422E+02  0.85454278574E+02  0.41800000000E+01 0. -1.
        -11    1    1    2    0    0  0.22503056834E+02 -0.23200588290E+02  0.14058563197E+02  0.35246248922E+02  0.00000000000E+00 0. -1.
         11    1    1    2    0    0 -0.88081593956E+02 -0.39189682760E+02  0.26837620662E+02  0.10007225545E+03  0.00000000000E+00 0.  1.
</event>
<event>
 7    1  0.2626349E-009  0.8507407E+02  0.7561462E-02  0.1315239E+00
          1   -1    0    0  501    0  0.00000000000E+00  0.00000000000E+00  0.11745190394E+03  0.11745190394E+03  0.00000000000E+00 0. -1.
         -1   -1    0    0    0  501 -0.00000000000E+00 -0.00000000000E+00 -0.15301978075E+03  0.15301978075E+03  0.00000000000E+00 0.  1.
         25    2    1    2    0    0 -0.42684093422E+02 -0.10519918007E+02  0.50233038518E+02  0.14177812054E+03  0.12508028142E+03 0.  0.
          5    1    3    3  502    0 -0.63140051191E+02 -0.18727262268E+02 -0.19267551518E+02  0.68746544335E+02  0.41800000000E+01 0.  1.
         -5    1    3    3    0  502  0.20455957769E+02  0.82073442619E+01  0.69500590036E+02  0.73031576208E+02  0.41800000000E+01 0.  1.
        -11    1    1    2    0    0  0.61485076661E+02  0.32680152534E+01 -0.89068988565E+02  0.10827917297E+03  0.00000000000E+00 0.  1.
         11    1    1    2    0    0 -0.18800983239E+02  0.72519027532E+01  0.32680732424E+01  0.20414391174E+02  0.00000000000E+00 0. -1.
</event>
<event>
 7    1  0.2626349E-009  0.1080517E+03  0.7561462E-02  0.1264221E+00
          2   -1    0    0  501    0  0.00000000000E+00  0.00000000000E+00  0.77608850055E+03  0.77608850055E+03  0.00000000000E+00 0. -1.
         -2   -1    0    0    0  501 -0.00000000000E+00 -0.00000000000E+00 -0.17069542400E+02  0.17069542400E+02  0.00000000000E+00 0.  1.
         25    2    1    2    0    0  0.31467141587E+02 -0.95382902620E+01  0.51374784566E+03  0.52977839831E+03  0.12508853827E+03 0.  0.
          5    1    3    3  502    0  0.55043903467E+02  0.44011228350E+02  0.28981139050E+03  0.29828666413E+03  0.41800000000E+01 0.  1.
         -5    1    3    3    0  502 -0.23576761880E+02 -0.53549518612E+02  0.22393645516E+03  0.23149173418E+03  0.41800000000E+01 0.  1.
        -11    1    1    2    0    0 -0.54993891844E+02  0.23145824162E+02  0.10745385376E+03  0.12290804695E+03  0.00000000000E+00 0. -1.
         11    1    1    2    0    0  0.23526750257E+02 -0.13607533900E+02  0.13781725872E+03  0.14047159769E+03  0.00000000000E+00 0.  1.
</event>
<event>
 7    1  0.2626349E-009  0.1404531E+03  0.7561462E-02  0.1212721E+00
          2   -1    0    0  501    0  0.00000000000E+00  0.00000000000E+00  0.72509992968E+03  0.72509992968E+03  0.00000000000E+00 0. -1.
         -2   -1    0    0    0  501 -0.00000000000E+00 -0.00000000000E+00 -0.36347521323E+02  0.36347521323E+02  0.00000000000E+00 0.  1.
         25    2    1    2    0    0  0.39180772335E+02  0.11317311342E+03  0.37333203405E+03  0.41154120317E+03  0.12508424257E+03 0.  0.
          5    1    3    3  502    0 -0.54201334045E+01  0.58689950232E+02  0.41276994743E+02  0.72077394510E+02  0.41800000000E+01 0.  1.
         -5    1    3    3    0  502  0.44600905740E+02  0.54483163191E+02  0.33205503930E+03  0.33946380866E+03  0.41800000000E+01 0.  1.
        -11    1    1    2    0    0 -0.27925599475E+02 -0.12893020846E+03  0.26888792729E+03  0.29950551781E+03  0.00000000000E+00 0.  1.
         11    1    1    2    0    0 -0.11255172861E+02  0.15757095041E+02  0.46532447022E+02  0.50400730015E+02  0.00000000000E+00 0. -1.
</event>
<event>
 7    1  0.2626349E-009  0.1185918E+03  0.7561462E-02  0.1245438E+00
         -1   -1    0    0    0  501 -0.00000000000E+00  0.00000000000E+00  0.57888290736E+02  0.57888290736E+02  0.00000000000E+00 0.  1.
          1   -1    0    0  501    0  0.00000000000E+00 -0.00000000000E+00 -0.43561547721E+03  0.43561547721E+03  0.00000000000E+00 0. -1.
         25    2    1    2    0    0  0.10891383472E+03  0.18654924148E+02 -0.24445245952E+03  0.29599754156E+03  0.12508920839E+03 0.  0.
          5    1    3    3  502    0 -0.24206779532E+01  0.11488611083E+02  0.11373206457E+02  0.16872169140E+02  0.41800000000E+01 0.  1.
         -5    1    3    3    0  502  0.11133451267E+03  0.71663130646E+01 -0.25582566598E+03  0.27912537242E+03  0.41800000000E+01 0.  1.
        -11    1    1    2    0    0 -0.57851727609E+02  0.22655639330E+01 -0.12990415274E+03  0.14222181290E+03  0.00000000000E+00 0. -1.
         11    1    1    2    0    0 -0.51062107108E+02 -0.20920488081E+02 -0.33705742162E+01  0.55284413485E+02  0.00000000000E+00 0.  1.
</event>
<event>
 7    1  0.2626349E-009  0.1616692E+03  0.7561462E-02  0.1186825E+00
         -1   -1    0    0    0  501 -0.00000000000E+00  0.00000000000E+00  0.94830379883E+02  0.94830379883E+02  0.00000000000E+00 0.  1.
          1   -1    0    0  501    0  0.00000000000E+00 -0.00000000000E+00 -0.39879881871E+03  0.39879881871E+03  0.00000000000E+00 0. -1.
         25    2    1    2    0    0  0.22950450465E+02 -0.14505793651E+03 -0.18153902983E+03  0.26490490678E+03  0.12509860977E+03 0.  0.
          5    1    3    3  502    0 -0.10678824747E+02 -0.31527017112E+02 -0.13249241254E+03  0.13667370591E+03  0.41800000000E+01 0.  1.
         -5    1    3    3    0  502  0.33629275212E+02 -0.11353091939E+03 -0.49046617289E+02  0.12823120087E+03  0.41800000000E+01 0.  1.
        -11    1    1    2    0    0 -0.39431653277E+02  0.18275951948E+02  0.10057863007E+02  0.44609710916E+02  0.00000000000E+00 0.  1.
         11    1    1    2    0    0  0.16481202812E+02  0.12678198456E+03 -0.13248727200E+03  0.18411458089E+03  0.00000000000E+00 0. -1.
</event>
<event>
 7    1  0.2626349E-009  0.1037044E+03  0.7561462E-02  0.1272694E+00
         -2   -1    0    0    0  501 -0.00000000000E+00  0.00000000000E+00  0.12201295364E+03  0.12201295364E+03  0.00000000000E+00 0.  1.
          2   -1    0    0  501    0  0.00000000000E+00 -0.00000000000E+00 -0.20514757647E+03  0.20514757647E+03  0.00000000000E+00 0. -1.
         25    2    1    2    0    0 -0.58265316337E+01  0.85418267318E+02 -0.12193348844E+03  0.19453405893E+03  0.12508195561E+03 0.  0.
          5    1    3    3  502    0 -0.20772409600E+02  0.84758069912E+02 -0.14347143326E+03  0.16797901052E+03  0.41800000000E+01 0.  1.
         -5    1    3    3    0  502  0.14945877966E+02  0.66019740645E+00  0.21537944819E+02  0.26555048406E+02  0.41800000000E+01 0.  1.
        -11    1    1    2    0    0 -0.19536490815E+02 -0.74282974987E+02 -0.90477738987E+01  0.77340138731E+02  0.00000000000E+00 0. -1.
         11    1    1    2    0    0  0.25363022449E+02 -0.11135292331E+02  0.47846639513E+02  0.55286332450E+02  0.00000000000E+00 0.  1.
</event>
<event>
 7    1  0.2626349E-009  0.1307336E+03  0.7561462E-02  0.1226371E+00
         -1   -1    0    0    0  501 -0.00000000000E+00  0.00000000000E+00  0.10453702104E+04  0.10453702104E+04  0.00000000000E+00 0.  1.
          1   -1    0    0  501    0  0.00000000000E+00 -0.00000000000E+00 -0.18996754065E+02  0.18996754065E+02  0.00000000000E+00 0. -1.
         25    2    1    2    0    0 -0.75168633031E+02  0.11809481742E+02  0.38311419553E+03  0.41013799564E+03  0.12508757491E+03 0.  0.
          5    1    3    3  502    0 -0.11652143273E+02  0.60675411240E+02  0.11967270969E+03  0.13474534432E+03  0.41800000000E+01 0.  1.
         -5    1    3    3    0  502 -0.63516489757E+02 -0.48865929498E+02  0.26344148584E+03  0.27539265132E+03  0.41800000000E+01 0.  1.
        -11    1    1    2    0    0 -0.17818819381E+02 -0.18976224720E+02  0.14357740654E+03  0.14591805610E+03  0.00000000000E+00 0. -1.
         11    1    1    2    0    0  0.92987452411E+02  0.71667429785E+01  0.49968185422E+03  0.50831091267E+03  0.00000000000E+00 0.  1.
</event>
<event>
 7    1  0.2626349E-009  0.1796129E+03  0.7561462E-02  0.1168178E+00
         -1   -1    0    0    0  501 -0.00000000000E+00  0.00000000000E+00  0.32814665604E+02  0.32814665604E+02  0.00000000000E+00 0.  1.
          1   -1    0    0  501    0  0.00000000000E+00 -0.00000000000E+00 -0.10163340242E+04  0.10163340242E+04  0.00000000000E+00 0. -1.
         25    2    1    2    0    0  0.13883450263E+03  0.47280114572E+02 -0.49003765907E+03  0.52658633511E+03  0.12508330290E+03 0.  0.
          5    1    3    3  502    0  0.95138936212E+02 -0.28995473309E+02 -0.31997671829E+03  0.33510405444E+03  0.41800000000E+01 0.  1.
         -5    1    3    3    0  502  0.43695566420E+02  0.76275587881E+02 -0.17006094078E+03  0.19148228067E+03  0.41800000000E+01 0.  1.
        -11    1    1    2    0    0 -0.76921327945E+02  0.20767951698E+02 -0.21593287535E+03  0.23016343143E+03  0.00000000000E+00 0.  1.
         11    1    1    2    0    0 -0.61913174687E+02 -0.68048066270E+02 -0.27754882415E+03  0.29239892323E+03  0.00000000000E+00 0. -1.
</event>
<event>
 7    1  0.2626349E-009  0.8048296E+02  0.7561462E-02  0.1327686E+00
          1   -1    0    0  501    0  0.00000000000E+00  0.00000000000E+00  0.47692691675E+03  0.47692691675E+03  0.00000000000E+00 0. -1.
         -1   -1    0    0    0  501 -0.00000000000E+00 -0.00000000000E+00 -0.36975630447E+02  0.36975630447E+02  0.00000000000E+00 0.  1.
         25    2    1    2    0    0  0.60758112003E+02  0.22433705920E+02  0.16426640498E+03  0.21639131124E+03  0.12508768301E+03 0.  0.
          5    1    3    3  502    0  0.55646549232E+02  0.21960698806E+02  0.18507855340E+03  0.19455167453E+03  0.41800000000E+01 0. -1.
         -5    1    3    3    0  502  0.51115627705E+01  0.47300711367E+00 -0.20812148422E+02  0.21839636710E+02  0.41800000000E+01 0. -1.
        -11    1    1    2    0    0 -0.33098297616E+02 -0.46931124973E+02  0.23762663808E+03  0.24446768073E+03  0.00000000000E+00 0. -1.
         11    1    1    2    0    0 -0.27659814386E+02  0.24497419053E+02  0.38058243244E+02  0.53043555226E+02  0.00000000000E+00 0.  1.
</event>
<event>
 7    1  0.2626349E-009  0.7323486E+02  0.7561462E-02  0.1349426E+00
          1   -1    0    0  501    0  0.00000000000E+00  0.00000000000E+00  0.17943477352E+03  0.17943477352E+03  0.00000000000E+00 0. -1.
         -1   -1    0    0    0  501 -0.00000000000E+00 -0.00000000000E+00 -0.14269313660E+03  0.14269313660E+03  0.00000000000E+00 0.  1.
         25    2    1    2    0    0  0.79109519104E+01  0.51948695950E+02  0.12445735945E+03  0.18411655914E+03  0.12509205753E+03 0.  0.
          5    1    3    3  502    0 -0.15359133714E+01 -0.35138476553E+00 -0.25020790364E+02  0.25416428773E+02  0.41800000000E+01 0. -1.
         -5    1    3    3    0  502  0.94468652818E+01  0.52300080716E+02  0.14947814982E+03  0.15870013037E+03  0.41800000000E+01 0. -1.
        -11    1    1    2    0    0  0.31982220828E+02 -0.23878667038E+02 -0.78929625459E+02  0.88447379631E+02  0.00000000000E+00 0.  1.
         11    1    1    2    0    0 -0.39893172738E+02 -0.28070028913E+02 -0.87860970760E+01  0.49563971351E+02  0.00000000000E+00 0. -1.
</event>
<event>
 7    1  0.2626349E-009  0.1788586E+03  0.7561462E-02  0.1168912E+00
          1   -1    0    0  501    0  0.00000000000E+00  0.00000000000E+00  0.88035920813E+03  0.88035920813E+03  0.00000000000E+00 0. -1.
         -1   -1    0    0    0  501 -0.00000000000E+00 -0.00000000000E+00 -0.47566269909E+02  0.47566269909E+02  0.00000000000E+00 0.  1.
         25    2    1    2    0    0 -0.52978243285E+02 -0.14995827558E+03  0.29139774324E+03  0.35475971710E+03  0.12509050099E+03 0.  0.
          5    1    3    3  502    0  0.19057894811E+02  0.10833340826E+02  0.59098301022E+02  0.63171561733E+02  0.41800000000E+01 0.  1.
         -5    1    3    3    0  502 -0.72036138096E+02 -0.16079161640E+03  0.23229944222E+03  0.29158815537E+03  0.41800000000E+01 0.  1.
        -11    1    1    2    0    0  0.21838895454E+02  0.52957282577E+02  0.67905609557E+02  0.88840210163E+02  0.00000000000E+00 0.  1.
         11    1    1    2    0    0  0.31139347831E+02  0.97000992999E+02  0.47348958542E+03  0.48432555077E+03  0.00000000000E+00 0. -1.
</event>
<event>
 7    1  0.2626349E-009  0.7259045E+02  0.7561462E-02  0.1351499E+00
         -1   -1    0    0    0  501 -0.00000000000E+00  0.00000000000E+00  0.88385233712E+02  0.88385233712E+02  0.00000000000E+00 0.  1.
          1   -1    0    0  501    0  0.00000000000E+00 -0.00000000000E+00 -0.15260973033E+03  0.15260973033E+03  0.00000000000E+00 0. -1.
         25    2    1    2    0    0 -0.82009276191E+01 -0.19134859846E+02 -0.75423856132E+02  0.14755788292E+03  0.12510464684E+03 0.  0.
          5    1    3    3  502    0 -0.32439613162E+02 -0.11268556594E+01 -0.10199626920E+03  0.10711820404E+03  0.41800000000E+01 0.  1.
         -5    1    3    3    0  502  0.24238685543E+02 -0.18008004187E+02  0.26572413067E+02  0.40439678879E+02  0.41800000000E+01 0.  1.
        -11    1    1    2    0    0 -0.22299309223E+02  0.39454838818E+02  0.27838368979E+02  0.53187576420E+02  0.00000000000E+00 0.  1.
         11    1    1    2    0    0  0.30500236842E+02 -0.20319978972E+02 -0.16639009463E+02  0.40249504702E+02  0.00000000000E+00 0. -1.
</event>
<event>
 7    1  0.2626349E-009  0.1268746E+03  0.7561462E-02  0.1232168E+00
          1   -1    0    0  501    0  0.00000000000E+00  0.00000000000E+00  0.39560866215E+03  0.39560866215E+03  0.00000000000E+00 0. -1.
         -1   -1    0    0    0  501 -0.00000000000E+00 -0.00000000000E+00 -0.43612080749E+02  0.43612080749E+02  0.00000000000E+00 0.  1.
         25    2    1    2    0    0  0.51669026928E+02 -0.48096232676E+02  0.21985563425E+03  0.26261772681E+03  0.12509450261E+03 0.  0.
          5    1    3    3  502    0 -0.29954445723E+02 -0.47394036930E+02  0.12715921923E+03  0.13903381959E+03  0.41800000000E+01 0. -1.
         -5    1    3    3    0  502  0.81623472651E+02 -0.70219574627E+00  0.92696415021E+02  0.12358390722E+03  0.41800000000E+01 0. -1.
        -11    1    1    2    0    0 -0.88396764739E+01 -0.27511993467E+02  0.45447233652E+02  0.53856296858E+02  0.00000000000E+00 0. -1.
         11    1    1    2    0    0 -0.42829350454E+02  0.75608226143E+02  0.86693713494E+02  0.12274671922E+03  0.00000000000E+00 0.  1.
</event>
<event>
 7    1  0.2626349E-009  0.7270138E+02  0.7561462E-02  0.1351141E+00
          2   -1    0    0  501    0  0.00000000000E+00  0.00000000000E+00  0.26700944198E+03  0.26700944198E+03  0.00000000000E+00 0.  1.
         -2   -1    0    0    0  501 -0.00000000000E+00 -0.00000000000E+00 -0.48116926739E+02  0.48116926739E+02  0.00000000000E+00 0. -1.
         25    2    1    2    0    0 -0.56435953213E+02 -0.94208835472E+01  0.10014165491E+03  0.17015037044E+03  0.12509607369E+03 0.  0.
          5    1    3    3  502    0 -0.17783815075E+02  0.10453056480E+02  0.12025120691E+03  0.12207930059E+03  0.41800000000E+01 0.  1.
         -5    1    3    3    0  502 -0.38652138138E+02 -0.19873940027E+02 -0.20109552005E+02  0.48071069851E+02  0.41800000000E+01 0.  1.
        -11    1    1    2    0    0  0.60568354167E+02  0.24291735054E+02  0.79845182073E+02  0.10312064303E+03  0.00000000000E+00 0. -1.
         11    1    1    2    0    0 -0.41324009538E+01 -0.14870851506E+02  0.38905678261E+02  0.41855355250E+02  0.00000000000E+00 0.  1.
</event>
<event>
 7    1  0.2982668E-009  0.9491391E+02  0.7561462E-02  0.1291370E+00
         -2   -1    0    0    0  501 -0.00000000000E+00  0.00000000000E+00  0.20193155189E+02  0.20193155189E+02  0.00000000000E+00 0.  1.
          2   -1    0    0  501    0  0.00000000000E+00 -0.00000000000E+00 -0.79157903040E+03  0.79157903040E+03  0.00000000000E+00 0. -1.
         25    2    1    2    0    0  0.42319612560E+02  0.16399841328E+02 -0.58145767721E+03  0.59648986175E+03  0.12508884997E+03 0.  0.
          5    1    3    3  502    0  0.28572670343E+02  0.59690890647E+02 -0.16940298708E+03  0.18191823534E+03  0.41800000000E+01 0. -1.
         -5    1    3    3    0  502  0.13746942216E+02 -0.43291049320E+02 -0.41205469012E+03  0.41457162641E+03  0.41800000000E+01 0. -1.
        -11    1    1    2    0    0 -0.23060856293E+02  0.23917798978E+02 -0.18294931299E+02  0.37928468360E+02  0.00000000000E+00 0.  1.
         11    1    1    2    0    0 -0.19258756267E+02 -0.40317640306E+02 -0.17163326670E+03  0.17735385547E+03  0.00000000000E+00 0. -1.
</event>
<event>
 7    1  0.2626349E-009  0.1632671E+03  0.7561462E-02  0.1185057E+00
          3   -1    0    0  501    0  0.00000000000E+00  0.00000000000E+00  0.40515316937E+02  0.40515316937E+02  0.00000000000E+00 0. -1.
         -3   -1    0    0    0  501 -0.00000000000E+00 -0.00000000000E+00 -0.70805859650E+03  0.70805859650E+03  0.00000000000E+00 0.  1.
         25    2    1    2    0    0  0.89164286382E+02  0.95146569346E+02 -0.35613127901E+03  0.39935378905E+03  0.12510324262E+03 0.  0.
          5    1    3    3  502    0  0.30776415044E+02  0.11475503311E+03 -0.24019816267E+03  0.26800846086E+03  0.41800000000E+01 0. -1.
         -5    1    3    3    0  502  0.58387871338E+02 -0.19608463763E+02 -0.11593311634E+03  0.13134532818E+03  0.41800000000E+01 0. -1.
        -11    1    1    2    0    0 -0.19630296958E+01 -0.45560033566E+02 -0.43011644628E+02  0.62686296092E+02  0.00000000000E+00 0.  1.
         11    1    1    2    0    0 -0.87201256686E+02 -0.49586535780E+02 -0.26840035593E+03  0.28653382830E+03  0.00000000000E+00 0. -1.
</event>
<event>
 7    1  0.2628889E-009  0.1183707E+03  0.7561462E-02  0.1245809E+00
          1   -1    0    0  501    0  0.00000000000E+00  0.00000000000E+00  0.25099216923E+03  0.25099216923E+03  0.00000000000E+00 0. -1.
         -1   -1    0    0    0  501 -0.00000000000E+00 -0.00000000000E+00 -0.91133884404E+02  0.91133884404E+02  0.00000000000E+00 0.  1.
         25    2    1    2    0    0 -0.19666339288E+02  0.89499063893E+02  0.26946487667E+02  0.15738066192E+03  0.12508282141E+03 0.  0.
          5    1    3    3  502    0 -0.52751373036E+02  0.80070017179E+02 -0.20975044538E+02  0.98241233205E+02  0.41800000000E+01 0. -1.
         -5    1    3    3    0  502  0.33085033748E+02  0.94290467131E+01  0.47921532205E+02  0.59139428717E+02  0.41800000000E+01 0. -1.
        -11    1    1    2    0    0 -0.15377890069E+02 -0.78662746630E+01  0.78919841708E+02  0.80787989177E+02  0.00000000000E+00 0. -1.
         11    1    1    2    0    0  0.35044229357E+02 -0.81632789230E+02  0.53991955455E+02  0.10395740254E+03  0.00000000000E+00 0.  1.
</event>
<event>
 7    1  0.2717599E-009  0.1047133E+03  0.7561462E-02  0.1270685E+00
          2   -1    0    0  501    0  0.00000000000E+00  0.00000000000E+00  0.70703576073E+03  0.70703576073E+03  0.00000000000E+00 0.  1.
         -2   -1    0    0    0  501 -0.00000000000E+00 -0.00000000000E+00 -0.32727066221E+02  0.32727066221E+02  0.00000000000E+00 0. -1.
         25    2    1    2    0    0 -0.27703050050E+02  0.64205833473E+02  0.16866360669E+03  0.22132842524E+03  0.12509600939E+03 0.  0.
          5    1    3    3  502    0  0.19238040835E+02 -0.16300450448E+01  0.13020285418E+03  0.13169288097E+03  0.41800000000E+01 0. -1.
         -5    1    3    3    0  502 -0.46941090884E+02  0.65835878518E+02  0.38460752508E+02  0.89635544273E+02  0.41800000000E+01 0. -1.
        -11    1    1    2    0    0  0.47710400000E+02 -0.71470522679E+01  0.14660482905E+03  0.15433838967E+03  0.00000000000E+00 0. -1.
         11    1    1    2    0    0 -0.20007349950E+02 -0.57058781205E+02  0.35904025877E+03  0.36409601204E+03  0.00000000000E+00 0.  1.
</event>
<event>
 7    1  0.2626349E-009  0.1101085E+03  0.7561462E-02  0.1260369E+00
         -2   -1    0    0    0  501 -0.00000000000E+00  0.00000000000E+00  0.18995551498E+03  0.18995551498E+03  0.00000000000E+00 0.  1.
          2   -1    0    0  501    0  0.00000000000E+00 -0.00000000000E+00 -0.11235545701E+03  0.11235545701E+03  0.00000000000E+00 0. -1.
         25    2    1    2    0    0  0.48192237700E+02  0.77144359711E+02  0.75973410437E+02  0.17231627831E+03  0.12508875515E+03 0.  0.
          5    1    3    3  502    0  0.30287506889E+02  0.65874797423E+02  0.11013091516E+03  0.13192085841E+03  0.41800000000E+01 0.  1.
         -5    1    3    3    0  502  0.17904730811E+02  0.11269562289E+02 -0.34157504725E+02  0.40395419897E+02  0.41800000000E+01 0.  1.
        -11    1    1    2    0    0 -0.66465769075E+02 -0.25404092680E+02  0.16701964079E+02  0.73089137275E+02  0.00000000000E+00 0. -1.
         11    1    1    2    0    0  0.18273531374E+02 -0.51740267031E+02 -0.15075316547E+02  0.56905556410E+02  0.00000000000E+00 0.  1.
</event>
<event>
 7    1  0.2626349E-009  0.2765654E+03  0.7561462E-02  0.1097580E+00
         -2   -1    0    0    0  501 -0.00000000000E+00  0.00000000000E+00  0.90377618895E+02  0.90377618895E+02  0.00000000000E+00 0.  1.
          2   -1    0    0  501    0  0.00000000000E+00 -0.00000000000E+00 -0.10705671030E+04  0.10705671030E+04  0.00000000000E+00 0. -1.
         25    2    1    2    0    0  0.11135449908E+03 -0.12220766452E+03 -0.17929048394E+03  0.27409221006E+03  0.12508766627E+03 0.  0.
          5    1    3    3  502    0  0.84274737143E+02 -0.54185721073E+02 -0.17367244011E+03  0.20054404140E+03  0.41800000000E+01 0. -1.
         -5    1    3    3    0  502  0.27079761941E+02 -0.68021943448E+02 -0.56180438349E+01  0.73548168663E+02  0.41800000000E+01 0. -1.
        -11    1    1    2    0    0  0.12291690960E+03  0.61831220970E+02 -0.32714363332E+03  0.35490086415E+03  0.00000000000E+00 0. -1.
         11    1    1    2    0    0 -0.23427140868E+03  0.60376443551E+02 -0.47375536685E+03  0.53195164769E+03  0.00000000000E+00 0.  1.
</event>
<event>
 7    1  0.2626349E-009  0.1409358E+03  0.7561462E-02  0.1212075E+00
         -1   -1    0    0    0  501 -0.00000000000E+00  0.00000000000E+00  0.25193614041E+03  0.25193614041E+03  0.00000000000E+00 0.  1.
          1   -1    0    0  501    0  0.00000000000E+00 -0.00000000000E+00 -0.11335073310E+03  0.11335073310E+03  0.00000000000E+00 0. -1.
         25    2    1    2    0    0 -0.76455015298E+02  0.99871567769E+02  0.41792269722E+02  0.18224901022E+03  0.12509359898E+03 0.  0.
          5    1    3    3  502    0  0.64938260323E+01  0.53913758983E+02 -0.30964714106E+02  0.62651010398E+02  0.41800000000E+01 0. -1.
         -5    1    3    3    0  502 -0.82948841330E+02  0.45957808786E+02  0.72756983829E+02  0.11959799983E+03  0.41800000000E+01 0. -1.
        -11    1    1    2    0    0  0.21759880601E+01 -0.31360278464E+02 -0.12823591088E+02  0.33950647678E+02  0.00000000000E+00 0. -1.
         11    1    1    2    0    0  0.74279027238E+02 -0.68511289305E+02  0.10961672868E+03  0.14908721560E+03  0.00000000000E+00 0.  1.
</event>
<event>
 7    1  0.2626349E-009  0.1213901E+03  0.7561462E-02  0.1240821E+00
          4   -1    0    0  501    0  0.00000000000E+00  0.00000000000E+00  0.18865497424E+03  0.18865497424E+03  0.00000000000E+00 0. -1.
         -4   -1    0    0    0  501 -0.00000000000E+00 -0.00000000000E+00 -0.97292578132E+02  0.97292578132E+02  0.00000000000E+00 0.  1.
         25    2    1    2    0    0 -0.40822530842E+02  0.62719770429E+02  0.14433036972E+02  0.14648160459E+03  0.12509316248E+03 0.  0.
          5    1    3    3  502    0  0.23716753742E+02 -0.24356089620E+02 -0.92096613607E+01  0.35468207906E+02  0.41800000000E+01 0. -1.
         -5    1    3    3    0  502 -0.64539284585E+02  0.87075860049E+02  0.23642698333E+02  0.11101339668E+03  0.41800000000E+01 0. -1.
        -11    1    1    2    0    0 -0.16620989808E+02 -0.24472101565E+01 -0.96276094034E+01  0.19363290076E+02  0.00000000000E+00 0.  1.
         11    1    1    2    0    0  0.57443520651E+02 -0.60272560272E+02  0.86556968544E+02  0.12010265771E+03  0.00000000000E+00 0. -1.
</event>
<event>
 7    1  0.2626349E-009  0.8676073E+02  0.7561462E-02  0.1310891E+00
         -2   -1    0    0    0  501 -0.00000000000E+00  0.00000000000E+00  0.39267862559E+02  0.39267862559E+02  0.00000000000E+00 0.  1.
          2   -1    0    0  501    0  0.00000000000E+00 -0.00000000000E+00 -0.40909007162E+03  0.40909007162E+03  0.00000000000E+00 0. -1.
         25    2    1    2    0    0  0.18623020305E+02 -0.62186891995E+02 -0.18955425699E+03  0.23620326928E+03  0.12508853526E+03 0.  0.
          5    1    3    3  502    0  0.20821343292E-03 -0.32845180674E+02  0.92206043993E+01  0.34370013661E+02  0.41800000000E+01 0. -1.
         -5    1    3    3    0  502  0.18622812092E+02 -0.29341711321E+02 -0.19877486139E+03  0.20183325562E+03  0.41800000000E+01 0. -1.
        -11    1    1    2    0    0  0.17642349592E+01 -0.20331900847E+02 -0.12099831136E+02  0.23725611279E+02  0.00000000000E+00 0.  1.
         11    1    1    2    0    0 -0.20387255265E+02  0.82518792843E+02 -0.16816812094E+03  0.18842905362E+03  0.00000000000E+00 0. -1.
</event>
<event>
 7    1  0.2626349E-009  0.1485376E+03  0.7561462E-02  0.1202282E+00
         -2   -1    0    0    0  501 -0.00000000000E+00  0.00000000000E+00  0.10466540557E+03  0.10466540557E+03  0.00000000000E+00 0.  1.
          2   -1    0    0  501    0  0.00000000000E+00 -0.00000000000E+00 -0.28532378442E+03  0.28532378442E+03  0.00000000000E+00 0. -1.
         25    2    1    2    0    0  0.76790930831E+02 -0.10383171963E+03 -0.57314255435E+02  0.18870486400E+03  0.12508688485E+03 0.  0.
          5    1    3    3  502    0  0.52445117261E+02 -0.12336992156E+03 -0.13573129206E+02  0.13480478518E+03  0.41800000000E+01 0. -1.
         -5    1    3    3    0  502  0.24345813570E+02  0.19538201933E+02 -0.43741126229E+02  0.53900078822E+02  0.41800000000E+01 0. -1.
        -11    1    1    2    0    0 -0.50953244036E+02  0.48279545595E+02 -0.12110441835E+03  0.13997652569E+03  0.00000000000E+00 0. -1.
         11    1    1    2    0    0 -0.25837686796E+02  0.55552174032E+02 -0.22397050600E+01  0.61307800298E+02  0.00000000000E+00 0.  1.
</event>
<event>
 7    1  0.3693821E-009  0.1192593E+03  0.7561462E-02  0.1244324E+00
         -1   -1    0    0    0  501 -0.00000000000E+00  0.00000000000E+00  0.12546602388E+03  0.12546602388E+03  0.00000000000E+00 0.  1.
          1   -1    0    0  501    0  0.00000000000E+00 -0.00000000000E+00 -0.15099223116E+03  0.15099223116E+03  0.00000000000E+00 0. -1.
         25    2    1    2    0    0  0.44548485679E+02  0.62129605921E+02  0.22838102638E+02  0.14837110174E+03  0.12509096447E+03 0.  0.
          5    1    3    3  502    0  0.57610733296E+02  0.94887926880E+02  0.16893716543E+02  0.11236362987E+03  0.41800000000E+01 0.  1.
         -5    1    3    3    0  502 -0.13062247617E+02 -0.32758320959E+02  0.59443860950E+01  0.36007471876E+02  0.41800000000E+01 0.  1.
        -11    1    1    2    0    0 -0.48997139675E+02 -0.25908066555E+02  0.12780743465E+02  0.56879653766E+02  0.00000000000E+00 0.  1.
         11    1    1    2    0    0  0.44486539960E+01 -0.36221539366E+02 -0.61145053380E+02  0.71207499529E+02  0.00000000000E+00 0. -1.
</event>
<event>
 7    1  0.2626349E-009  0.2356045E+03  0.7561462E-02  0.1122756E+00
          2   -1    0    0  501    0  0.00000000000E+00  0.00000000000E+00  0.85834743991E+02  0.85834743991E+02  0.00000000000E+00 0. -1.
         -2   -1    0    0    0  501 -0.00000000000E+00 -0.00000000000E+00 -0.65345081870E+03  0.65345081870E+03  0.00000000000E+00 0.  1.
         25    2    1    2    0    0  0.10442285207E+03  0.18143208960E+03 -0.32498263361E+03  0.40629939203E+03  0.12507497211E+03 0.  0.
          5    1    3    3  502    0  0.60827329897E+02  0.40817481431E+01 -0.77276381254E+02  0.98517695009E+02  0.41800000000E+01 0.  1.
         -5    1    3    3    0  502  0.43595522177E+02  0.17735034145E+03 -0.24770625235E+03  0.30778169702E+03  0.41800000000E+01 0.  1.
        -11    1    1    2    0    0 -0.93247647556E+01 -0.10501234775E+03 -0.12486295591E+03  0.16341756997E+03  0.00000000000E+00 0. -1.
         11    1    1    2    0    0 -0.95098087319E+02 -0.76419741843E+02 -0.11777048519E+03  0.16956860068E+03  0.00000000000E+00 0.  1.
</event>
<event>
 7    1  0.2626349E-009  0.1337027E+03  0.7561462E-02  0.1222063E+00
         -1   -1    0    0    0  501 -0.00000000000E+00  0.00000000000E+00  0.37060137056E+02  0.37060137056E+02  0.00000000000E+00 0.  1.
          1   -1    0    0  501    0  0.00000000000E+00 -0.00000000000E+00 -0.49407274167E+03  0.49407274167E+03  0.00000000000E+00 0. -1.
         25    2    1    2    0    0 -0.45889599201E+02 -0.49466218733E+00 -0.21199315600E+03  0.25039267734E+03  0.12509714094E+03 0.  0.
          5    1    3    3  502    0 -0.22360869920E+02 -0.61130536029E+02 -0.80288303325E+02  0.10344387362E+03  0.41800000000E+01 0. -1.
         -5    1    3    3    0  502 -0.23528729280E+02  0.60635873842E+02 -0.13170485267E+03  0.14694880372E+03  0.41800000000E+01 0. -1.
        -11    1    1    2    0    0  0.42050156757E+02  0.62254484627E+02 -0.13107771976E+03  0.15108012826E+03  0.00000000000E+00 0.  1.
         11    1    1    2    0    0  0.38394424433E+01 -0.61759822439E+02 -0.11394172886E+03  0.12966007312E+03  0.00000000000E+00 0. -1.
</event>
<event>
 7    1  0.2626349E-009  0.1089077E+03  0.7561462E-02  0.1262606E+00
         -3   -1    0    0    0  501 -0.00000000000E+00  0.00000000000E+00  0.15926861284E+03  0.15926861284E+03  0.00000000000E+00 0.  1.
          3   -1    0    0  501    0  0.00000000000E+00 -0.00000000000E+00 -0.13955675686E+03  0.13955675686E+03  0.00000000000E+00 0. -1.
         25    2    1    2    0    0 -0.78950094539E+02  0.61694396209E+02 -0.46913767740E+01  0.16034162287E+03  0.12509241007E+03 0.  0.
          5    1    3    3  502    0 -0.38715769378E+02  0.40695992093E+02  0.59295037272E+02  0.81782934749E+02  0.41800000000E+01 0. -1.
         -5    1    3    3    0  502 -0.40234325160E+02  0.20998404116E+02 -0.63986414047E+02  0.78558688120E+02  0.41800000000E+01 0. -1.
        -11    1    1    2    0    0  0.77860878064E+02 -0.71702190737E+02 -0.64368389917E+01  0.10604222454E+03  0.00000000000E+00 0. -1.
         11    1    1    2    0    0  0.10892164749E+01  0.10007794528E+02  0.30840071738E+02  0.32441522293E+02  0.00000000000E+00 0.  1.
</event>
<event>
 7    1  0.2626349E-009  0.1624486E+03  0.7561462E-02  0.1185960E+00
         -1   -1    0    0    0  501 -0.00000000000E+00  0.00000000000E+00  0.45477235132E+03  0.45477235132E+03  0.00000000000E+00 0.  1.
          1   -1    0    0  501    0  0.00000000000E+00 -0.00000000000E+00 -0.59611136159E+02  0.59611136159E+02  0.00000000000E+00 0. -1.
         25    2    1    2    0    0 -0.65904393723E+02  0.10452699920E+03  0.23114257341E+03  0.29042192014E+03  0.12509484313E+03 0.  0.
          5    1    3    3  502    0 -0.12353402811E+02 -0.28770192381E+02  0.33384012959E+02  0.45959713357E+02  0.41800000000E+01 0. -1.
         -5    1    3    3    0  502 -0.53550990912E+02  0.13329719158E+03  0.19775856045E+03  0.24446220678E+03  0.41800000000E+01 0. -1.
        -11    1    1    2    0    0  0.63899053996E+02 -0.22799766909E+02  0.96334348715E+02  0.11782709881E+03  0.00000000000E+00 0.  1.
         11    1    1    2    0    0  0.20053397278E+01 -0.81727232293E+02  0.67684293029E+02  0.10613446852E+03  0.00000000000E+00 0. -1.
</event>
<event>
 7    1  0.2626349E-009  0.1297254E+03  0.7561462E-02  0.1227864E+00
          1   -1    0    0  501    0  0.00000000000E+00  0.00000000000E+00  0.31757671339E+03  0.31757671339E+03  0.00000000000E+00 0. -1.
         -1   -1    0    0    0  501 -0.00000000000E+00 -0.00000000000E+00 -0.84964703160E+02  0.84964703160E+02  0.00000000000E+00 0.  1.
         25    2    1    2    0    0 -0.11707631043E+03 -0.22347581462E+02  0.16574514743E+03  0.23942618748E+03  0.12508864254E+03 0.  0.
          5    1    3    3  502    0 -0.85249373575E+02 -0.30593356040E+02  0.18138104393E+03  0.20278058246E+03  0.41800000000E+01 0. -1.
         -5    1    3    3    0  502 -0.31826936857E+02  0.82457745773E+01 -0.15635896492E+02  0.36645605019E+02  0.41800000000E+01 0. -1.
        -11    1    1    2    0    0  0.61591697080E+02 -0.21166058532E+02  0.65820455289E+02  0.92595202454E+02  0.00000000000E+00 0. -1.
         11    1    1    2    0    0  0.55484613353E+02  0.43513639995E+02  0.10464075037E+01  0.70520026610E+02  0.00000000000E+00 0.  1.
</event>
<event>
 7    1  0.2626349E-009  0.7120427E+02  0.7561462E-02  0.1356045E+00
          2   -1    0    0  501    0  0.00000000000E+00  0.00000000000E+00  0.63250391667E+03  0.63250391667E+03  0.00000000000E+00 0. -1.
         -2   -1    0    0    0  501 -0.00000000000E+00 -0.00000000000E+00 -0.27544694143E+02  0.27544694143E+02  0.00000000000E+00 0.  1.
         25    2    1    2    0    0 -0.26508952189E+02  0.35405249222E+02  0.17968105262E+03  0.22335731381E+03  0.12508778014E+03 0.  0.
          5    1    3    3  502    0 -0.12174590595E+02  0.21055834556E+02 -0.14133632295E+02  0.28439423111E+02  0.41800000000E+01 0.  1.
         -5    1    3    3    0  502 -0.14334361594E+02  0.14349414665E+02  0.19381468492E+03  0.19491789070E+03  0.41800000000E+01 0.  1.
        -11    1    1    2    0    0  0.34172779563E+02 -0.61209563913E+02  0.34403989786E+03  0.35110944291E+03  0.00000000000E+00 0.  1.
         11    1    1    2    0    0 -0.76638273739E+01  0.25804314691E+02  0.81238272045E+02  0.85581854102E+02  0.00000000000E+00 0. -1.
</event>
<event>
 7    1  0.2626349E-009  0.6256471E+02  0.7561462E-02  0.1387373E+00
          1   -1    0    0  501    0  0.00000000000E+00  0.00000000000E+00  0.98965957313E+03  0.98965957313E+03  0.00000000000E+00 0. -1.
         -1   -1    0    0    0  501 -0.00000000000E+00 -0.00000000000E+00 -0.14942090190E+02  0.14942090190E+02  0.00000000000E+00 0.  1.
         25    2    1    2    0    0  0.26167124195E+02 -0.87828757642E+01  0.74083203469E+03  0.75182506900E+03  0.12508786299E+03 0.  0.
          5    1    3    3  502    0  0.34792909649E+00 -0.14900135899E+02  0.71291781129E+03  0.71308583857E+03  0.41800000000E+01 0.  1.
         -5    1    3    3    0  502  0.25819195099E+02  0.61172601344E+01  0.27914223393E+02  0.38739230435E+02  0.41800000000E+01 0.  1.
        -11    1    1    2    0    0 -0.42299448894E+02  0.33028478850E+02  0.81156523525E+02  0.97295966527E+02  0.00000000000E+00 0.  1.
         11    1    1    2    0    0  0.16132324698E+02 -0.24245603086E+02  0.15272892473E+03  0.15548062779E+03  0.00000000000E+00 0. -1.
</event>
<event>
 7    1  0.2626349E-009  0.1228082E+03  0.7561462E-02  0.1238535E+00
         -2   -1    0    0    0  501 -0.00000000000E+00  0.00000000000E+00  0.44517899839E+02  0.44517899839E+02  0.00000000000E+00 0.  1.
          2   -1    0    0  501    0  0.00000000000E+00 -0.00000000000E+00 -0.37423740138E+03  0.37423740138E+03  0.00000000000E+00 0. -1.
         25    2    1    2    0    0  0.18377923597E+02  0.60466694367E+02 -0.22855571504E+03  0.26810319356E+03  0.12509052050E+03 0.  0.
          5    1    3    3  502    0  0.12382235218E+02  0.99539590542E+02 -0.16280504902E+03  0.19127050536E+03  0.41800000000E+01 0. -1.
         -5    1    3    3    0  502  0.59956883781E+01 -0.39072896176E+02 -0.65750666017E+02  0.76832688202E+02  0.41800000000E+01 0. -1.
        -11    1    1    2    0    0 -0.30786748706E+02  0.11183577475E+02 -0.10431189280E+02  0.34375951054E+02  0.00000000000E+00 0.  1.
         11    1    1    2    0    0  0.12408825109E+02 -0.71650271842E+02 -0.90732597224E+02  0.11627615660E+03  0.00000000000E+00 0. -1.
</event>
<event>
 7    1  0.2626349E-009  0.2500828E+03  0.7561462E-02  0.1113252E+00
         -1   -1    0    0    0  501 -0.00000000000E+00  0.00000000000E+00  0.61681030846E+02  0.61681030846E+02  0.00000000000E+00 0.  1.
          1   -1    0    0  501    0  0.00000000000E+00 -0.00000000000E+00 -0.13961923722E+04  0.13961923722E+04  0.00000000000E+00 0. -1.
         25    2    1    2    0    0 -0.51995755122E+01 -0.23366709533E+03 -0.10476715065E+04  0.10806906612E+04  0.12509745308E+03 0.  0.
          5    1    3    3  502    0  0.14191203638E+02 -0.23926508629E+03 -0.89161341184E+03  0.92327737997E+03  0.41800000000E+01 0. -1.
         -5    1    3    3    0  502 -0.19390779150E+02  0.55979909577E+01 -0.15605809463E+03  0.15741328126E+03  0.41800000000E+01 0. -1.
        -11    1    1    2    0    0 -0.24403591834E+02  0.10919805703E+03 -0.17240325822E+03  0.20553013015E+03  0.00000000000E+00 0. -1.
         11    1    1    2    0    0  0.29603167347E+02  0.12446903830E+03 -0.11443657664E+03  0.17165261165E+03  0.00000000000E+00 0.  1.
</event>
<event>
 7    1  0.2626349E-009  0.1699171E+03  0.7561462E-02  0.1177934E+00
         -1   -1    0    0    0  501 -0.00000000000E+00  0.00000000000E+00  0.81691775225E+02  0.81691775225E+02  0.00000000000E+00 0.  1.
          1   -1    0    0  501    0  0.00000000000E+00 -0.00000000000E+00 -0.37923606861E+03  0.37923606861E+03  0.00000000000E+00 0. -1.
         25    2    1    2    0    0  0.13332554766E+03  0.34649325289E+02 -0.14596834897E+03  0.23649145630E+03  0.12508066438E+03 0.  0.
          5    1    3    3  502    0  0.10684537982E+03  0.72380190218E+02 -0.68287054126E+02  0.14606649611E+03  0.41800000000E+01 0.  1.
         -5    1    3    3    0  502  0.26480167842E+02 -0.37730864929E+02 -0.77681294845E+02  0.90424960194E+02  0.41800000000E+01 0.  1.
        -11    1    1    2    0    0 -0.12888696431E+03  0.61202103692E+00 -0.12886959979E+03  0.18226244234E+03  0.00000000000E+00 0. -1.
         11    1    1    2    0    0 -0.44385833519E+01 -0.35261346326E+02 -0.22706344621E+02  0.42173945191E+02  0.00000000000E+00 0.  1.
</event>
<event>
 7    1  0.2626349E-009  0.7295289E+02  0.7561462E-02  0.1350330E+00
          1   -1    0    0  501    0  0.00000000000E+00  0.00000000000E+00  0.29575604174E+03  0.29575604174E+03  0.00000000000E+00 0. -1.
         -1   -1    0    0    0  501 -0.00000000000E+00 -0.00000000000E+00 -0.46357529723E+02  0.46357529723E+02  0.00000000000E+00 0.  1.
         25    2    1    2    0    0 -0.27921774839E+02 -0.19433372370E+02  0.18017506755E+03  0.22196320089E+03  0.12508927257E+03 0.  0.
          5    1    3    3  502    0 -0.35385346387E+02 -0.10092800267E+02 -0.40944665888E+01  0.37258883677E+02  0.41800000000E+01 0. -1.
         -5    1    3    3    0  502  0.74635715488E+01 -0.93405721032E+01  0.18426953414E+03  0.18470431722E+03  0.41800000000E+01 0. -1.
        -11    1    1    2    0    0  0.58368148152E+02  0.27772982049E+02  0.57383362923E+02  0.86435117811E+02  0.00000000000E+00 0.  1.
         11    1    1    2    0    0 -0.30446373314E+02 -0.83396096785E+01  0.11840081545E+02  0.33715252758E+02  0.00000000000E+00 0. -1.
</event>
<event>
 7    1  0.2626349E-009  0.1792320E+03  0.7561462E-02  0.1168548E+00
          1   -1    0    0  501    0  0.00000000000E+00  0.00000000000E+00  0.36503513871E+03  0.36503513871E+03  0.00000000000E+00 0. -1.
         -1   -1    0    0    0  501 -0.00000000000E+00 -0.00000000000E+00 -0.11416253359E+03  0.11416253359E+03  0.00000000000E+00 0.  1.
         25    2    1    2    0    0 -0.10764436515E+03 -0.12202215245E+03  0.63970188253E+02  0.21497952206E+03  0.12508914774E+03 0.  0.
          5    1    3    3  502    0 -0.66271907516E+02 -0.26301129009E+01 -0.11932205416E+02  0.67518391167E+02  0.41800000000E+01 0.  1.
         -5    1    3    3    0  502 -0.41372457636E+02 -0.11939203955E+03  0.75902393670E+02  0.14746113089E+03  0.41800000000E+01 0.  1.
        -11    1    1    2    0    0  0.15912273967E+01  0.14396502937E+02 -0.88194204395E+01  0.16957991577E+02  0.00000000000E+00 0.  1.
         11    1    1    2    0    0  0.10605313775E+03  0.10762564951E+03  0.19572183731E+03  0.24726015866E+03  0.00000000000E+00 0. -1.
</event>
<event>
 7    1  0.2626349E-009  0.1722774E+03  0.7561462E-02  0.1175493E+00
         -2   -1    0    0    0  501 -0.00000000000E+00  0.00000000000E+00  0.14561312854E+03  0.14561312854E+03  0.00000000000E+00 0. -1.
          2   -1    0    0  501    0  0.00000000000E+00 -0.00000000000E+00 -0.26014162790E+03  0.26014162790E+03  0.00000000000E+00 0.  1.
         25    2    1    2    0    0  0.14646762682E+03  0.62000569244E+02 -0.32809367762E+02  0.20498618239E+03  0.12508414793E+03 0.  0.
          5    1    3    3  502    0  0.12162792514E+02  0.20652318908E+02  0.39882222697E+02  0.46717404522E+02  0.41800000000E+01 0. -1.
         -5    1    3    3    0  502  0.13430483431E+03  0.41348250336E+02 -0.72691590459E+02  0.15826877787E+03  0.41800000000E+01 0. -1.
        -11    1    1    2    0    0 -0.94274131233E+02  0.53553358432E+01 -0.63034999427E+02  0.11353282607E+03  0.00000000000E+00 0. -1.
         11    1    1    2    0    0 -0.52193495586E+02 -0.67355905087E+02 -0.18684132170E+02  0.87235747985E+02  0.00000000000E+00 0.  1.
</event>
<event>
 7    1  0.2626349E-009  0.7952773E+02  0.7561462E-02  0.1330397E+00
         -2   -1    0    0    0  501 -0.00000000000E+00  0.00000000000E+00  0.48347714376E+02  0.48347714376E+02  0.00000000000E+00 0.  1.
          2   -1    0    0  501    0  0.00000000000E+00 -0.00000000000E+00 -0.48897937653E+03  0.48897937653E+03  0.00000000000E+00 0. -1.
         25    2    1    2    0    0  0.41173377192E+02 -0.22080261986E+02 -0.41264920110E+03  0.43371513221E+03  0.12508664109E+03 0.  0.
          5    1    3    3  502    0 -0.78331669337E+01  0.44645135298E+01 -0.34846733811E+03  0.34860901955E+03  0.41800000000E+01 0. -1.
         -5    1    3    3    0  502  0.49006544126E+02 -0.26544775516E+02 -0.64181862994E+02  0.85106112658E+02  0.41800000000E+01 0. -1.
        -11    1    1    2    0    0 -0.47424707665E+02  0.47457124985E+02 -0.25432036493E+01  0.67139775795E+02  0.00000000000E+00 0. -1.
         11    1    1    2    0    0  0.62513304726E+01 -0.25376863000E+02 -0.25439257405E+02  0.36472182902E+02  0.00000000000E+00 0.  1.
</event>
<event>
 7    1  0.2626349E-009  0.1024391E+03  0.7561462E-02  0.1275249E+00
          1   -1    0    0  501    0  0.00000000000E+00  0.00000000000E+00  0.87518853405E+03  0.87518853405E+03  0.00000000000E+00 0. -1.
         -1   -1    0    0    0  501 -0.00000000000E+00 -0.00000000000E+00 -0.20301058353E+02  0.20301058353E+02  0.00000000000E+00 0.  1.
         25    2    1    2    0    0  0.61389311849E+02  0.21518516831E+02  0.61257528299E+03  0.62859244066E+03  0.12509310511E+03 0.  0.
          5    1    3    3  502    0  0.99350544521E+02  0.13730639570E+02  0.48112730645E+03  0.49148755689E+03  0.41800000000E+01 0.  1.
         -5    1    3    3    0  502 -0.37961232671E+02  0.77878772609E+01  0.13144797654E+03  0.13710488377E+03  0.41800000000E+01 0.  1.
        -11    1    1    2    0    0 -0.41016164588E+02 -0.18221259835E+02  0.24213370361E+03  0.24625813792E+03  0.00000000000E+00 0. -1.
         11    1    1    2    0    0 -0.20373147262E+02 -0.32972569960E+01  0.17848908931E+00  0.20639013818E+02  0.00000000000E+00 0.  1.
</event>
<event>
 7    1  0.2626349E-009  0.1089079E+03  0.7561462E-02  0.1262606E+00
         -2   -1    0    0    0  501 -0.00000000000E+00  0.00000000000E+00  0.12632454068E+03  0.12632454068E+03  0.00000000000E+00 0.  1.
          2   -1    0    0  501    0  0.00000000000E+00 -0.00000000000E+00 -0.12817577336E+03  0.12817577336E+03  0.00000000000E+00 0. -1.
         25    2    1    2    0    0 -0.57502121302E+02 -0.69974001270E+01 -0.91037972990E+01  0.13814465338E+03  0.12508240711E+03 0.  0.
          5    1    3    3  502    0 -0.78999887111E+02  0.38020498643E+02 -0.65775470055E+01  0.88018617379E+02  0.41800000000E+01 0.  1.
         -5    1    3    3    0  502  0.21497765809E+02 -0.45017898770E+02 -0.25262502935E+01  0.50126035999E+02  0.41800000000E+01 0.  1.
        -11    1    1    2    0    0 -0.40484738526E+01  0.17130039238E+02  0.41582042795E+02  0.45154121272E+02  0.00000000000E+00 0.  1.
         11    1    1    2    0    0  0.61550595155E+02 -0.10132639111E+02 -0.34329478180E+02  0.71201539389E+02  0.00000000000E+00 0. -1.
</event>
<event>
 7    1  0.2626349E-009  0.6834655E+02  0.7561462E-02  0.1365808E+00
         -2   -1    0    0    0  501 -0.00000000000E+00  0.00000000000E+00  0.51205334464E+03  0.51205334464E+03  0.00000000000E+00 0.  1.
          2   -1    0    0  501    0  0.00000000000E+00 -0.00000000000E+00 -0.24015166382E+02  0.24015166382E+02  0.00000000000E+00 0. -1.
         25    2    1    2    0    0  0.39370263719E+01 -0.44012187023E+01  0.26757065546E+03  0.29542286554E+03  0.12508294415E+03 0.  0.
          5    1    3    3  502    0  0.25643770136E+02 -0.52887987084E+01 -0.42220667580E+00  0.26518389790E+02  0.41800000000E+01 0.  1.
         -5    1    3    3    0  502 -0.21706743764E+02  0.88758000617E+00  0.26799286213E+03  0.26890447575E+03  0.41800000000E+01 0.  1.
        -11    1    1    2    0    0 -0.33020418566E+01  0.46166585013E+02  0.65874963785E+02  0.80509427435E+02  0.00000000000E+00 0. -1.
         11    1    1    2    0    0 -0.63498451530E+00 -0.41765366311E+02  0.15459255902E+03  0.16013621806E+03  0.00000000000E+00 0.  1.
</event>
<event>
 7    1  0.2626349E-009  0.9498287E+02  0.7561462E-02  0.1291215E+00
         -1   -1    0    0    0  501 -0.00000000000E+00  0.00000000000E+00  0.19140982285E+02  0.19140982285E+02  0.00000000000E+00 0.  1.
          1   -1    0    0  501    0  0.00000000000E+00 -0.00000000000E+00 -0.72834932563E+03  0.72834932563E+03  0.00000000000E+00 0. -1.
         25    2    1    2    0    0 -0.12069937438E+02  0.35383328613E+02 -0.49248268082E+03  0.50949505979E+03  0.12509341194E+03 0.  0.
          5    1    3    3  502    0 -0.47336317920E+02  0.22097383503E+00 -0.73381984361E+02  0.87425190034E+02  0.41800000000E+01 0.  1.
         -5    1    3    3    0  502  0.35266380482E+02  0.35162354778E+02 -0.41910069646E+03  0.42206986976E+03  0.41800000000E+01 0.  1.
        -11    1    1    2    0    0  0.16879207959E+02 -0.62597378307E+02 -0.18440711677E+03  0.19547205465E+03  0.00000000000E+00 0.  1.
         11    1    1    2    0    0 -0.48092705215E+01  0.27214049693E+02 -0.32318545751E+02  0.42523193473E+02  0.00000000000E+00 0. -1.
</event>
<event>
 7    1  0.2626349E-009  0.1271015E+03  0.7561462E-02  0.1231821E+00
         -2   -1    0    0    0  501 -0.00000000000E+00  0.00000000000E+00  0.46029283116E+03  0.46029283116E+03  0.00000000000E+00 0.  1.
          2   -1    0    0  501    0  0.00000000000E+00 -0.00000000000E+00 -0.71765285384E+02  0.71765285384E+02  0.00000000000E+00 0. -1.
         25    2    1    2    0    0  0.92834846313E+02 -0.12778681180E+02  0.36356610114E+03  0.39573999371E+03  0.12509288285E+03 0.  0.
          5    1    3    3  502    0  0.60238498993E+02  0.47510270251E+02  0.26281406798E+03  0.27381491790E+03  0.41800000000E+01 0.  1.
         -5    1    3    3    0  502  0.32596347320E+02 -0.60288951432E+02  0.10075203316E+03  0.12192507580E+03  0.41800000000E+01 0.  1.
        -11    1    1    2    0    0 -0.90859782528E+02 -0.48284124646E+01 -0.15360365892E+02  0.92275427326E+02  0.00000000000E+00 0. -1.
         11    1    1    2    0    0 -0.19750637854E+01  0.17607093645E+02  0.40321810529E+02  0.44042695511E+02  0.00000000000E+00 0.  1.
</event>
<event>
 7    1  0.2626349E-009  0.1392456E+03  0.7561462E-02  0.1214348E+00
         -2   -1    0    0    0  501 -0.00000000000E+00  0.00000000000E+00  0.22069094111E+02  0.22069094111E+02  0.00000000000E+00 0.  1.
          2   -1    0    0  501    0  0.00000000000E+00 -0.00000000000E+00 -0.11494060675E+04  0.11494060675E+04  0.00000000000E+00 0. -1.
         25    2    1    2    0    0  0.11744220402E+03 -0.61595131869E+00 -0.56725590678E+03  0.59263830421E+03  0.12509134725E+03 0.  0.
          5    1    3    3  502    0 -0.71037846185E+01 -0.19942633262E+02 -0.15281423601E+02  0.26441760240E+02  0.41800000000E+01 0.  1.
         -5    1    3    3    0  502  0.12454598863E+03  0.19326681943E+02 -0.55197448318E+03  0.56619654397E+03  0.41800000000E+01 0.  1.
        -11    1    1    2    0    0 -0.51277390636E+02  0.28887706731E+02 -0.12899166881E+03  0.14178406474E+03  0.00000000000E+00 0.  1.
         11    1    1    2    0    0 -0.66164813379E+02 -0.28271755413E+02 -0.43108939782E+03  0.43705279269E+03  0.00000000000E+00 0. -1.
</event>
<event>
 7    1  0.2626349E-009  0.1655974E+03  0.7561462E-02  0.1182518E+00
          2   -1    0    0  501    0  0.00000000000E+00  0.00000000000E+00  0.62608717135E+03  0.62608717135E+03  0.00000000000E+00 0. -1.
         -2   -1    0    0    0  501 -0.00000000000E+00 -0.00000000000E+00 -0.10330316178E+03  0.10330316178E+03  0.00000000000E+00 0.  1.
         25    2    1    2    0    0  0.81545962994E+02 -0.98550769816E+02 -0.60690725382E+01  0.17901207093E+03  0.12508592881E+03 0.  0.
          5    1    3    3  502    0  0.99074063019E+02 -0.11682174470E+03 -0.59792793530E+01  0.15334997287E+03  0.41800000000E+01 0.  1.
         -5    1    3    3    0  502 -0.17528100025E+02  0.18270974888E+02 -0.89793185209E-01  0.25662098056E+02  0.41800000000E+01 0.  1.
        -11    1    1    2    0    0 -0.16434138636E+02  0.83985684956E+02  0.28643963325E+03  0.29895039670E+03  0.00000000000E+00 0. -1.
         11    1    1    2    0    0 -0.65111824357E+02  0.14565084860E+02  0.24241344885E+03  0.25142786550E+03  0.00000000000E+00 0.  1.
</event>
<event>
 7    1  0.2626349E-009  0.8104035E+02  0.7561462E-02  0.1326125E+00
         -2   -1    0    0    0  501 -0.00000000000E+00  0.00000000000E+00  0.28436586310E+02  0.28436586310E+02  0.00000000000E+00 0.  1.
          2   -1    0    0  501    0  0.00000000000E+00 -0.00000000000E+00 -0.51006914343E+03  0.51006914343E+03  0.00000000000E+00 0. -1.
         25    2    1    2    0    0 -0.46924160569E+02 -0.23679667610E+02 -0.29217031817E+03  0.32214014066E+03  0.12509265326E+03 0.  0.
          5    1    3    3  502    0 -0.10554506362E+01  0.97491629121E+01  0.10024566322E+02  0.14632992977E+02  0.41800000000E+01 0. -1.
         -5    1    3    3    0  502 -0.45868709932E+02 -0.33428830522E+02 -0.30219488449E+03  0.30750714768E+03  0.41800000000E+01 0. -1.
        -11    1    1    2    0    0  0.13465536480E+02 -0.29073550597E+02 -0.25638610630E+02  0.41035720684E+02  0.00000000000E+00 0.  1.
         11    1    1    2    0    0  0.33458624089E+02  0.52753218206E+02 -0.16382362832E+03  0.17532986840E+03  0.00000000000E+00 0. -1.
</event>
<event>
 7    1  0.2626349E-009  0.1244374E+03  0.7561462E-02  0.1235951E+00
         -2   -1    0    0    0  501 -0.00000000000E+00  0.00000000000E+00  0.36646009982E+02  0.36646009982E+02  0.00000000000E+00 0.  1.
          2   -1    0    0  501    0  0.00000000000E+00 -0.00000000000E+00 -0.60629190553E+03  0.60629190553E+03  0.00000000000E+00 0. -1.
         25    2    1    2    0    0 -0.87133224294E+02  0.20190913331E+02 -0.41389571996E+03  0.44154254386E+03  0.12510107626E+03 0.  0.
          5    1    3    3  502    0 -0.67394986153E+02 -0.27137613643E+02 -0.10123918997E+03  0.12468111412E+03  0.41800000000E+01 0. -1.
         -5    1    3    3    0  502 -0.19738238141E+02  0.47328526974E+02 -0.31265653000E+03  0.31686142974E+03  0.41800000000E+01 0. -1.
        -11    1    1    2    0    0  0.69265239942E+02  0.26884036384E+02 -0.70722639042E+02  0.10257736860E+03  0.00000000000E+00 0.  1.
         11    1    1    2    0    0  0.17867984353E+02 -0.47074949715E+02 -0.85027536544E+02  0.98818003047E+02  0.00000000000E+00 0. -1.
</event>
<event>
 7    1  0.2626349E-009  0.1881427E+03  0.7561462E-02  0.1160147E+00
         -1   -1    0    0    0  501 -0.00000000000E+00  0.00000000000E+00  0.43302101840E+03  0.43302101840E+03  0.00000000000E+00 0.  1.
          1   -1    0    0  501    0  0.00000000000E+00 -0.00000000000E+00 -0.89862003449E+02  0.89862003449E+02  0.00000000000E+00 0. -1.
         25    2    1    2    0    0  0.32191420606E+02 -0.16041733969E+03  0.16384532489E+03  0.26317786664E+03  0.12508912249E+03 0.  0.
          5    1    3    3  502    0 -0.42667093619E+02 -0.48538274134E+02  0.24103471125E+02  0.69100612545E+02  0.41800000000E+01 0.  1.
         -5    1    3    3    0  502  0.74858514225E+02 -0.11187906556E+03  0.13974185376E+03  0.19407725409E+03  0.41800000000E+01 0.  1.
        -11    1    1    2    0    0 -0.26513287259E+02  0.13376655955E+02  0.71088051787E+02  0.77041550041E+02  0.00000000000E+00 0.  1.
         11    1    1    2    0    0 -0.56781333462E+01  0.14704068374E+03  0.10822563827E+03  0.18266360517E+03  0.00000000000E+00 0. -1.
</event>
<event>
 7    1  0.2626349E-009  0.1183327E+03  0.7561462E-02  0.1245873E+00
          1   -1    0    0  501    0  0.00000000000E+00  0.00000000000E+00  0.32239076130E+04  0.32239076130E+04  0.00000000000E+00 0. -1.
         -1   -1    0    0    0  501 -0.00000000000E+00 -0.00000000000E+00 -0.81350144137E+01  0.81350144137E+01  0.00000000000E+00 0.  1.
         25    2    1    2    0    0  0.85294039843E+02 -0.57868535139E+01  0.25370952713E+04  0.25416154387E+04  0.12509221387E+03 0.  0.
          5    1    3    3  502    0  0.11345812262E+02 -0.29843479869E+02  0.15809063739E+03  0.16133655128E+03  0.41800000000E+01 0.  1.
         -5    1    3    3    0  502  0.73948227581E+02  0.24056626355E+02  0.23790046339E+04  0.23802788875E+04  0.41800000000E+01 0.  1.
        -11    1    1    2    0    0 -0.91898031676E+02  0.33718569380E+02  0.50618035256E+03  0.51555866733E+03  0.00000000000E+00 0.  1.
         11    1    1    2    0    0  0.66039918329E+01 -0.27931715866E+02  0.17249697475E+03  0.17486852134E+03  0.00000000000E+00 0. -1.
</event>
<event>
 7    1  0.2626349E-009  0.3529485E+03  0.7561462E-02  0.1061411E+00
         -3   -1    0    0    0  501 -0.00000000000E+00  0.00000000000E+00  0.30087483349E+03  0.30087483349E+03  0.00000000000E+00 0.  1.
          3   -1    0    0  501    0  0.00000000000E+00 -0.00000000000E+00 -0.45248305593E+03  0.45248305593E+03  0.00000000000E+00 0. -1.
         25    2    1    2    0    0  0.21764191386E+03 -0.25823731337E+03 -0.17806480905E+03  0.40175766001E+03  0.12509048114E+03 0.  0.
          5    1    3    3  502    0  0.99623378448E+01 -0.82878067837E+02 -0.70730202799E+02  0.10949089593E+03  0.41800000000E+01 0.  1.
         -5    1    3    3    0  502  0.20767957601E+03 -0.17535924553E+03 -0.10733460625E+03  0.29226676408E+03  0.41800000000E+01 0.  1.
        -11    1    1    2    0    0 -0.72045098247E+02  0.15816922413E+03  0.17899869730E+02  0.17472379626E+03  0.00000000000E+00 0. -1.
         11    1    1    2    0    0 -0.14559681561E+03  0.10006808924E+03  0.85567168808E+01  0.17687643315E+03  0.00000000000E+00 0.  1.
</event>
<event>
 7    1  0.2626349E-009  0.1694483E+03  0.7561462E-02  0.1178424E+00
         -1   -1    0    0    0  501 -0.00000000000E+00  0.00000000000E+00  0.46809671347E+03  0.46809671347E+03  0.00000000000E+00 0.  1.
          1   -1    0    0  501    0  0.00000000000E+00 -0.00000000000E+00 -0.10788929433E+03  0.10788929433E+03  0.00000000000E+00 0. -1.
         25    2    1    2    0    0  0.13366247590E+03 -0.65096915679E+02  0.35172968190E+03  0.40182612197E+03  0.12508875757E+03 0.  0.
          5    1    3    3  502    0  0.56035254647E+02 -0.78467345965E+02  0.27635441720E+03  0.29272224113E+03  0.41800000000E+01 0.  1.
         -5    1    3    3    0  502  0.77627221253E+02  0.13370430286E+02  0.75375264704E+02  0.10910388084E+03  0.41800000000E+01 0.  1.
        -11    1    1    2    0    0 -0.62971396272E+02 -0.59842814991E+01 -0.25655264455E+02  0.68259804920E+02  0.00000000000E+00 0. -1.
         11    1    1    2    0    0 -0.70691079628E+02  0.71081197178E+02  0.34133001688E+02  0.10590008090E+03  0.00000000000E+00 0.  1.
</event>
<event>
 7    1  0.2626349E-009  0.9175595E+02  0.7561462E-02  0.1298654E+00
          2   -1    0    0  501    0  0.00000000000E+00  0.00000000000E+00  0.61363296906E+02  0.61363296906E+02  0.00000000000E+00 0. -1.
         -2   -1    0    0    0  501 -0.00000000000E+00 -0.00000000000E+00 -0.37218850717E+03  0.37218850717E+03  0.00000000000E+00 0.  1.
         25    2    1    2    0    0 -0.49928113602E+02  0.74566467568E+02 -0.24188839569E+03  0.28672511338E+03  0.12509324545E+03 0.  0.
          5    1    3    3  502    0 -0.44036404330E+02  0.64894262448E+02 -0.25622021508E+03  0.26798645716E+03  0.41800000000E+01 0.  1.
         -5    1    3    3    0  502 -0.58917092719E+01  0.96722051197E+01  0.14331819387E+02  0.18738656221E+02  0.41800000000E+01 0.  1.
        -11    1    1    2    0    0  0.37319179127E+02 -0.34222097778E+02 -0.87157184584E+02  0.10079805520E+03  0.00000000000E+00 0.  1.
         11    1    1    2    0    0  0.12608934475E+02 -0.40344369790E+02  0.18220370014E+02  0.46028635497E+02  0.00000000000E+00 0. -1.
</event>
<event>
 7    1  0.2626349E-009  0.9411944E+02  0.7561462E-02  0.1293172E+00
         -1   -1    0    0    0  501 -0.00000000000E+00  0.00000000000E+00  0.50964045966E+02  0.50964045966E+02  0.00000000000E+00 0.  1.
          1   -1    0    0  501    0  0.00000000000E+00 -0.00000000000E+00 -0.24389983813E+03  0.24389983813E+03  0.00000000000E+00 0. -1.
         25    2    1    2    0    0 -0.88526681294E+01 -0.16073478273E+02 -0.84751554041E+02  0.15220613684E+03  0.12508859157E+03 0.  0.
          5    1    3    3  502    0 -0.23318770748E+02 -0.66245485408E+02 -0.66291284864E+02  0.96665589819E+02  0.41800000000E+01 0.  1.
         -5    1    3    3    0  502  0.14466102619E+02  0.50172007135E+02 -0.18460269177E+02  0.55540547018E+02  0.41800000000E+01 0.  1.
        -11    1    1    2    0    0 -0.31548984237E+01  0.39262152281E+02 -0.94197043432E+01  0.40499392782E+02  0.00000000000E+00 0.  1.
         11    1    1    2    0    0  0.12007566553E+02 -0.23188674009E+02 -0.98764533779E+02  0.10215835448E+03  0.00000000000E+00 0. -1.
</event>
<event>
 7    1  0.2626349E-009  0.6558584E+02  0.7561462E-02  0.1375781E+00
         -1   -1    0    0    0  501 -0.00000000000E+00  0.00000000000E+00  0.12316658192E+03  0.12316658192E+03  0.00000000000E+00 0. -1.
          1   -1    0    0  501    0  0.00000000000E+00 -0.00000000000E+00 -0.81757460100E+02  0.81757460100E+02  0.00000000000E+00 0.  1.
         25    2    1    2    0    0 -0.19278461984E+02 -0.98841912836E+01  0.13185492186E+02  0.12763259362E+03  0.12508743109E+03 0.  0.
          5    1    3    3  502    0 -0.29016786557E+02  0.17149939525E+02 -0.48641822588E+02  0.59326163136E+02  0.41800000000E+01 0. -1.
         -5    1    3    3    0  502  0.97383245728E+01 -0.27034130809E+02  0.61827314773E+02  0.68306430489E+02  0.41800000000E+01 0. -1.
        -11    1    1    2    0    0  0.21345172574E+02  0.36064958173E+02  0.29089988195E+02  0.51014948921E+02  0.00000000000E+00 0. -1.
         11    1    1    2    0    0 -0.20667105903E+01 -0.26180766889E+02 -0.86635855890E+00  0.26276499476E+02  0.00000000000E+00 0.  1.
</event>
<event>
 7    1  0.2759517E-009  0.1064883E+03  0.7561462E-02  0.1267215E+00
         -1   -1    0    0    0  501 -0.00000000000E+00  0.00000000000E+00  0.34892454148E+02  0.34892454148E+02  0.00000000000E+00 0.  1.
          1   -1    0    0  501    0  0.00000000000E+00 -0.00000000000E+00 -0.43746084961E+03  0.43746084961E+03  0.00000000000E+00 0. -1.
         25    2    1    2    0    0 -0.34576798647E+02  0.37540759910E+02 -0.16985448021E+03  0.21703190364E+03  0.12508972417E+03 0.  0.
          5    1    3    3  502    0 -0.76800929629E+02  0.43179201132E+02 -0.13756622423E+03  0.16341592533E+03  0.41800000000E+01 0.  1.
         -5    1    3    3    0  502  0.42224130983E+02 -0.56384412213E+01 -0.32288255978E+02  0.53615978316E+02  0.41800000000E+01 0.  1.
        -11    1    1    2    0    0  0.32364869966E+02  0.10385016481E+02 -0.25145119475E+02  0.42280142013E+02  0.00000000000E+00 0.  1.
         11    1    1    2    0    0  0.22119286804E+01 -0.47925776391E+02 -0.20756879579E+03  0.21304125811E+03  0.00000000000E+00 0. -1.
</event>
<event>
 7    1  0.2626349E-009  0.1212234E+03  0.7561462E-02  0.1241092E+00
          1   -1    0    0  501    0  0.00000000000E+00  0.00000000000E+00  0.15371077244E+04  0.15371077244E+04  0.00000000000E+00 0. -1.
         -1   -1    0    0    0  501 -0.00000000000E+00 -0.00000000000E+00 -0.96792847015E+01  0.96792847015E+01  0.00000000000E+00 0.  1.
         25    2    1    2    0    0 -0.50426290290E+02 -0.20488851251E+02  0.94180072347E+03  0.95162958483E+03  0.12509060802E+03 0.  0.
          5    1    3    3  502    0  0.35198728511E+02  0.20979328096E+02  0.28341055289E+03  0.28638801753E+03  0.41800000000E+01 0.  1.
         -5    1    3    3    0  502 -0.85625018801E+02 -0.41468179347E+02  0.65839017059E+03  0.66524156730E+03  0.41800000000E+01 0.  1.
        -11    1    1    2    0    0  0.61324002676E+02  0.47065622751E+02  0.43499570950E+03  0.44181112869E+03  0.00000000000E+00 0.  1.
         11    1    1    2    0    0 -0.10897712386E+02 -0.26576771499E+02  0.15063200669E+03  0.15334629555E+03  0.00000000000E+00 0. -1.
</event>
<event>
 7    1  0.2626349E-009  0.1070129E+03  0.7561462E-02  0.1266204E+00
         -1   -1    0    0    0  501 -0.00000000000E+00  0.00000000000E+00  0.80931088247E+02  0.80931088247E+02  0.00000000000E+00 0.  1.
          1   -1    0    0  501    0  0.00000000000E+00 -0.00000000000E+00 -0.16653252081E+03  0.16653252081E+03  0.00000000000E+00 0. -1.
         25    2    1    2    0    0  0.10901668021E+02  0.29518483863E+02 -0.74627446846E+02  0.14901812670E+03  0.12508780519E+03 0.  0.
          5    1    3    3  502    0  0.49874220003E+02  0.60095478462E+02 -0.36166621838E+02  0.86164965546E+02  0.41800000000E+01 0.  1.
         -5    1    3    3    0  502 -0.38972551982E+02 -0.30576994598E+02 -0.38460825008E+02  0.62853161153E+02  0.41800000000E+01 0.  1.
        -11    1    1    2    0    0  0.18467211667E+02 -0.47983900645E+02 -0.29334729494E+02  0.59194754686E+02  0.00000000000E+00 0.  1.
         11    1    1    2    0    0 -0.29368879689E+02  0.18465416782E+02  0.18360743773E+02  0.39250727675E+02  0.00000000000E+00 0. -1.
</event>
<event>
 7    1  0.3606743E-009  0.9597025E+02  0.7561462E-02  0.1289006E+00
         -2   -1    0    0    0  501 -0.00000000000E+00  0.00000000000E+00  0.50463027749E+02  0.50463027749E+02  0.00000000000E+00 0.  1.
          2   -1    0    0  501    0  0.00000000000E+00 -0.00000000000E+00 -0.31117376600E+03  0.31117376600E+03  0.00000000000E+00 0. -1.
         25    2    1    2    0    0  0.21917602299E+02  0.58305366422E+02 -0.13446496396E+03  0.19392846220E+03  0.12509006705E+03 0.  0.
          5    1    3    3  502    0  0.45313221979E+02  0.76910973207E+02 -0.46107931034E+02  0.10055843868E+03  0.41800000000E+01 0.  1.
         -5    1    3    3    0  502 -0.23395619680E+02 -0.18605606785E+02 -0.88357032928E+02  0.93370023518E+02  0.41800000000E+01 0.  1.
        -11    1    1    2    0    0 -0.30429068164E+02 -0.29594760485E+02 -0.13071197147E+03  0.13743142844E+03  0.00000000000E+00 0. -1.
         11    1    1    2    0    0  0.85114658652E+01 -0.28710605937E+02  0.44661971842E+01  0.30276903107E+02  0.00000000000E+00 0.  1.
</event>
<event>
 7    1  0.2626349E-009  0.9310837E+02  0.7561462E-02  0.1295494E+00
          1   -1    0    0  501    0  0.00000000000E+00  0.00000000000E+00  0.25389043504E+02  0.25389043504E+02  0.00000000000E+00 0. -1.
         -1   -1    0    0    0  501 -0.00000000000E+00 -0.00000000000E+00 -0.52027123796E+03  0.52027123796E+03  0.00000000000E+00 0.  1.
         25    2    1    2    0    0  0.19954205539E+02 -0.27831323039E+01 -0.20219092179E+03  0.23861109270E+03  0.12509263991E+03 0.  0.
          5    1    3    3  502    0 -0.38283126424E+02 -0.10270100887E+02 -0.16321741273E+03  0.16801329995E+03  0.41800000000E+01 0.  1.
         -5    1    3    3    0  502  0.58237331964E+02  0.74869685831E+01 -0.38973509064E+02  0.70597792753E+02  0.41800000000E+01 0.  1.
        -11    1    1    2    0    0 -0.51967363452E+02  0.13576006129E+02 -0.12602661770E+03  0.13699497500E+03  0.00000000000E+00 0.  1.
         11    1    1    2    0    0  0.32013157913E+02 -0.10792873825E+02 -0.16666465497E+03  0.17005421377E+03  0.00000000000E+00 0. -1.
</event>
<event>
 7    1  0.2626349E-009  0.9713281E+02  0.7561462E-02  0.1286443E+00
         -2   -1    0    0    0  501 -0.00000000000E+00  0.00000000000E+00  0.31309979398E+03  0.31309979398E+03  0.00000000000E+00 0.  1.
          2   -1    0    0  501    0  0.00000000000E+00 -0.00000000000E+00 -0.37362975533E+02  0.37362975533E+02  0.00000000000E+00 0. -1.
         25    2    1    2    0    0  0.22295354058E+02 -0.46683648670E+01  0.13602161129E+03  0.18619550636E+03  0.12509201177E+03 0.  0.
          5    1    3    3  502    0  0.16911113439E+02 -0.54835399437E+02  0.22287197463E+02  0.61701688469E+02  0.41800000000E+01 0.  1.
         -5    1    3    3    0  502  0.53842406197E+01  0.50167034570E+02  0.11373441383E+03  0.12449381789E+03  0.41800000000E+01 0.  1.
        -11    1    1    2    0    0  0.22293442045E+02 -0.24262569652E+02  0.47047194999E+02  0.57437865573E+02  0.00000000000E+00 0.  1.
         11    1    1    2    0    0 -0.44588796104E+02  0.28930934518E+02  0.92668012155E+02  0.10682939758E+03  0.00000000000E+00 0. -1.
</event>
<event>
 7    1  0.2626349E-009  0.9713466E+02  0.7561462E-02  0.1286439E+00
         -2   -1    0    0    0  501 -0.00000000000E+00  0.00000000000E+00  0.29816906643E+03  0.29816906643E+03  0.00000000000E+00 0. -1.
          2   -1    0    0  501    0  0.00000000000E+00 -0.00000000000E+00 -0.51518847657E+02  0.51518847657E+02  0.00000000000E+00 0.  1.
         25    2    1    2    0    0  0.96078133689E+01  0.13618912866E+02  0.56304865979E+02  0.13818691474E+03  0.12509036977E+03 0.  0.
          5    1    3    3  502    0  0.59022750769E+02 -0.24099167114E+02  0.28318171025E+02  0.69884520275E+02  0.41800000000E+01 0. -1.
         -5    1    3    3    0  502 -0.49414937400E+02  0.37718079981E+02  0.27986694954E+02  0.68302394468E+02  0.41800000000E+01 0. -1.
        -11    1    1    2    0    0  0.80319314275E+01 -0.37519040547E+02  0.30766458290E+02  0.49180944294E+02  0.00000000000E+00 0.  1.
         11    1    1    2    0    0 -0.17639744796E+02  0.23900127680E+02  0.15957889451E+03  0.16232005505E+03  0.00000000000E+00 0. -1.
</event>
<event>
 7    1  0.2626349E-009  0.1171690E+03  0.7561462E-02  0.1247842E+00
          1   -1    0    0  501    0  0.00000000000E+00  0.00000000000E+00  0.90818659573E+02  0.90818659573E+02  0.00000000000E+00 0. -1.
         -1   -1    0    0    0  501 -0.00000000000E+00 -0.00000000000E+00 -0.19665188780E+03  0.19665188780E+03  0.00000000000E+00 0.  1.
         25    2    1    2    0    0  0.77113553006E+02  0.76378916325E+01 -0.44623988252E+02  0.15376274214E+03  0.12508734188E+03 0.  0.
          5    1    3    3  502    0  0.74720642919E+02  0.58662921257E+02 -0.36583894983E+02  0.10188408404E+03  0.41800000000E+01 0.  1.
         -5    1    3    3    0  502  0.23929100871E+01 -0.51025029624E+02 -0.80400932690E+01  0.51878658103E+02  0.41800000000E+01 0.  1.
        -11    1    1    2    0    0 -0.59003717425E+02  0.13124852141E+02 -0.80066620044E+02  0.10032130411E+03  0.00000000000E+00 0.  1.
         11    1    1    2    0    0 -0.18109835580E+02 -0.20762743773E+02  0.18857380068E+02  0.33386501116E+02  0.00000000000E+00 0. -1.
</event>
<event>
 7    1  0.2626349E-009  0.1047945E+03  0.7561462E-02  0.1270525E+00
         -1   -1    0    0    0  501 -0.00000000000E+00  0.00000000000E+00  0.52560119106E+02  0.52560119106E+02  0.00000000000E+00 0.  1.
          1   -1    0    0  501    0  0.00000000000E+00 -0.00000000000E+00 -0.24147201519E+03  0.24147201519E+03  0.00000000000E+00 0. -1.
         25    2    1    2    0    0 -0.32406101499E+02  0.44971132634E+01 -0.97063290550E+02  0.16167378257E+03  0.12508697036E+03 0.  0.
          5    1    3    3  502    0  0.23947068604E+02 -0.41558234279E+02 -0.11945582890E+02  0.49605627521E+02  0.41800000000E+01 0. -1.
         -5    1    3    3    0  502 -0.56353170103E+02  0.46055347543E+02 -0.85117707660E+02  0.11206815505E+03  0.41800000000E+01 0. -1.
        -11    1    1    2    0    0  0.46781435706E+02  0.26934648632E+02 -0.78581573703E+02  0.95336466000E+02  0.00000000000E+00 0.  1.
         11    1    1    2    0    0 -0.14375334207E+02 -0.31431761895E+02 -0.13267031830E+02  0.37021885730E+02  0.00000000000E+00 0. -1.
</event>
<event>
 7    1  0.2626349E-009  0.2015833E+03  0.7561462E-02  0.1148410E+00
         -3   -1    0    0    0  501 -0.00000000000E+00  0.00000000000E+00  0.65964740360E+03  0.65964740360E+03  0.00000000000E+00 0.  1.
          3   -1    0    0  501    0  0.00000000000E+00 -0.00000000000E+00 -0.72856310155E+02  0.72856310155E+02  0.00000000000E+00 0. -1.
         25    2    1    2    0    0 -0.13289184796E+03 -0.11094240985E+03  0.17351129105E+03  0.27517507356E+03  0.12508673563E+03 0.  0.
          5    1    3    3  502    0 -0.15385052872E+03 -0.97569270176E+02  0.12650499363E+03  0.22183492395E+03  0.41800000000E+01 0. -1.
         -5    1    3    3    0  502  0.20958680760E+02 -0.13373139672E+02  0.47006297420E+02  0.53340149615E+02  0.41800000000E+01 0. -1.
        -11    1    1    2    0    0 -0.84842243963E+01  0.33443764809E+02  0.78631315620E+02  0.85868220340E+02  0.00000000000E+00 0. -1.
         11    1    1    2    0    0  0.14137607235E+03  0.77498645039E+02  0.33464848677E+03  0.37146041985E+03  0.00000000000E+00 0.  1.
</event>
<event>
 7    1  0.2626349E-009  0.1642050E+03  0.7561462E-02  0.1184030E+00
         -4   -1    0    0    0  501 -0.00000000000E+00  0.00000000000E+00  0.11091228231E+04  0.11091228231E+04  0.00000000000E+00 0.  1.
          4   -1    0    0  501    0  0.00000000000E+00 -0.00000000000E+00 -0.27574301479E+02  0.27574301479E+02  0.00000000000E+00 0. -1.
         25    2    1    2    0    0 -0.37262482460E+02  0.11693225451E+03  0.76536859239E+03  0.78517377203E+03  0.12508847000E+03 0.  0.
          5    1    3    3  502    0  0.30787029007E+02 -0.87209479751E+01  0.13755223112E+03  0.14128688819E+03  0.41800000000E+01 0. -1.
         -5    1    3    3    0  502 -0.68049511467E+02  0.12565320248E+03  0.62781636127E+03  0.64388688384E+03  0.41800000000E+01 0. -1.
        -11    1    1    2    0    0 -0.13052552331E+02  0.10128666487E+02  0.43067487350E+02  0.46127729987E+02  0.00000000000E+00 0.  1.
         11    1    1    2    0    0  0.50315034791E+02 -0.12706092100E+03  0.27311244192E+03  0.30539562260E+03  0.00000000000E+00 0. -1.
</event>
<event>
 7    1  0.2626349E-009  0.1300594E+03  0.7561462E-02  0.1227368E+00
          1   -1    0    0  501    0  0.00000000000E+00  0.00000000000E+00  0.32415905187E+03  0.32415905187E+03  0.00000000000E+00 0. -1.
         -1   -1    0    0    0  501 -0.00000000000E+00 -0.00000000000E+00 -0.88127409775E+02  0.88127409775E+02  0.00000000000E+00 0.  1.
         25    2    1    2    0    0 -0.47929459708E+02  0.88620176945E+02  0.22291579891E+03  0.27475440300E+03  0.12509100566E+03 0.  0.
          5    1    3    3  502    0 -0.59892954250E+02  0.11513287810E+03  0.16651475688E+03  0.21115724531E+03  0.41800000000E+01 0. -1.
         -5    1    3    3    0  502  0.11963494542E+02 -0.26512701159E+02  0.56401042025E+02  0.63597157688E+02  0.41800000000E+01 0. -1.
        -11    1    1    2    0    0  0.34446992976E+02 -0.58546436286E+02 -0.37151096061E+02  0.77424056116E+02  0.00000000000E+00 0.  1.
         11    1    1    2    0    0  0.13482466732E+02 -0.30073740658E+02  0.50266939246E+02  0.60108002525E+02  0.00000000000E+00 0. -1.
</event>
<event>
 7    1  0.2626349E-009  0.9033620E+02  0.7561462E-02  0.1302040E+00
          3   -1    0    0  501    0  0.00000000000E+00  0.00000000000E+00  0.30227489110E+02  0.30227489110E+02  0.00000000000E+00 0. -1.
         -3   -1    0    0    0  501 -0.00000000000E+00 -0.00000000000E+00 -0.50139983863E+03  0.50139983863E+03  0.00000000000E+00 0.  1.
         25    2    1    2    0    0  0.34510417168E+02  0.67223730355E+01 -0.31485755540E+03  0.34061718730E+03  0.12509447989E+03 0.  0.
          5    1    3    3  502    0  0.11878151763E+01  0.43360994437E+02 -0.33668226766E+02  0.55069125987E+02  0.41800000000E+01 0. -1.
         -5    1    3    3    0  502  0.33322601992E+02 -0.36638621401E+02 -0.28118932863E+03  0.28554806131E+03  0.41800000000E+01 0. -1.
        -11    1    1    2    0    0  0.13802394540E+02  0.25725743257E+02 -0.59760478378E+01  0.29799884377E+02  0.00000000000E+00 0. -1.
         11    1    1    2    0    0 -0.48312811708E+02 -0.32448116292E+02 -0.15033874628E+03  0.16121025606E+03  0.00000000000E+00 0.  1.
</event>
<event>
 7    1  0.2626349E-009  0.1334889E+03  0.7561462E-02  0.1222369E+00
          1   -1    0    0  501    0  0.00000000000E+00  0.00000000000E+00  0.28358869791E+03  0.28358869791E+03  0.00000000000E+00 0. -1.
         -1   -1    0    0    0  501 -0.00000000000E+00 -0.00000000000E+00 -0.75568615594E+02  0.75568615594E+02  0.00000000000E+00 0.  1.
         25    2    1    2    0    0  0.88479310654E+02  0.33519261751E+02  0.14574643873E+03  0.21410529943E+03  0.12508767133E+03 0.  0.
          5    1    3    3  502    0  0.10938806129E+03  0.42134662811E+02  0.15030852657E+03  0.19065991536E+03  0.41800000000E+01 0. -1.
         -5    1    3    3    0  502 -0.20908750637E+02 -0.86154010599E+01 -0.45620878487E+01  0.23445384069E+02  0.41800000000E+01 0. -1.
        -11    1    1    2    0    0 -0.10458655365E+03 -0.35517754856E+02  0.65626764703E+02  0.12847852100E+03  0.00000000000E+00 0. -1.
         11    1    1    2    0    0  0.16107242992E+02  0.19984931050E+01 -0.33531211127E+01  0.16573493074E+02  0.00000000000E+00 0.  1.
</event>
<event>
 7    1  0.2626349E-009  0.1222578E+03  0.7561462E-02  0.1239418E+00
         -1   -1    0    0    0  501 -0.00000000000E+00  0.00000000000E+00  0.50619309045E+02  0.50619309045E+02  0.00000000000E+00 0.  1.
          1   -1    0    0  501    0  0.00000000000E+00 -0.00000000000E+00 -0.35916686634E+03  0.35916686634E+03  0.00000000000E+00 0. -1.
         25    2    1    2    0    0  0.61701147489E+02 -0.37615720376E+02 -0.12468244452E+03  0.19082886438E+03  0.12509184421E+03 0.  0.
          5    1    3    3  502    0  0.74386730580E+02 -0.64337556307E+02 -0.50033853658E+02  0.11042447985E+03  0.41800000000E+01 0.  1.
         -5    1    3    3    0  502 -0.12685583090E+02  0.26721835931E+02 -0.74648590866E+02  0.80404384533E+02  0.41800000000E+01 0.  1.
        -11    1    1    2    0    0 -0.88432718231E+01  0.58650529277E+02 -0.11692265033E+03  0.13110680456E+03  0.00000000000E+00 0.  1.
         11    1    1    2    0    0 -0.52857875666E+02 -0.21034808901E+02 -0.66942462444E+02  0.87850506450E+02  0.00000000000E+00 0. -1.
</event>
<event>
 7    1  0.2626349E-009  0.1179968E+03  0.7561462E-02  0.1246439E+00
          2   -1    0    0  501    0  0.00000000000E+00  0.00000000000E+00  0.43144674690E+03  0.43144674690E+03  0.00000000000E+00 0. -1.
         -2   -1    0    0    0  501 -0.00000000000E+00 -0.00000000000E+00 -0.38848674157E+02  0.38848674157E+02  0.00000000000E+00 0.  1.
         25    2    1    2    0    0 -0.56638373043E+01 -0.58495286134E+02  0.14478220506E+03  0.20015817812E+03  0.12509049450E+03 0.  0.
          5    1    3    3  502    0 -0.20383349962E+02 -0.95646615486E+02  0.98419247383E+02  0.13880769671E+03  0.41800000000E+01 0.  1.
         -5    1    3    3    0  502  0.14719512658E+02  0.37151329353E+02  0.46362957672E+02  0.61350481414E+02  0.41800000000E+01 0.  1.
        -11    1    1    2    0    0  0.34023556637E+02  0.60594887749E+02  0.11545563451E+03  0.13475661901E+03  0.00000000000E+00 0.  1.
         11    1    1    2    0    0 -0.28359719332E+02 -0.20996016150E+01  0.13236023318E+03  0.13538062393E+03  0.00000000000E+00 0. -1.
</event>
<event>
 7    1  0.2626349E-009  0.7974126E+02  0.7561462E-02  0.1329787E+00
         -3   -1    0    0    0  501 -0.00000000000E+00  0.00000000000E+00  0.13856569674E+03  0.13856569674E+03  0.00000000000E+00 0.  1.
          3   -1    0    0  501    0  0.00000000000E+00 -0.00000000000E+00 -0.14028066724E+03  0.14028066724E+03  0.00000000000E+00 0. -1.
         25    2    1    2    0    0 -0.27802510850E+02 -0.41237990676E+02 -0.72618987950E+02  0.15295299575E+03  0.12509016753E+03 0.  0.
          5    1    3    3  502    0 -0.21057765790E+01 -0.23829896609E+02  0.34026514322E+02  0.41803999143E+02  0.41800000000E+01 0.  1.
         -5    1    3    3    0  502 -0.25696734271E+02 -0.17408094067E+02 -0.10664550227E+03  0.11114899660E+03  0.41800000000E+01 0.  1.
        -11    1    1    2    0    0  0.53959969709E+02 -0.12617281640E+01  0.33475603404E+02  0.63512883042E+02  0.00000000000E+00 0. -1.
         11    1    1    2    0    0 -0.26157458859E+02  0.42499718840E+02  0.37428414040E+02  0.62380485194E+02  0.00000000000E+00 0.  1.
</event>
<event>
 7    1  0.2626349E-009  0.1073566E+03  0.7561462E-02  0.1265545E+00
         -1   -1    0    0    0  501 -0.00000000000E+00  0.00000000000E+00  0.33421103456E+03  0.33421103456E+03  0.00000000000E+00 0.  1.
          1   -1    0    0  501    0  0.00000000000E+00 -0.00000000000E+00 -0.37024832929E+02  0.37024832929E+02  0.00000000000E+00 0. -1.
         25    2    1    2    0    0  0.11975597961E+02 -0.20213792215E+01  0.19946094469E+03  0.23574939389E+03  0.12508240221E+03 0.  0.
          5    1    3    3  502    0 -0.30120946771E+02 -0.48990734742E+02  0.12772115999E+03  0.14013397387E+03  0.41800000000E+01 0.  1.
         -5    1    3    3    0  502  0.42096544732E+02  0.46969355520E+02  0.71739784701E+02  0.95615420019E+02  0.41800000000E+01 0.  1.
        -11    1    1    2    0    0 -0.30098808495E+02  0.40995529350E+02  0.52517415597E+02  0.73107117577E+02  0.00000000000E+00 0.  1.
         11    1    1    2    0    0  0.18123210534E+02 -0.38974150128E+02  0.45207841343E+02  0.62379356018E+02  0.00000000000E+00 0. -1.
</event>
<event>
 7    1  0.2626349E-009  0.1142587E+03  0.7561462E-02  0.1252881E+00
         -2   -1    0    0    0  501 -0.00000000000E+00  0.00000000000E+00  0.78293621141E+03  0.78293621141E+03  0.00000000000E+00 0.  1.
          2   -1    0    0  501    0  0.00000000000E+00 -0.00000000000E+00 -0.23192784263E+02  0.23192784263E+02  0.00000000000E+00 0. -1.
         25    2    1    2    0    0 -0.17810140859E+02 -0.66576540730E+02  0.52681861226E+03  0.54583373663E+03  0.12508789283E+03 0.  0.
          5    1    3    3  502    0 -0.62832642112E+02 -0.60967043018E+02  0.24178769593E+03  0.25718414328E+03  0.41800000000E+01 0.  1.
         -5    1    3    3    0  502  0.45022501253E+02 -0.56094977120E+01  0.28503091632E+03  0.28864959335E+03  0.41800000000E+01 0.  1.
        -11    1    1    2    0    0  0.13330363392E+02  0.80026409807E+02  0.23235081489E+03  0.24610734657E+03  0.00000000000E+00 0.  1.
         11    1    1    2    0    0  0.44797774668E+01 -0.13449869078E+02  0.57400000302E+00  0.14187912474E+02  0.00000000000E+00 0. -1.
</event>
<event>
 7    1  0.2626349E-009  0.1693156E+03  0.7561462E-02  0.1178563E+00
         -2   -1    0    0    0  501 -0.00000000000E+00  0.00000000000E+00  0.58516367959E+02  0.58516367959E+02  0.00000000000E+00 0.  1.
          2   -1    0    0  501    0  0.00000000000E+00 -0.00000000000E+00 -0.62293310381E+03  0.62293310381E+03  0.00000000000E+00 0. -1.
         25    2    1    2    0    0 -0.60535948892E+02 -0.12508942088E+03 -0.16738560089E+03  0.25095290293E+03  0.12508979086E+03 0.  0.
          5    1    3    3  502    0  0.30017241639E+02 -0.49557344801E+01 -0.55472588184E+02  0.63405634921E+02  0.41800000000E+01 0.  1.
         -5    1    3    3    0  502 -0.90553190532E+02 -0.12013368640E+03 -0.11191301270E+03  0.18754726800E+03  0.41800000000E+01 0.  1.
        -11    1    1    2    0    0  0.15887387586E+02 -0.74639905408E+01 -0.13165057444E+02  0.21941717722E+02  0.00000000000E+00 0.  1.
         11    1    1    2    0    0  0.44648561306E+02  0.13255341142E+03 -0.38386607752E+03  0.40855485113E+03  0.00000000000E+00 0. -1.
</event>
<event>
 7    1  0.2626349E-009  0.1104243E+03  0.7561462E-02  0.1259786E+00
          1   -1    0    0  501    0  0.00000000000E+00  0.00000000000E+00  0.12235701017E+03  0.12235701017E+03  0.00000000000E+00 0. -1.
         -1   -1    0    0    0  501 -0.00000000000E+00 -0.00000000000E+00 -0.11624147127E+03  0.11624147127E+03  0.00000000000E+00 0.  1.
         25    2    1    2    0    0 -0.19484494247E+02  0.29468776135E+02 -0.32789821255E+02  0.13405152496E+03  0.12508630894E+03 0.  0.
          5    1    3    3  502    0  0.49064060005E+02 -0.94528483841E+01 -0.20466219287E+02  0.54156965006E+02  0.41800000000E+01 0.  1.
         -5    1    3    3    0  502 -0.68548554253E+02  0.38921624519E+02 -0.12323601969E+02  0.79894559957E+02  0.41800000000E+01 0.  1.
        -11    1    1    2    0    0  0.49781693859E+02 -0.40143589375E+00  0.37866583603E+02  0.62548032327E+02  0.00000000000E+00 0. -1.
         11    1    1    2    0    0 -0.30297199612E+02 -0.29067340241E+02  0.10387765441E+01  0.41998924149E+02  0.00000000000E+00 0.  1.
</event>
<event>
 7    1  0.2626349E-009  0.9222605E+02  0.7561462E-02  0.1297549E+00
         -1   -1    0    0    0  501 -0.00000000000E+00  0.00000000000E+00  0.11933579471E+03  0.11933579471E+03  0.00000000000E+00 0.  1.
          1   -1    0    0  501    0  0.00000000000E+00 -0.00000000000E+00 -0.14673443950E+03  0.14673443950E+03  0.00000000000E+00 0. -1.
         25    2    1    2    0    0  0.21915872534E+02 -0.10561489269E+02 -0.88159700644E+02  0.15495817761E+03  0.12509217987E+03 0.  0.
          5    1    3    3  502    0  0.55484881755E+02  0.33937025348E+02 -0.71243145846E+02  0.96557506300E+02  0.41800000000E+01 0. -1.
         -5    1    3    3    0  502 -0.33569009221E+02 -0.44498514617E+02 -0.16916554798E+02  0.58400671309E+02  0.41800000000E+01 0. -1.
        -11    1    1    2    0    0 -0.21043641439E+02 -0.22210643259E+02  0.70549260606E+02  0.76898281457E+02  0.00000000000E+00 0.  1.
         11    1    1    2    0    0 -0.87223109556E+00  0.32772132528E+02 -0.97882047470E+01  0.34213775145E+02  0.00000000000E+00 0. -1.
</event>
<event>
 7    1  0.2626349E-009  0.1062942E+03  0.7561462E-02  0.1267590E+00
          2   -1    0    0  501    0  0.00000000000E+00  0.00000000000E+00  0.20975290675E+03  0.20975290675E+03  0.00000000000E+00 0. -1.
         -2   -1    0    0    0  501 -0.00000000000E+00 -0.00000000000E+00 -0.72534251863E+02  0.72534251863E+02  0.00000000000E+00 0.  1.
         25    2    1    2    0    0 -0.52611587329E+02  0.19460467681E+02  0.97903567087E+02  0.16846290266E+03  0.12509177512E+03 0.  0.
          5    1    3    3  502    0  0.21238969033E+02  0.43004911371E+02  0.65595775919E+01  0.48590293947E+02  0.41800000000E+01 0. -1.
         -5    1    3    3    0  502 -0.73850556362E+02 -0.23544443691E+02  0.91343989495E+02  0.11987260872E+03  0.41800000000E+01 0. -1.
        -11    1    1    2    0    0 -0.58232020698E+00  0.20361057920E+02 -0.17148170703E+02  0.26626519392E+02  0.00000000000E+00 0.  1.
         11    1    1    2    0    0  0.53193907536E+02 -0.39821525601E+02  0.56463258505E+02  0.87197736560E+02  0.00000000000E+00 0. -1.
</event>
<event>
 7    1  0.2626349E-009  0.8577451E+02  0.7561462E-02  0.1313419E+00
         -2   -1    0    0    0  501 -0.00000000000E+00  0.00000000000E+00  0.12024972441E+03  0.12024972441E+03  0.00000000000E+00 0.  1.
          2   -1    0    0  501    0  0.00000000000E+00 -0.00000000000E+00 -0.11887943657E+03  0.11887943657E+03  0.00000000000E+00 0. -1.
         25    2    1    2    0    0 -0.41620713770E+02  0.26454022308E+02 -0.38146599592E+01  0.13450987308E+03  0.12508499196E+03 0.  0.
          5    1    3    3  502    0 -0.12858969661E+02 -0.34534862907E+02 -0.42700607693E+02  0.56558148432E+02  0.41800000000E+01 0.  1.
         -5    1    3    3    0  502 -0.28761744109E+02  0.60988885214E+02  0.38885947734E+02  0.77951724645E+02  0.41800000000E+01 0.  1.
        -11    1    1    2    0    0 -0.91070754155E+01 -0.10107169348E+02  0.39132070377E+02  0.41429610508E+02  0.00000000000E+00 0.  1.
         11    1    1    2    0    0  0.50727789186E+02 -0.16346852960E+02 -0.33947122587E+02  0.63189677395E+02  0.00000000000E+00 0. -1.
</event>
<event>
 7    1  0.2626349E-009  0.9975346E+02  0.7561462E-02  0.1280815E+00
          1   -1    0    0  501    0  0.00000000000E+00  0.00000000000E+00  0.16228654266E+03  0.16228654266E+03  0.00000000000E+00 0. -1.
         -1   -1    0    0    0  501 -0.00000000000E+00 -0.00000000000E+00 -0.11731415483E+03  0.11731415483E+03  0.00000000000E+00 0.  1.
         25    2    1    2    0    0  0.71311414279E+02  0.46347110327E+02  0.24405301421E+02  0.15322676808E+03  0.12509776687E+03 0.  0.
          5    1    3    3  502    0  0.33697252954E+02  0.18335643383E+02 -0.51227158908E+02  0.64135753559E+02  0.41800000000E+01 0. -1.
         -5    1    3    3    0  502  0.37614161325E+02  0.28011466944E+02  0.75632460329E+02  0.89091014519E+02  0.41800000000E+01 0. -1.
        -11    1    1    2    0    0 -0.26920696660E+02 -0.61332706076E+02  0.37248128581E+02  0.76641032261E+02  0.00000000000E+00 0. -1.
         11    1    1    2    0    0 -0.44390717619E+02  0.14985595749E+02 -0.16681042178E+02  0.49732897149E+02  0.00000000000E+00 0.  1.
</event>
<event>
 7    1  0.2626349E-009  0.1472478E+03  0.7561462E-02  0.1203896E+00
          2   -1    0    0  501    0  0.00000000000E+00  0.00000000000E+00  0.84557401732E+03  0.84557401732E+03  0.00000000000E+00 0. -1.
         -2   -1    0    0    0  501 -0.00000000000E+00 -0.00000000000E+00 -0.30142859884E+02  0.30142859884E+02  0.00000000000E+00 0.  1.
         25    2    1    2    0    0  0.29180689079E+02  0.11318394124E+03  0.44792051555E+03  0.47952312202E+03  0.12509004408E+03 0.  0.
          5    1    3    3  502    0 -0.27334391316E+02  0.73094387425E+02  0.11240887888E+03  0.13690575910E+03  0.41800000000E+01 0.  1.
         -5    1    3    3    0  502  0.56515080395E+02  0.40089553817E+02  0.33551163667E+03  0.34261736292E+03  0.41800000000E+01 0.  1.
        -11    1    1    2    0    0 -0.29511488668E+02  0.39678871756E+01  0.56822508299E+02  0.64151925469E+02  0.00000000000E+00 0. -1.
         11    1    1    2    0    0  0.33079958886E+00 -0.11715182842E+03  0.31068813358E+03  0.33204182971E+03  0.00000000000E+00 0.  1.
</event>
<event>
 7    1  0.2626349E-009  0.8086017E+02  0.7561462E-02  0.1326628E+00
          2   -1    0    0  501    0  0.00000000000E+00  0.00000000000E+00  0.81972592112E+03  0.81972592112E+03  0.00000000000E+00 0. -1.
         -2   -1    0    0    0  501 -0.00000000000E+00 -0.00000000000E+00 -0.16295047186E+02  0.16295047186E+02  0.00000000000E+00 0.  1.
         25    2    1    2    0    0  0.43701630320E+01  0.24223033647E+02  0.56315303826E+03  0.57740270190E+03  0.12508669782E+03 0.  0.
          5    1    3    3  502    0 -0.26578062841E+02  0.31972239065E+02  0.52836871876E+03  0.53001848351E+03  0.41800000000E+01 0.  1.
         -5    1    3    3    0  502  0.30948225873E+02 -0.77492054184E+01  0.34784319504E+02  0.47384218392E+02  0.41800000000E+01 0.  1.
        -11    1    1    2    0    0  0.29005270186E+02  0.17847411443E+02  0.47149522328E+02  0.58162816726E+02  0.00000000000E+00 0.  1.
         11    1    1    2    0    0 -0.33375433218E+02 -0.42070445090E+02  0.19312831334E+03  0.20045544968E+03  0.00000000000E+00 0. -1.
</event>
<event>
 7    1  0.2626349E-009  0.1189196E+03  0.7561462E-02  0.1244890E+00
          2   -1    0    0  501    0  0.00000000000E+00  0.00000000000E+00  0.53977990696E+03  0.53977990696E+03  0.00000000000E+00 0. -1.
         -2   -1    0    0    0  501 -0.00000000000E+00 -0.00000000000E+00 -0.73797175685E+02  0.73797175685E+02  0.00000000000E+00 0.  1.
         25    2    1    2    0    0  0.85339077830E+02 -0.60971322898E+02  0.44438898438E+03  0.47342302664E+03  0.12509009672E+03 0.  0.
          5    1    3    3  502    0  0.80263736490E+02 -0.33197610224E+02  0.43465364342E+03  0.44326697469E+03  0.41800000000E+01 0.  1.
         -5    1    3    3    0  502  0.50753413398E+01 -0.27773712674E+02  0.97353409628E+01  0.30156051948E+02  0.41800000000E+01 0.  1.
        -11    1    1    2    0    0 -0.36271811564E+02  0.63584118507E+02 -0.19880240322E+02  0.75853862102E+02  0.00000000000E+00 0.  1.
         11    1    1    2    0    0 -0.49067266266E+02 -0.26127956092E+01  0.41473987213E+02  0.64300193896E+02  0.00000000000E+00 0. -1.
</event>
<event>
 7    1  0.2626349E-009  0.1058323E+03  0.7561462E-02  0.1268488E+00
         -2   -1    0    0    0  501 -0.00000000000E+00  0.00000000000E+00  0.24058657869E+02  0.24058657869E+02  0.00000000000E+00 0. -1.
          2   -1    0    0  501    0  0.00000000000E+00 -0.00000000000E+00 -0.87680201169E+03  0.87680201169E+03  0.00000000000E+00 0.  1.
         25    2    1    2    0    0 -0.49177537570E+02 -0.49135849004E+02 -0.67395351524E+03  0.68897987398E+03  0.12508862533E+03 0.  0.
          5    1    3    3  502    0 -0.29188209374E+02  0.16415641359E+02 -0.44787444375E+02  0.56078627134E+02  0.41800000000E+01 0.  1.
         -5    1    3    3    0  502 -0.19989328196E+02 -0.65551490363E+02 -0.62916607087E+03  0.63290124685E+03  0.41800000000E+01 0.  1.
        -11    1    1    2    0    0  0.25319390715E+02 -0.22426621477E+02 -0.30669218524E+02  0.45657703205E+02  0.00000000000E+00 0.  1.
         11    1    1    2    0    0  0.23858146855E+02  0.71562470481E+02 -0.14812062006E+03  0.16622309238E+03  0.00000000000E+00 0. -1.
</event>
<event>
 7    1  0.2626349E-009  0.1077224E+03  0.7561462E-02  0.1264847E+00
         -1   -1    0    0    0  501 -0.00000000000E+00  0.00000000000E+00  0.55718624137E+02  0.55718624137E+02  0.00000000000E+00 0.  1.
          1   -1    0    0  501    0  0.00000000000E+00 -0.00000000000E+00 -0.26578062271E+03  0.26578062271E+03  0.00000000000E+00 0. -1.
         25    2    1    2    0    0 -0.39971179970E+02 -0.20202149431E+02 -0.15744922135E+03  0.20601547205E+03  0.12508515240E+03 0.  0.
          5    1    3    3  502    0 -0.61081863842E+02  0.23421639154E+02 -0.13955763518E+03  0.15418616413E+03  0.41800000000E+01 0. -1.
         -5    1    3    3    0  502  0.21110683872E+02 -0.43623788585E+02 -0.17891586171E+02  0.51829307923E+02  0.41800000000E+01 0. -1.
        -11    1    1    2    0    0  0.83599430287E+01 -0.35896877554E+02 -0.97338125694E+01  0.38121143382E+02  0.00000000000E+00 0.  1.
         11    1    1    2    0    0  0.31611236941E+02  0.56099026985E+02 -0.42878964651E+02  0.77362631413E+02  0.00000000000E+00 0. -1.
</event>
<event>
 7    1  0.2626349E-009  0.1159809E+03  0.7561462E-02  0.1249879E+00
         -1   -1    0    0    0  501 -0.00000000000E+00  0.00000000000E+00  0.14755051534E+03  0.14755051534E+03  0.00000000000E+00 0.  1.
          1   -1    0    0  501    0  0.00000000000E+00 -0.00000000000E+00 -0.13648626148E+03  0.13648626148E+03  0.00000000000E+00 0. -1.
         25    2    1    2    0    0 -0.11948872128E+02  0.36963809989E+02  0.87236956120E+02  0.15737555537E+03  0.12509068758E+03 0.  0.
          5    1    3    3  502    0 -0.59106227502E+02 -0.14554097937E+02  0.40227176629E+02  0.73082597353E+02  0.41800000000E+01 0.  1.
         -5    1    3    3    0  502  0.47157355374E+02  0.51517907926E+02  0.47009779491E+02  0.84292958014E+02  0.41800000000E+01 0.  1.
        -11    1    1    2    0    0 -0.12201428647E+02  0.28608317272E+02 -0.27353450940E+02  0.41418859913E+02  0.00000000000E+00 0.  1.
         11    1    1    2    0    0  0.24150300775E+02 -0.65572127261E+02 -0.48819251323E+02  0.85242361539E+02  0.00000000000E+00 0. -1.
</event>
<event>
 7    1  0.2626349E-009  0.1276455E+03  0.7561462E-02  0.1230992E+00
         -2   -1    0    0    0  501 -0.00000000000E+00  0.00000000000E+00  0.76473593518E+02  0.76473593518E+02  0.00000000000E+00 0.  1.
          2   -1    0    0  501    0  0.00000000000E+00 -0.00000000000E+00 -0.25565285522E+03  0.25565285522E+03  0.00000000000E+00 0. -1.
         25    2    1    2    0    0 -0.30803479932E+02 -0.77374516892E+02 -0.13345444061E+03  0.20098135227E+03  0.12509095091E+03 0.  0.
          5    1    3    3  502    0 -0.53158590137E+01  0.34645263889E+02 -0.32748680418E+02  0.48150816568E+02  0.41800000000E+01 0.  1.
         -5    1    3    3    0  502 -0.25487620919E+02 -0.11201978078E+03 -0.10070576019E+03  0.15283053570E+03  0.41800000000E+01 0.  1.
        -11    1    1    2    0    0 -0.76768221046E+00  0.73180502636E+02  0.26442383323E+01  0.73232283171E+02  0.00000000000E+00 0.  1.
         11    1    1    2    0    0  0.31571162143E+02  0.41940142565E+01 -0.48369059420E+02  0.57912813296E+02  0.00000000000E+00 0. -1.
</event>
<event>
 7    1  0.2626349E-009  0.6835973E+02  0.7561462E-02  0.1365761E+00
          3   -1    0    0  501    0  0.00000000000E+00  0.00000000000E+00  0.56202625082E+02  0.56202625082E+02  0.00000000000E+00 0.  1.
         -3   -1    0    0    0  501 -0.00000000000E+00 -0.00000000000E+00 -0.30040244498E+03  0.30040244498E+03  0.00000000000E+00 0. -1.
         25    2    1    2    0    0  0.32286799280E+02 -0.40933719978E+02 -0.70010450014E+02  0.15253586501E+03  0.12509084764E+03 0.  0.
          5    1    3    3  502    0  0.29180410131E+02 -0.46286247751E+02 -0.10407825782E+03  0.11765912296E+03  0.41800000000E+01 0. -1.
         -5    1    3    3    0  502  0.31063891494E+01  0.53525277730E+01  0.34067807802E+02  0.34876742044E+02  0.41800000000E+01 0. -1.
        -11    1    1    2    0    0 -0.32536594182E+02 -0.89205012169E+00 -0.91475450348E+01  0.33809810626E+02  0.00000000000E+00 0.  1.
         11    1    1    2    0    0  0.24979490194E+00  0.41825770099E+02 -0.16504182485E+03  0.17025939443E+03  0.00000000000E+00 0. -1.
</event>
<event>
 7    1  0.2626349E-009  0.1545218E+03  0.7561462E-02  0.1195024E+00
         -2   -1    0    0    0  501 -0.00000000000E+00  0.00000000000E+00  0.74815133627E+03  0.74815133627E+03  0.00000000000E+00 0.  1.
          2   -1    0    0  501    0  0.00000000000E+00 -0.00000000000E+00 -0.44000533605E+02  0.44000533605E+02  0.00000000000E+00 0. -1.
         25    2    1    2    0    0 -0.70297066496E+02 -0.11756689042E+03  0.46884181874E+03  0.50420630732E+03  0.12509075931E+03 0.  0.
          5    1    3    3  502    0  0.36677179957E+01 -0.93759487968E+02  0.15832970530E+03  0.18409253575E+03  0.41800000000E+01 0.  1.
         -5    1    3    3    0  502 -0.73964784492E+02 -0.23807402448E+02  0.31051211344E+03  0.32011377157E+03  0.41800000000E+01 0.  1.
        -11    1    1    2    0    0  0.11155882126E+02  0.26094640546E+02 -0.29450833073E+00  0.28380815816E+02  0.00000000000E+00 0. -1.
         11    1    1    2    0    0  0.59141184370E+02  0.91472249870E+02  0.23560349226E+03  0.25956474674E+03  0.00000000000E+00 0.  1.
</event>
<event>
 7    1  0.2626349E-009  0.1079135E+03  0.7561462E-02  0.1264483E+00
          2   -1    0    0  501    0  0.00000000000E+00  0.00000000000E+00  0.23144788235E+03  0.23144788235E+03  0.00000000000E+00 0. -1.
         -2   -1    0    0    0  501 -0.00000000000E+00 -0.00000000000E+00 -0.77429877648E+02  0.77429877648E+02  0.00000000000E+00 0.  1.
         25    2    1    2    0    0  0.37058892999E+02  0.67488849147E+02  0.12141155656E+03  0.19056303199E+03  0.12508156053E+03 0.  0.
          5    1    3    3  502    0  0.47352161443E+01  0.78113713282E+02  0.16357973623E+02  0.80057667813E+02  0.41800000000E+01 0.  1.
         -5    1    3    3    0  502  0.32323676855E+02 -0.10624864134E+02  0.10505358294E+03  0.11050536417E+03  0.41800000000E+01 0.  1.
        -11    1    1    2    0    0 -0.57122362821E+02 -0.56305094211E+02  0.45253807932E+02  0.92093078462E+02  0.00000000000E+00 0.  1.
         11    1    1    2    0    0  0.20063469821E+02 -0.11183754937E+02 -0.12647359786E+02  0.26221649554E+02  0.00000000000E+00 0. -1.
</event>
<event>
 7    1  0.2626349E-009  0.1774043E+03  0.7561462E-02  0.1170339E+00
          1   -1    0    0  501    0  0.00000000000E+00  0.00000000000E+00  0.62477155498E+02  0.62477155498E+02  0.00000000000E+00 0. -1.
         -1   -1    0    0    0  501 -0.00000000000E+00 -0.00000000000E+00 -0.11544552088E+04  0.11544552088E+04  0.00000000000E+00 0.  1.
         25    2    1    2    0    0 -0.14119413735E+03  0.14667366240E+02 -0.10062743198E+04  0.10239081515E+04  0.12509588297E+03 0.  0.
          5    1    3    3  502    0 -0.64548982654E+02 -0.50767742509E+02 -0.58366606808E+03  0.58942979757E+03  0.41800000000E+01 0.  1.
         -5    1    3    3    0  502 -0.76645154691E+02  0.65435108750E+02 -0.42260825174E+03  0.43447835393E+03  0.41800000000E+01 0.  1.
        -11    1    1    2    0    0  0.11141315503E+03  0.32390690888E+02 -0.46889520816E+02  0.12514261917E+03  0.00000000000E+00 0.  1.
         11    1    1    2    0    0  0.29780982317E+02 -0.47058057128E+02 -0.38814212665E+02  0.67881593626E+02  0.00000000000E+00 0. -1.
</event>
<event>
 7    1  0.2626349E-009  0.1400703E+03  0.7561462E-02  0.1213234E+00
         -3   -1    0    0    0  501 -0.00000000000E+00  0.00000000000E+00  0.94373923269E+02  0.94373923269E+02  0.00000000000E+00 0.  1.
          3   -1    0    0  501    0  0.00000000000E+00 -0.00000000000E+00 -0.24723854064E+03  0.24723854064E+03  0.00000000000E+00 0. -1.
         25    2    1    2    0    0  0.26343827104E+02 -0.98438181004E+02 -0.12087856552E+03  0.20159937801E+03  0.12508640576E+03 0.  0.
          5    1    3    3  502    0  0.56942159621E+02  0.26560586217E+00 -0.52907692119E+02  0.77840711547E+02  0.41800000000E+01 0. -1.
         -5    1    3    3    0  502 -0.30598332517E+02 -0.98703786866E+02 -0.67970873402E+02  0.12375866647E+03  0.41800000000E+01 0. -1.
        -11    1    1    2    0    0  0.14452056757E+02  0.65824791636E+02  0.15801722442E+02  0.69220369621E+02  0.00000000000E+00 0.  1.
         11    1    1    2    0    0 -0.40795883860E+02  0.32613389368E+02 -0.47787774293E+02  0.70792716277E+02  0.00000000000E+00 0. -1.
</event>
<event>
 7    1  0.2626349E-009  0.1021523E+03  0.7561462E-02  0.1275834E+00
         -1   -1    0    0    0  501 -0.00000000000E+00  0.00000000000E+00  0.23956091917E+03  0.23956091917E+03  0.00000000000E+00 0.  1.
          1   -1    0    0  501    0  0.00000000000E+00 -0.00000000000E+00 -0.52637946334E+02  0.52637946334E+02  0.00000000000E+00 0. -1.
         25    2    1    2    0    0  0.46261726237E+00 -0.14136107248E+02  0.13989159998E+03  0.18819825211E+03  0.12509547878E+03 0.  0.
          5    1    3    3  502    0  0.20853745729E+01 -0.69108687584E+02  0.91946686833E+02  0.11511744050E+03  0.41800000000E+01 0. -1.
         -5    1    3    3    0  502 -0.16227573105E+01  0.54972580336E+02  0.47944913147E+02  0.73080811618E+02  0.41800000000E+01 0. -1.
        -11    1    1    2    0    0 -0.54349814005E+01  0.46662934074E+02  0.52713017468E+02  0.70608998363E+02  0.00000000000E+00 0.  1.
         11    1    1    2    0    0  0.49723641382E+01 -0.32526826826E+02 -0.56816446140E+01  0.33391615025E+02  0.00000000000E+00 0. -1.
</event>
<event>
 7    1  0.2626349E-009  0.1005928E+03  0.7561462E-02  0.1279054E+00
         -4   -1    0    0    0  501 -0.00000000000E+00  0.00000000000E+00  0.12523239695E+03  0.12523239695E+03  0.00000000000E+00 0.  1.
          4   -1    0    0  501    0  0.00000000000E+00 -0.00000000000E+00 -0.15128879562E+03  0.15128879562E+03  0.00000000000E+00 0. -1.
         25    2    1    2    0    0 -0.18388819455E+02 -0.51777036726E+02  0.46854722221E+02  0.14443874211E+03  0.12509266571E+03 0.  0.
          5    1    3    3  502    0 -0.44052435432E+02 -0.47319207740E+02 -0.23800341541E+02  0.69019223019E+02  0.41800000000E+01 0.  1.
         -5    1    3    3    0  502  0.25663615977E+02 -0.44578289861E+01  0.70655063761E+02  0.75419519087E+02  0.41800000000E+01 0.  1.
        -11    1    1    2    0    0  0.37350311849E+02 -0.15263175804E+02 -0.29685593159E+02  0.50092362413E+02  0.00000000000E+00 0. -1.
         11    1    1    2    0    0 -0.18961492394E+02  0.67040212531E+02 -0.43225527734E+02  0.81990088047E+02  0.00000000000E+00 0.  1.
</event>
<event>
 7    1  0.2626349E-009  0.9993397E+02  0.7561462E-02  0.1280435E+00
          2   -1    0    0  501    0  0.00000000000E+00  0.00000000000E+00  0.69959420629E+03  0.69959420629E+03  0.00000000000E+00 0. -1.
         -2   -1    0    0    0  501 -0.00000000000E+00 -0.00000000000E+00 -0.19352587804E+02  0.19352587804E+02  0.00000000000E+00 0.  1.
         25    2    1    2    0    0 -0.27285351840E+02 -0.22726073993E+02  0.46645351995E+03  0.48423909390E+03  0.12509056288E+03 0.  0.
          5    1    3    3  502    0  0.41693436855E+02  0.90475911872E+01  0.84116973620E+02  0.94410482649E+02  0.41800000000E+01 0. -1.
         -5    1    3    3    0  502 -0.68978788694E+02 -0.31773665181E+02  0.38233654633E+03  0.38982861125E+03  0.41800000000E+01 0. -1.
        -11    1    1    2    0    0 -0.25024532294E+02  0.10980338130E+02  0.14470054395E+03  0.14725842068E+03  0.00000000000E+00 0. -1.
         11    1    1    2    0    0  0.52309884134E+02  0.11745735863E+02  0.69087554582E+02  0.87449279512E+02  0.00000000000E+00 0.  1.
</event>
<event>
 7    1  0.2626349E-009  0.9834705E+02  0.7561462E-02  0.1283811E+00
          1   -1    0    0  501    0  0.00000000000E+00  0.00000000000E+00  0.18758600298E+03  0.18758600298E+03  0.00000000000E+00 0. -1.
         -1   -1    0    0    0  501 -0.00000000000E+00 -0.00000000000E+00 -0.11517894171E+03  0.11517894171E+03  0.00000000000E+00 0.  1.
         25    2    1    2    0    0  0.41610896358E+02  0.31057511150E+02 -0.47640058217E+02  0.14357240669E+03  0.12508966833E+03 0.  0.
          5    1    3    3  502    0 -0.24017912176E+02  0.18896399884E+01  0.29350825885E+02  0.38201756828E+02  0.41800000000E+01 0.  1.
         -5    1    3    3    0  502  0.65628808534E+02  0.29167871162E+02 -0.76990884103E+02  0.10537064986E+03  0.41800000000E+01 0.  1.
        -11    1    1    2    0    0 -0.30720755180E+02 -0.61077171798E+02  0.59036825717E+02  0.90330130657E+02  0.00000000000E+00 0.  1.
         11    1    1    2    0    0 -0.10890141178E+02  0.30019660648E+02  0.61010293767E+02  0.68862407348E+02  0.00000000000E+00 0. -1.
</event>
<event>
 7    1  0.2626349E-009  0.3838188E+03  0.7561462E-02  0.1049531E+00
          2   -1    0    0  501    0  0.00000000000E+00  0.00000000000E+00  0.66505498242E+03  0.66505498242E+03  0.00000000000E+00 0. -1.
         -2   -1    0    0    0  501 -0.00000000000E+00 -0.00000000000E+00 -0.24382235324E+03  0.24382235324E+03  0.00000000000E+00 0.  1.
         25    2    1    2    0    0 -0.37339109404E+03  0.32185168057E+01  0.33031666200E+03  0.51399190743E+03  0.12508923117E+03 0.  0.
          5    1    3    3  502    0 -0.37170089954E+03  0.23025987936E+02  0.30405014504E+03  0.48078656173E+03  0.41800000000E+01 0. -1.
         -5    1    3    3    0  502 -0.16901944969E+01 -0.19807471131E+02  0.26266516966E+02  0.33205345707E+02  0.41800000000E+01 0. -1.
        -11    1    1    2    0    0  0.22128010353E+03  0.14458501390E+02  0.10692380065E+02  0.22200959320E+03  0.00000000000E+00 0. -1.
         11    1    1    2    0    0  0.15211099051E+03 -0.17677018196E+02  0.80223587111E+02  0.17287583502E+03  0.00000000000E+00 0.  1.
</event>
<event>
 7    1  0.2865792E-009  0.2035806E+03  0.7561462E-02  0.1146753E+00
          1   -1    0    0  501    0  0.00000000000E+00  0.00000000000E+00  0.46517547139E+03  0.46517547139E+03  0.00000000000E+00 0. -1.
         -1   -1    0    0    0  501 -0.00000000000E+00 -0.00000000000E+00 -0.14038462594E+03  0.14038462594E+03  0.00000000000E+00 0.  1.
         25    2    1    2    0    0  0.55090229256E+02  0.19275389283E+03  0.30878115087E+02  0.23830520224E+03  0.12508762874E+03 0.  0.
          5    1    3    3  502    0  0.11832346801E+02  0.92416200724E+02  0.75710323251E+02  0.12012611720E+03  0.41800000000E+01 0. -1.
         -5    1    3    3    0  502  0.43257882455E+02  0.10033769211E+03 -0.44832208164E+02  0.11817908504E+03  0.41800000000E+01 0. -1.
        -11    1    1    2    0    0 -0.51552200360E+02 -0.10747566797E+03  0.10074579852E+03  0.15607166459E+03  0.00000000000E+00 0.  1.
         11    1    1    2    0    0 -0.35380288956E+01 -0.85278224859E+02  0.19316693184E+03  0.21118323049E+03  0.00000000000E+00 0. -1.
</event>
<event>
 7    1  0.2626349E-009  0.1433880E+03  0.7561462E-02  0.1208841E+00
         -3   -1    0    0    0  501 -0.00000000000E+00  0.00000000000E+00  0.18170685409E+03  0.18170685409E+03  0.00000000000E+00 0.  1.
          3   -1    0    0  501    0  0.00000000000E+00 -0.00000000000E+00 -0.26291450109E+03  0.26291450109E+03  0.00000000000E+00 0. -1.
         25    2    1    2    0    0 -0.33285511840E+02 -0.13918117261E+03 -0.16777365470E+03  0.25352400373E+03  0.12508835735E+03 0.  0.
          5    1    3    3  502    0 -0.21963983384E+02 -0.96503151755E+02 -0.22434047560E+02  0.10156787757E+03  0.41800000000E+01 0.  1.
         -5    1    3    3    0  502 -0.11321528456E+02 -0.42678020859E+02 -0.14533960714E+03  0.15195612615E+03  0.41800000000E+01 0.  1.
        -11    1    1    2    0    0  0.61552065677E+01  0.14257003474E+02  0.58087482756E+02  0.60127401149E+02  0.00000000000E+00 0.  1.
         11    1    1    2    0    0  0.27130305272E+02  0.12492416914E+03  0.28478524950E+02  0.13096995030E+03  0.00000000000E+00 0. -1.
</event>
<event>
 7    1  0.2626349E-009  0.1214123E+03  0.7561462E-02  0.1240785E+00
          1   -1    0    0  501    0  0.00000000000E+00  0.00000000000E+00  0.12785161155E+04  0.12785161155E+04  0.00000000000E+00 0. -1.
         -1   -1    0    0    0  501 -0.00000000000E+00 -0.00000000000E+00 -0.18943014425E+02  0.18943014425E+02  0.00000000000E+00 0.  1.
         25    2    1    2    0    0 -0.10375970906E+03 -0.18456812354E+02  0.82272414771E+03  0.83882603824E+03  0.12508944020E+03 0.  0.
          5    1    3    3  502    0 -0.10486332969E+03 -0.35099190938E+02  0.38043145728E+03  0.39619923928E+03  0.41800000000E+01 0. -1.
         -5    1    3    3    0  502  0.11036206343E+01  0.16642378585E+02  0.44229269043E+03  0.44262679895E+03  0.41800000000E+01 0. -1.
        -11    1    1    2    0    0  0.31164221689E+02 -0.15521543307E+02  0.36902458701E+02  0.50733800157E+02  0.00000000000E+00 0.  1.
         11    1    1    2    0    0  0.72595487370E+02  0.33978355661E+02  0.39994649466E+03  0.40789929153E+03  0.00000000000E+00 0. -1.
</event>
<event>
 7    1  0.2626349E-009  0.1188471E+03  0.7561462E-02  0.1245011E+00
          2   -1    0    0  501    0  0.00000000000E+00  0.00000000000E+00  0.53911768141E+02  0.53911768141E+02  0.00000000000E+00 0. -1.
         -2   -1    0    0    0  501 -0.00000000000E+00 -0.00000000000E+00 -0.32097255869E+03  0.32097255869E+03  0.00000000000E+00 0.  1.
         25    2    1    2    0    0 -0.71717980253E+02  0.11825615913E+02 -0.15993577386E+03  0.21565941353E+03  0.12508483921E+03 0.  0.
          5    1    3    3  502    0 -0.86331516463E+02 -0.18621208003E+02 -0.52195991850E+02  0.10267314200E+03  0.41800000000E+01 0.  1.
         -5    1    3    3    0  502  0.14613536209E+02  0.30446823916E+02 -0.10773978202E+03  0.11298627154E+03  0.41800000000E+01 0.  1.
        -11    1    1    2    0    0 -0.39409399962E+01 -0.35696252890E+02 -0.18927050096E+02  0.40595402495E+02  0.00000000000E+00 0.  1.
         11    1    1    2    0    0  0.75658920249E+02  0.23870636977E+02 -0.88197966590E+02  0.11862951080E+03  0.00000000000E+00 0. -1.
</event>
<event>
 7    1  0.2626349E-009  0.1074116E+03  0.7561462E-02  0.1265440E+00
         -2   -1    0    0    0  501 -0.00000000000E+00  0.00000000000E+00  0.34414949211E+02  0.34414949211E+02  0.00000000000E+00 0.  1.
          2   -1    0    0  501    0  0.00000000000E+00 -0.00000000000E+00 -0.50366296894E+03  0.50366296894E+03  0.00000000000E+00 0. -1.
         25    2    1    2    0    0 -0.68817827042E+01 -0.69445489960E+02 -0.31235479810E+03  0.34363074623E+03  0.12508610972E+03 0.  0.
          5    1    3    3  502    0 -0.28558705446E+01 -0.96587998119E+02 -0.14701943146E+03  0.17598176896E+03  0.41800000000E+01 0.  1.
         -5    1    3    3    0  502 -0.40259121597E+01  0.27142508159E+02 -0.16533536664E+03  0.16764897727E+03  0.41800000000E+01 0.  1.
        -11    1    1    2    0    0 -0.15154335075E+02 -0.22687083371E+01  0.49152015832E+01  0.16092237746E+02  0.00000000000E+00 0.  1.
         11    1    1    2    0    0  0.22036117779E+02  0.71714198297E+02 -0.16180842321E+03  0.17835493418E+03  0.00000000000E+00 0. -1.
</event>
<event>
 7    1  0.2626349E-009  0.1985792E+03  0.7561462E-02  0.1150943E+00
         -4   -1    0    0    0  501 -0.00000000000E+00  0.00000000000E+00  0.23692039565E+03  0.23692039565E+03  0.00000000000E+00 0.  1.
          4   -1    0    0  501    0  0.00000000000E+00 -0.00000000000E+00 -0.19610872290E+03  0.19610872290E+03  0.00000000000E+00 0. -1.
         25    2    1    2    0    0 -0.12317735494E+03 -0.13959502381E+03  0.21599481166E+02  0.22533283913E+03  0.12509564086E+03 0.  0.
          5    1    3    3  502    0 -0.80613464980E+02 -0.14119644183E+03  0.54304865286E+02  0.17146852981E+03  0.41800000000E+01 0.  1.
         -5    1    3    3    0  502 -0.42563889964E+02  0.16014180233E+01 -0.32705384120E+02  0.53864309324E+02  0.41800000000E+01 0.  1.
        -11    1    1    2    0    0  0.66718093177E+02  0.10820135917E+03  0.49414792767E+02  0.13638423599E+03  0.00000000000E+00 0.  1.
         11    1    1    2    0    0  0.56459261767E+02  0.31393664640E+02 -0.30202601191E+02  0.71312043425E+02  0.00000000000E+00 0. -1.
</event>
<event>
 7    1  0.2626349E-009  0.3317759E+03  0.7561462E-02  0.1070354E+00
          2   -1    0    0  501    0  0.00000000000E+00  0.00000000000E+00  0.10492278723E+04  0.10492278723E+04  0.00000000000E+00 0.  1.
         -2   -1    0    0    0  501 -0.00000000000E+00 -0.00000000000E+00 -0.11291981666E+03  0.11291981666E+03  0.00000000000E+00 0. -1.
         25    2    1    2    0    0  0.28906782460E+03  0.14853910800E+03  0.52232396696E+03  0.62776835609E+03  0.12508680434E+03 0.  0.
          5    1    3    3  502    0  0.24634397491E+03  0.11488670785E+03  0.32840205661E+03  0.42632111465E+03  0.41800000000E+01 0.  1.
         -5    1    3    3    0  502  0.42723849692E+02  0.33652400156E+02  0.19392191034E+03  0.20144724143E+03  0.41800000000E+01 0.  1.
        -11    1    1    2    0    0 -0.11035992769E+03 -0.10693527245E+03  0.20644581702E+03  0.25736033396E+03  0.00000000000E+00 0. -1.
         11    1    1    2    0    0 -0.17870789691E+03 -0.41603835550E+02  0.20753827163E+03  0.27701899888E+03  0.00000000000E+00 0.  1.
</event>
<event>
 7    1  0.2626349E-009  0.1077803E+03  0.7561462E-02  0.1264737E+00
          2   -1    0    0  501    0  0.00000000000E+00  0.00000000000E+00  0.15934235913E+03  0.15934235913E+03  0.00000000000E+00 0. -1.
         -2   -1    0    0    0  501 -0.00000000000E+00 -0.00000000000E+00 -0.11685466593E+03  0.11685466593E+03  0.00000000000E+00 0.  1.
         25    2    1    2    0    0 -0.82631579227E+01 -0.65964144463E+02 -0.27154764872E+02  0.14423195055E+03  0.12508367668E+03 0.  0.
          5    1    3    3  502    0  0.46593922911E+02 -0.15079804498E+02  0.22785758767E+02  0.54176169655E+02  0.41800000000E+01 0.  1.
         -5    1    3    3    0  502 -0.54857080833E+02 -0.50884339965E+02 -0.49940523639E+02  0.90055780895E+02  0.41800000000E+01 0.  1.
        -11    1    1    2    0    0 -0.42394911255E+01 -0.11887048469E+02 -0.12738107960E+02  0.17931385911E+02  0.00000000000E+00 0.  1.
         11    1    1    2    0    0  0.12502649048E+02  0.77851192931E+02  0.82380566032E+02  0.11403368859E+03  0.00000000000E+00 0. -1.
</event>
<event>
 7    1  0.2626349E-009  0.1508422E+03  0.7561462E-02  0.1199442E+00
          1   -1    0    0  501    0  0.00000000000E+00  0.00000000000E+00  0.50479396892E+03  0.50479396892E+03  0.00000000000E+00 0. -1.
         -1   -1    0    0    0  501 -0.00000000000E+00 -0.00000000000E+00 -0.55302769205E+02  0.55302769205E+02  0.00000000000E+00 0.  1.
         25    2    1    2    0    0 -0.31031453297E+02 -0.10275587133E+03  0.35117208129E+03  0.38792919648E+03  0.12508201556E+03 0.  0.
          5    1    3    3  502    0 -0.10066406502E+02 -0.12982708784E+03  0.27384263523E+03  0.30325511792E+03  0.41800000000E+01 0. -1.
         -5    1    3    3    0  502 -0.20965046795E+02  0.27071216518E+02  0.77329446062E+02  0.84674078555E+02  0.41800000000E+01 0. -1.
        -11    1    1    2    0    0  0.55709036127E+02  0.96535577689E+02  0.95100694508E+02  0.14651537995E+03  0.00000000000E+00 0.  1.
         11    1    1    2    0    0 -0.24677582830E+02  0.62202936361E+01  0.32184239184E+01  0.25652161697E+02  0.00000000000E+00 0. -1.
</event>
<event>
 7    1  0.2626349E-009  0.1208241E+03  0.7561462E-02  0.1241744E+00
          1   -1    0    0  501    0  0.00000000000E+00  0.00000000000E+00  0.17393293726E+03  0.17393293726E+03  0.00000000000E+00 0. -1.
         -1   -1    0    0    0  501 -0.00000000000E+00 -0.00000000000E+00 -0.10925111693E+03  0.10925111693E+03  0.00000000000E+00 0.  1.
         25    2    1    2    0    0  0.60112223065E+02 -0.51517489496E+02  0.90053224229E+01  0.14831020793E+03  0.12508913166E+03 0.  0.
          5    1    3    3  502    0  0.34983082749E+02  0.28577129171E+02  0.38230949084E+02  0.59325763865E+02  0.41800000000E+01 0.  1.
         -5    1    3    3    0  502  0.25129140316E+02 -0.80094618667E+02 -0.29225626661E+02  0.88984444068E+02  0.41800000000E+01 0.  1.
        -11    1    1    2    0    0 -0.43501055576E+02 -0.13168597653E+02 -0.35785873766E+01  0.45591228191E+02  0.00000000000E+00 0.  1.
         11    1    1    2    0    0 -0.16611167489E+02  0.64686087148E+02  0.59255085281E+02  0.89282618059E+02  0.00000000000E+00 0. -1.
</event>
<event>
 7    1  0.2626349E-009  0.9376574E+02  0.7561462E-02  0.1293980E+00
          2   -1    0    0  501    0  0.00000000000E+00  0.00000000000E+00  0.64042237387E+02  0.64042237387E+02  0.00000000000E+00 0. -1.
         -2   -1    0    0    0  501 -0.00000000000E+00 -0.00000000000E+00 -0.21731398189E+03  0.21731398189E+03  0.00000000000E+00 0.  1.
         25    2    1    2    0    0  0.99927613913E+01  0.45605447556E+02 -0.84455870529E+02  0.15799387349E+03  0.12509819290E+03 0.  0.
          5    1    3    3  502    0  0.22185060271E+02 -0.14890947289E+02 -0.91804182059E+02  0.95704741021E+02  0.41800000000E+01 0.  1.
         -5    1    3    3    0  502 -0.12192298879E+02  0.60496394845E+02  0.73483115301E+01  0.62289132467E+02  0.41800000000E+01 0.  1.
        -11    1    1    2    0    0  0.37336568050E+02 -0.80028822151E+01 -0.11051621465E+02  0.39751776998E+02  0.00000000000E+00 0. -1.
         11    1    1    2    0    0 -0.47329329441E+02 -0.37602565341E+02 -0.57764252509E+02  0.83610568790E+02  0.00000000000E+00 0.  1.
</event>
<event>
 7    1  0.2626349E-009  0.1370405E+03  0.7561462E-02  0.1217368E+00
         -2   -1    0    0    0  501 -0.00000000000E+00  0.00000000000E+00  0.27171360977E+02  0.27171360977E+02  0.00000000000E+00 0.  1.
          2   -1    0    0  501    0  0.00000000000E+00 -0.00000000000E+00 -0.10172870953E+04  0.10172870953E+04  0.00000000000E+00 0. -1.
         25    2    1    2    0    0  0.10732285383E+03 -0.56296661056E+02 -0.42608755669E+03  0.46031265644E+03  0.12509846805E+03 0.  0.
          5    1    3    3  502    0  0.67111844064E+02 -0.43619645921E+02 -0.40524441740E+03  0.41309464214E+03  0.41800000000E+01 0.  1.
         -5    1    3    3    0  502  0.40211009766E+02 -0.12677015135E+02 -0.20843139288E+02  0.47218014301E+02  0.41800000000E+01 0.  1.
        -11    1    1    2    0    0  0.92592608605E+01  0.30883499893E+02 -0.10308572222E+03  0.10801014121E+03  0.00000000000E+00 0.  1.
         11    1    1    2    0    0 -0.11658211469E+03  0.25413161164E+02 -0.46094245545E+03  0.47613565868E+03  0.00000000000E+00 0. -1.
</event>
<event>
 7    1  0.2921104E-009  0.1686012E+03  0.7561462E-02  0.1179314E+00
         -1   -1    0    0    0  501 -0.00000000000E+00  0.00000000000E+00  0.93681539242E+02  0.93681539242E+02  0.00000000000E+00 0.  1.
          1   -1    0    0  501    0  0.00000000000E+00 -0.00000000000E+00 -0.39104000264E+03  0.39104000264E+03  0.00000000000E+00 0. -1.
         25    2    1    2    0    0 -0.13801349115E+03 -0.74980293583E+02 -0.16929753683E+03  0.26263742877E+03  0.12508794845E+03 0.  0.
          5    1    3    3  502    0  0.21539018608E+01 -0.10659996016E+02  0.17089771480E+02  0.20683507863E+02  0.41800000000E+01 0. -1.
         -5    1    3    3    0  502 -0.14016739301E+03 -0.64320297567E+02 -0.18638730831E+03  0.24195392091E+03  0.41800000000E+01 0. -1.
        -11    1    1    2    0    0  0.13309071434E+02  0.39408835499E+02 -0.26444039134E+01  0.41679498196E+02  0.00000000000E+00 0.  1.
         11    1    1    2    0    0  0.12470441972E+03  0.35571458084E+02 -0.12541652265E+03  0.18040461491E+03  0.00000000000E+00 0. -1.
</event>
<event>
 7    1  0.2626349E-009  0.1458555E+03  0.7561462E-02  0.1205660E+00
          1   -1    0    0  501    0  0.00000000000E+00  0.00000000000E+00  0.21074854626E+03  0.21074854626E+03  0.00000000000E+00 0. -1.
         -1   -1    0    0    0  501 -0.00000000000E+00 -0.00000000000E+00 -0.17992934305E+03  0.17992934305E+03  0.00000000000E+00 0.  1.
         25    2    1    2    0    0  0.13828209303E+03  0.34834574960E+02 -0.60848057937E+02  0.19921261382E+03  0.12509114471E+03 0.  0.
          5    1    3    3  502    0  0.74089702724E+02  0.16680062589E+02  0.33890695090E+02  0.83268001966E+02  0.41800000000E+01 0.  1.
         -5    1    3    3    0  502  0.64192390310E+02  0.18154512370E+02 -0.94738753026E+02  0.11594461185E+03  0.41800000000E+01 0.  1.
        -11    1    1    2    0    0 -0.11674888878E+03 -0.11903044279E+02  0.28297757812E+02  0.12071763994E+03  0.00000000000E+00 0.  1.
         11    1    1    2    0    0 -0.21533204255E+02 -0.22931530681E+02  0.63369503333E+02  0.70747635561E+02  0.00000000000E+00 0. -1.
</event>
<event>
 7    1  0.2626349E-009  0.1280736E+03  0.7561462E-02  0.1230343E+00
          2   -1    0    0  501    0  0.00000000000E+00  0.00000000000E+00  0.12052418136E+03  0.12052418136E+03  0.00000000000E+00 0. -1.
         -2   -1    0    0    0  501 -0.00000000000E+00 -0.00000000000E+00 -0.15085531518E+03  0.15085531518E+03  0.00000000000E+00 0.  1.
         25    2    1    2    0    0  0.45000764242E+01 -0.74696242205E+02 -0.42438172567E+02  0.15181414124E+03  0.12508699254E+03 0.  0.
          5    1    3    3  502    0  0.54807972793E+02 -0.69110441957E+02 -0.48362330259E+02  0.10068045718E+03  0.41800000000E+01 0.  1.
         -5    1    3    3    0  502 -0.50307896369E+02 -0.55858002480E+01  0.59241576921E+01  0.51133684063E+02  0.41800000000E+01 0.  1.
        -11    1    1    2    0    0  0.42367408362E+02  0.43683733481E+02 -0.43400385502E+01  0.61009030452E+02  0.00000000000E+00 0. -1.
         11    1    1    2    0    0 -0.46867484786E+02  0.31012508724E+02  0.16447077301E+02  0.58556324844E+02  0.00000000000E+00 0.  1.
</event>
<event>
 7    1  0.2626349E-009  0.8661854E+02  0.7561462E-02  0.1311253E+00
         -2   -1    0    0    0  501 -0.00000000000E+00  0.00000000000E+00  0.18762050412E+03  0.18762050412E+03  0.00000000000E+00 0.  1.
          2   -1    0    0  501    0  0.00000000000E+00 -0.00000000000E+00 -0.62223136156E+02  0.62223136156E+02  0.00000000000E+00 0. -1.
         25    2    1    2    0    0  0.76336136935E+01 -0.45606949301E+01  0.97747661947E+02  0.15900236022E+03  0.12509225853E+03 0.  0.
          5    1    3    3  502    0 -0.24376981063E+02 -0.38084556938E+02  0.10260933375E+03  0.11220881630E+03  0.41800000000E+01 0.  1.
         -5    1    3    3    0  502  0.32010594756E+02  0.33523862008E+02 -0.48616718004E+01  0.46793543927E+02  0.41800000000E+01 0.  1.
        -11    1    1    2    0    0 -0.26671784436E+02 -0.31033467941E+02  0.29480946722E+02  0.50433980976E+02  0.00000000000E+00 0.  1.
         11    1    1    2    0    0  0.19038170743E+02  0.35594162871E+02 -0.18312407084E+01  0.40407299071E+02  0.00000000000E+00 0. -1.
</event>
<event>
 7    1  0.2626349E-009  0.9737506E+02  0.7561462E-02  0.1285915E+00
         -3   -1    0    0    0  501 -0.00000000000E+00  0.00000000000E+00  0.19633548749E+04  0.19633548749E+04  0.00000000000E+00 0.  1.
          3   -1    0    0  501    0  0.00000000000E+00 -0.00000000000E+00 -0.12995584668E+02  0.12995584668E+02  0.00000000000E+00 0. -1.
         25    2    1    2    0    0 -0.96573855692E+00  0.58333734345E+02  0.16698277929E+04  0.16755225951E+04  0.12508937414E+03 0.  0.
          5    1    3    3  502    0  0.37704064980E+02  0.29005259358E+02  0.23168870584E+03  0.23655872506E+03  0.41800000000E+01 0.  1.
         -5    1    3    3    0  502 -0.38669803537E+02  0.29328474987E+02  0.14381390871E+04  0.14389638701E+04  0.41800000000E+01 0.  1.
        -11    1    1    2    0    0 -0.14941653010E+02 -0.74275095249E+02  0.14663931982E+03  0.16505493899E+03  0.00000000000E+00 0. -1.
         11    1    1    2    0    0  0.15907391567E+02  0.15941360904E+02  0.13389217754E+03  0.13577292550E+03  0.00000000000E+00 0.  1.
</event>
<event>
 7    1  0.2626349E-009  0.8211120E+02  0.7561462E-02  0.1323165E+00
          1   -1    0    0  501    0  0.00000000000E+00  0.00000000000E+00  0.32878174391E+03  0.32878174391E+03  0.00000000000E+00 0. -1.
         -1   -1    0    0    0  501 -0.00000000000E+00 -0.00000000000E+00 -0.41497117831E+02  0.41497117831E+02  0.00000000000E+00 0.  1.
         25    2    1    2    0    0 -0.28153847119E+02  0.31084798329E+02  0.11176471526E+03  0.17291092583E+03  0.12509169796E+03 0.  0.
          5    1    3    3  502    0  0.13366433696E+02 -0.32395053606E+02  0.85555695099E+02  0.92549178342E+02  0.41800000000E+01 0. -1.
         -5    1    3    3    0  502 -0.41520280814E+02  0.63479851935E+02  0.26209020163E+02  0.80361747483E+02  0.41800000000E+01 0. -1.
        -11    1    1    2    0    0  0.17029366094E+02  0.28357315000E+01 -0.98239560418E+00  0.17291783708E+02  0.00000000000E+00 0.  1.
         11    1    1    2    0    0  0.11124481025E+02 -0.33920529829E+02  0.17650230642E+03  0.18007615221E+03  0.00000000000E+00 0. -1.
</event>
<event>
 7    1  0.2626349E-009  0.1088791E+03  0.7561462E-02  0.1262660E+00
         -2   -1    0    0    0  501 -0.00000000000E+00  0.00000000000E+00  0.57842899713E+02  0.57842899713E+02  0.00000000000E+00 0.  1.
          2   -1    0    0  501    0  0.00000000000E+00 -0.00000000000E+00 -0.28696963872E+03  0.28696963872E+03  0.00000000000E+00 0. -1.
         25    2    1    2    0    0  0.24187730203E+01 -0.27807926599E+02 -0.21145513408E+03  0.24726407835E+03  0.12508844659E+03 0.  0.
          5    1    3    3  502    0  0.47807636028E+02 -0.55990022724E+02 -0.10834658691E+03  0.13106070350E+03  0.41800000000E+01 0. -1.
         -5    1    3    3    0  502 -0.45388863008E+02  0.28182096125E+02 -0.10310854717E+03  0.11620337485E+03  0.41800000000E+01 0. -1.
        -11    1    1    2    0    0  0.17641801330E+02 -0.26892927521E+02 -0.22244471162E+02  0.39105999567E+02  0.00000000000E+00 0. -1.
         11    1    1    2    0    0 -0.20060574350E+02  0.54700854120E+02  0.45728662392E+01  0.58442460509E+02  0.00000000000E+00 0.  1.
</event>
<event>
 7    1  0.2626349E-009  0.1707855E+03  0.7561462E-02  0.1177031E+00
         -2   -1    0    0    0  501 -0.00000000000E+00  0.00000000000E+00  0.11355433556E+03  0.11355433556E+03  0.00000000000E+00 0.  1.
          2   -1    0    0  501    0  0.00000000000E+00 -0.00000000000E+00 -0.30897530725E+03  0.30897530725E+03  0.00000000000E+00 0. -1.
         25    2    1    2    0    0  0.98665089977E+02  0.10993444216E+03 -0.62453529158E+02  0.20339102921E+03  0.12508831243E+03 0.  0.
          5    1    3    3  502    0  0.26968130844E+02  0.11816203062E+03 -0.39777709150E+02  0.12762947977E+03  0.41800000000E+01 0. -1.
         -5    1    3    3    0  502  0.71696959133E+02 -0.82275884618E+01 -0.22675820008E+02  0.75761549442E+02  0.41800000000E+01 0. -1.
        -11    1    1    2    0    0 -0.91815495469E+02 -0.98308192014E+02 -0.64184270828E+02  0.14904431035E+03  0.00000000000E+00 0.  1.
         11    1    1    2    0    0 -0.68495945075E+01 -0.11626250146E+02 -0.68783171705E+02  0.70094303243E+02  0.00000000000E+00 0. -1.
</event>
<event>
 7    1  0.2777204E-009  0.1146462E+03  0.7561462E-02  0.1252200E+00
          1   -1    0    0  501    0  0.00000000000E+00  0.00000000000E+00  0.12142199788E+03  0.12142199788E+03  0.00000000000E+00 0. -1.
         -1   -1    0    0    0  501 -0.00000000000E+00 -0.00000000000E+00 -0.17430910936E+03  0.17430910936E+03  0.00000000000E+00 0.  1.
         25    2    1    2    0    0 -0.83631453397E+02  0.74709746602E+01 -0.75663662138E+02  0.16859003177E+03  0.12509026175E+03 0.  0.
          5    1    3    3  502    0 -0.36873853206E+02 -0.54344351722E+02 -0.92856382101E+01  0.66458145410E+02  0.41800000000E+01 0.  1.
         -5    1    3    3    0  502 -0.46757600192E+02  0.61815326383E+02 -0.66378023928E+02  0.10213188636E+03  0.41800000000E+01 0.  1.
        -11    1    1    2    0    0  0.26986893146E+02  0.59909123052E+01 -0.35346375047E+02  0.44872593651E+02  0.00000000000E+00 0. -1.
         11    1    1    2    0    0  0.56644560251E+02 -0.13461886965E+02  0.58122925715E+02  0.82268481816E+02  0.00000000000E+00 0.  1.
</event>
<event>
 7    1  0.2626349E-009  0.2063836E+03  0.7561462E-02  0.1144462E+00
         -2   -1    0    0    0  501 -0.00000000000E+00  0.00000000000E+00  0.42595821576E+02  0.42595821576E+02  0.00000000000E+00 0.  1.
          2   -1    0    0  501    0  0.00000000000E+00 -0.00000000000E+00 -0.11444288474E+04  0.11444288474E+04  0.00000000000E+00 0. -1.
         25    2    1    2    0    0  0.18279668067E+03  0.57946922993E+02 -0.58813223745E+03  0.63112547618E+03  0.12508943044E+03 0.  0.
          5    1    3    3  502    0  0.83898158768E+02 -0.14312514745E+02 -0.11974219046E+03  0.14696738992E+03  0.41800000000E+01 0.  1.
         -5    1    3    3    0  502  0.98898521906E+02  0.72259437738E+02 -0.46839004698E+03  0.48415808626E+03  0.41800000000E+01 0.  1.
        -11    1    1    2    0    0 -0.22770149021E+02 -0.37224377045E+02 -0.58771131138E+02  0.73199588715E+02  0.00000000000E+00 0.  1.
         11    1    1    2    0    0 -0.16002653165E+03 -0.20722545948E+02 -0.45492965722E+03  0.48269960406E+03  0.00000000000E+00 0. -1.
</event>
<event>
 7    1  0.2626349E-009  0.1892298E+03  0.7561462E-02  0.1159158E+00
         -2   -1    0    0    0  501 -0.00000000000E+00  0.00000000000E+00  0.68513778403E+02  0.68513778403E+02  0.00000000000E+00 0.  1.
          2   -1    0    0  501    0  0.00000000000E+00 -0.00000000000E+00 -0.66158347696E+03  0.66158347696E+03  0.00000000000E+00 0. -1.
         25    2    1    2    0    0 -0.14081731035E+03 -0.10835756217E+03 -0.37328195145E+03  0.43192358770E+03  0.12509074369E+03 0.  0.
          5    1    3    3  502    0 -0.25878025339E+02 -0.27818498435E+02 -0.22300994460E+03  0.22626190321E+03  0.41800000000E+01 0. -1.
         -5    1    3    3    0  502 -0.11493928501E+03 -0.80539063732E+02 -0.15027200685E+03  0.20566168449E+03  0.41800000000E+01 0. -1.
        -11    1    1    2    0    0  0.86739008019E+02  0.96482339345E+01 -0.77215660300E+02  0.11652897548E+03  0.00000000000E+00 0. -1.
         11    1    1    2    0    0  0.54078302334E+02  0.98709328232E+02 -0.14257208680E+03  0.18164469218E+03  0.00000000000E+00 0.  1.
</event>
<event>
 7    1  0.2626349E-009  0.8019293E+02  0.7561462E-02  0.1328505E+00
         -1   -1    0    0    0  501 -0.00000000000E+00  0.00000000000E+00  0.67240517816E+02  0.67240517816E+02  0.00000000000E+00 0.  1.
          1   -1    0    0  501    0  0.00000000000E+00 -0.00000000000E+00 -0.29233616643E+03  0.29233616643E+03  0.00000000000E+00 0. -1.
         25    2    1    2    0    0  0.82220950388E+01 -0.54232536348E+02 -0.21712756546E+03  0.25651070676E+03  0.12507834407E+03 0.  0.
          5    1    3    3  502    0 -0.24907254552E+02  0.48192136011E+01 -0.17451423197E+03  0.17639808873E+03  0.41800000000E+01 0.  1.
         -5    1    3    3    0  502  0.33129349591E+02 -0.59051749949E+02 -0.42613333496E+02  0.80112618032E+02  0.41800000000E+01 0.  1.
        -11    1    1    2    0    0  0.41690807574E+01  0.54284414739E+02 -0.40759689377E+02  0.68011257862E+02  0.00000000000E+00 0. -1.
         11    1    1    2    0    0 -0.12391175796E+02 -0.51878391231E-01  0.32791606225E+02  0.35054719622E+02  0.00000000000E+00 0.  1.
</event>
<event>
 7    1  0.2626349E-009  0.1009588E+03  0.7561462E-02  0.1278293E+00
          2   -1    0    0  501    0  0.00000000000E+00  0.00000000000E+00  0.13911899668E+03  0.13911899668E+03  0.00000000000E+00 0. -1.
         -2   -1    0    0    0  501 -0.00000000000E+00 -0.00000000000E+00 -0.10537966576E+03  0.10537966576E+03  0.00000000000E+00 0.  1.
         25    2    1    2    0    0 -0.25067474155E+02 -0.57000847219E+02  0.27451599670E+02  0.14240348810E+03  0.12509072009E+03 0.  0.
          5    1    3    3  502    0  0.27867043019E+02 -0.32427659560E+02  0.61264623068E+02  0.74826142696E+02  0.41800000000E+01 0. -1.
         -5    1    3    3    0  502 -0.52934517174E+02 -0.24573187659E+02 -0.33813023398E+02  0.67577345402E+02  0.41800000000E+01 0. -1.
        -11    1    1    2    0    0  0.53782433786E+02  0.40530198026E+02 -0.39072475808E+01  0.67457495652E+02  0.00000000000E+00 0.  1.
         11    1    1    2    0    0 -0.28714959631E+02  0.16470649193E+02  0.10194978840E+02  0.34637678689E+02  0.00000000000E+00 0. -1.
</event>
<event>
 7    1  0.2626349E-009  0.1800250E+03  0.7561462E-02  0.1167779E+00
         -1   -1    0    0    0  501 -0.00000000000E+00  0.00000000000E+00  0.13185730021E+03  0.13185730021E+03  0.00000000000E+00 0.  1.
          1   -1    0    0  501    0  0.00000000000E+00 -0.00000000000E+00 -0.50343858343E+03  0.50343858343E+03  0.00000000000E+00 0. -1.
         25    2    1    2    0    0  0.27100640976E+02  0.14106510010E+03 -0.41734935612E+03  0.45876121197E+03  0.12509019687E+03 0.  0.
          5    1    3    3  502    0 -0.28717989005E+02  0.12909135482E+03 -0.26980064009E+03  0.30049818398E+03  0.41800000000E+01 0.  1.
         -5    1    3    3    0  502  0.55818629981E+02  0.11973745278E+02 -0.14754871602E+03  0.15826302799E+03  0.41800000000E+01 0.  1.
        -11    1    1    2    0    0 -0.48642649119E+02 -0.29541464325E+02  0.15769591427E+02  0.59054935793E+02  0.00000000000E+00 0. -1.
         11    1    1    2    0    0  0.21542008144E+02 -0.11152363577E+03  0.29998481473E+02  0.11747973588E+03  0.00000000000E+00 0.  1.
</event>
<event>
 7    1  0.2626349E-009  0.1281709E+03  0.7561462E-02  0.1230195E+00
          2   -1    0    0  501    0  0.00000000000E+00  0.00000000000E+00  0.58814347557E+03  0.58814347557E+03  0.00000000000E+00 0. -1.
         -2   -1    0    0    0  501 -0.00000000000E+00 -0.00000000000E+00 -0.40875553266E+02  0.40875553266E+02  0.00000000000E+00 0.  1.
         25    2    1    2    0    0 -0.33583657621E+02 -0.73536120844E+02  0.14133673257E+03  0.20532612400E+03  0.12508925651E+03 0.  0.
          5    1    3    3  502    0 -0.18389220194E+02  0.27405226054E+02  0.78818099351E+02  0.85551008292E+02  0.41800000000E+01 0.  1.
         -5    1    3    3    0  502 -0.15194437427E+02 -0.10094134690E+03  0.62518633223E+02  0.11977511571E+03  0.41800000000E+01 0.  1.
        -11    1    1    2    0    0  0.49348512768E+02  0.38887411550E+01  0.18497761197E+03  0.19148659209E+03  0.00000000000E+00 0. -1.
         11    1    1    2    0    0 -0.15764855147E+02  0.69647379689E+02  0.22095357776E+03  0.23220631275E+03  0.00000000000E+00 0.  1.
</event>
<event>
 7    1  0.2626349E-009  0.1184402E+03  0.7561462E-02  0.1245693E+00
          2   -1    0    0  501    0  0.00000000000E+00  0.00000000000E+00  0.15591131966E+04  0.15591131966E+04  0.00000000000E+00 0. -1.
         -2   -1    0    0    0  501 -0.00000000000E+00 -0.00000000000E+00 -0.14084633305E+02  0.14084633305E+02  0.00000000000E+00 0.  1.
         25    2    1    2    0    0 -0.11982406471E+01 -0.10082535058E+03  0.84978924204E+03  0.86484520538E+03  0.12509311045E+03 0.  0.
          5    1    3    3  502    0 -0.44948094887E+01 -0.53166012673E+02  0.99120616380E+02  0.11264633686E+03  0.41800000000E+01 0. -1.
         -5    1    3    3    0  502  0.32965688416E+01 -0.47659337902E+02  0.75066862566E+03  0.75219886852E+03  0.41800000000E+01 0. -1.
        -11    1    1    2    0    0  0.45372426476E+02  0.60257294604E+02  0.36527179421E+03  0.37297866197E+03  0.00000000000E+00 0. -1.
         11    1    1    2    0    0 -0.44174185829E+02  0.40568055971E+02  0.32996752707E+03  0.33537396258E+03  0.00000000000E+00 0.  1.
</event>
<event>
 7    1  0.2626349E-009  0.9775139E+02  0.7561462E-02  0.1285097E+00
         -2   -1    0    0    0  501 -0.00000000000E+00  0.00000000000E+00  0.48847099574E+02  0.48847099574E+02  0.00000000000E+00 0.  1.
          2   -1    0    0  501    0  0.00000000000E+00 -0.00000000000E+00 -0.30288165026E+03  0.30288165026E+03  0.00000000000E+00 0. -1.
         25    2    1    2    0    0 -0.25593325794E+02  0.41572425164E+02 -0.19068994318E+03  0.23322459365E+03  0.12509105401E+03 0.  0.
          5    1    3    3  502    0  0.11967742839E+02 -0.20930757133E+02 -0.14504430449E+03  0.14709400439E+03  0.41800000000E+01 0.  1.
         -5    1    3    3    0  502 -0.37561068633E+02  0.62503182297E+02 -0.45645638683E+02  0.86130589252E+02  0.41800000000E+01 0.  1.
        -11    1    1    2    0    0 -0.31309398320E+02 -0.97354448024E+01 -0.10057557871E+02  0.34295944061E+02  0.00000000000E+00 0.  1.
         11    1    1    2    0    0  0.56902724115E+02 -0.31836980362E+02 -0.53287049636E+02  0.84208212124E+02  0.00000000000E+00 0. -1.
</event>
<event>
 7    1  0.2626349E-009  0.9651459E+02  0.7561462E-02  0.1287801E+00
          2   -1    0    0  501    0  0.00000000000E+00  0.00000000000E+00  0.17577183972E+03  0.17577183972E+03  0.00000000000E+00 0. -1.
         -2   -1    0    0    0  501 -0.00000000000E+00 -0.00000000000E+00 -0.69631600805E+02  0.69631600805E+02  0.00000000000E+00 0.  1.
         25    2    1    2    0    0 -0.16917697960E+01  0.16899347579E+02  0.90484939376E+02  0.15531444406E+03  0.12508637914E+03 0.  0.
          5    1    3    3  502    0  0.48753191298E+02  0.22145736952E+02  0.26168577609E+01  0.53773856766E+02  0.41800000000E+01 0.  1.
         -5    1    3    3    0  502 -0.50444961094E+02 -0.52463893733E+01  0.87868081615E+02  0.10154058729E+03  0.41800000000E+01 0.  1.
        -11    1    1    2    0    0  0.23360620211E+02 -0.46327921162E+02  0.12750311455E+02  0.53428132084E+02  0.00000000000E+00 0. -1.
         11    1    1    2    0    0 -0.21668850415E+02  0.29428573583E+02  0.29049880854E+01  0.36660864382E+02  0.00000000000E+00 0.  1.
</event>
<event>
 7    1  0.2626349E-009  0.8710116E+02  0.7561462E-02  0.1310027E+00
          2   -1    0    0  501    0  0.00000000000E+00  0.00000000000E+00  0.88802612013E+02  0.88802612013E+02  0.00000000000E+00 0. -1.
         -2   -1    0    0    0  501 -0.00000000000E+00 -0.00000000000E+00 -0.21460124038E+03  0.21460124038E+03  0.00000000000E+00 0.  1.
         25    2    1    2    0    0 -0.51646842706E+02 -0.47576215545E+02 -0.12176505134E+03  0.18816416350E+03  0.12509249398E+03 0.  0.
          5    1    3    3  502    0 -0.31130166857E+02  0.35097615951E+01 -0.12869646267E+03  0.13252040454E+03  0.41800000000E+01 0.  1.
         -5    1    3    3    0  502 -0.20516675849E+02 -0.51085977140E+02  0.69314113259E+01  0.55643758961E+02  0.41800000000E+01 0.  1.
        -11    1    1    2    0    0  0.12878146289E+02 -0.11139044137E+02 -0.34572596810E+02  0.38538155201E+02  0.00000000000E+00 0.  1.
         11    1    1    2    0    0  0.38768696417E+02  0.58715259682E+02  0.30539019788E+02  0.76701533694E+02  0.00000000000E+00 0. -1.
</event>
<event>
 7    1  0.2626349E-009  0.1120107E+03  0.7561462E-02  0.1256891E+00
         -2   -1    0    0    0  501 -0.00000000000E+00  0.00000000000E+00  0.20763564888E+02  0.20763564888E+02  0.00000000000E+00 0.  1.
          2   -1    0    0  501    0  0.00000000000E+00 -0.00000000000E+00 -0.69473724683E+03  0.69473724683E+03  0.00000000000E+00 0. -1.
         25    2    1    2    0    0  0.30981886193E+02 -0.21688694646E+02 -0.49873666023E+03  0.51557334239E+03  0.12508932158E+03 0.  0.
          5    1    3    3  502    0 -0.11689802417E+01 -0.70984438430E+02 -0.29617602651E+03  0.30459459630E+03  0.41800000000E+01 0.  1.
         -5    1    3    3    0  502  0.32150866435E+02  0.49295743785E+02 -0.20256063372E+03  0.21097874609E+03  0.41800000000E+01 0.  1.
        -11    1    1    2    0    0 -0.14926706662E+02 -0.33367061629E+02 -0.47748131527E+02  0.60133613212E+02  0.00000000000E+00 0.  1.
         11    1    1    2    0    0 -0.16055179531E+02  0.55055756274E+02 -0.12748889018E+03  0.13979385612E+03  0.00000000000E+00 0. -1.
</event>
<event>
 7    1  0.2626349E-009  0.1068824E+03  0.7561462E-02  0.1266455E+00
         -4   -1    0    0    0  501 -0.00000000000E+00  0.00000000000E+00  0.14040435832E+03  0.14040435832E+03  0.00000000000E+00 0.  1.
          4   -1    0    0  501    0  0.00000000000E+00 -0.00000000000E+00 -0.95598946470E+02  0.95598946470E+02  0.00000000000E+00 0. -1.
         25    2    1    2    0    0  0.22406810746E+02 -0.23599476928E+02  0.50306073382E+02  0.13870000136E+03  0.12509192172E+03 0.  0.
          5    1    3    3  502    0  0.71817610242E+02 -0.76505417939E+01  0.10414673887E+02  0.73090613370E+02  0.41800000000E+01 0. -1.
         -5    1    3    3    0  502 -0.49410799496E+02 -0.15948935134E+02  0.39891399495E+02  0.65609387990E+02  0.41800000000E+01 0. -1.
        -11    1    1    2    0    0 -0.42768020797E+02 -0.15301979344E+02  0.16328123488E+02  0.48268641905E+02  0.00000000000E+00 0.  1.
         11    1    1    2    0    0  0.20361210051E+02  0.38901456272E+02 -0.21828785024E+02  0.49034661521E+02  0.00000000000E+00 0. -1.
</event>
<event>
 7    1  0.2626349E-009  0.1063491E+03  0.7561462E-02  0.1267484E+00
         -1   -1    0    0    0  501 -0.00000000000E+00  0.00000000000E+00  0.16236741790E+03  0.16236741790E+03  0.00000000000E+00 0.  1.
          1   -1    0    0  501    0  0.00000000000E+00 -0.00000000000E+00 -0.12877984187E+03  0.12877984187E+03  0.00000000000E+00 0. -1.
         25    2    1    2    0    0 -0.11369475267E+02 -0.42524244010E+02  0.10314725597E+03  0.16800076861E+03  0.12508927029E+03 0.  0.
          5    1    3    3  502    0  0.15768340099E+01  0.34246249240E+02 -0.47716065240E+01  0.34864489402E+02  0.41800000000E+01 0.  1.
         -5    1    3    3    0  502 -0.12946309277E+02 -0.76770493250E+02  0.10791886250E+03  0.13313627921E+03  0.41800000000E+01 0.  1.
        -11    1    1    2    0    0  0.22581352119E+02  0.68380528425E+02 -0.58838983954E+02  0.92993764113E+02  0.00000000000E+00 0. -1.
         11    1    1    2    0    0 -0.11211876852E+02 -0.25856284414E+02 -0.10720695994E+02  0.30152727055E+02  0.00000000000E+00 0.  1.
</event>
<event>
 7    1  0.2626349E-009  0.1894159E+03  0.7561462E-02  0.1158989E+00
         -1   -1    0    0    0  501 -0.00000000000E+00  0.00000000000E+00  0.75005306729E+03  0.75005306729E+03  0.00000000000E+00 0.  1.
          1   -1    0    0  501    0  0.00000000000E+00 -0.00000000000E+00 -0.51537809929E+02  0.51537809929E+02  0.00000000000E+00 0. -1.
         25    2    1    2    0    0 -0.15138914934E+03 -0.56981671980E+02  0.40896651634E+03  0.45723742974E+03  0.12508745017E+03 0.  0.
          5    1    3    3  502    0 -0.73541152564E+02  0.36000921648E+02  0.14155527990E+03  0.16358403696E+03  0.41800000000E+01 0. -1.
         -5    1    3    3    0  502 -0.77847996778E+02 -0.92982593628E+02  0.26741123644E+03  0.29365339278E+03  0.41800000000E+01 0. -1.
        -11    1    1    2    0    0  0.14855952736E+03  0.68537384328E+02  0.22205007059E+03  0.27581432173E+03  0.00000000000E+00 0. -1.
         11    1    1    2    0    0  0.28296219791E+01 -0.11555712347E+02  0.67498670430E+02  0.68539125747E+02  0.00000000000E+00 0.  1.
</event>
<event>
 7    1  0.2626349E-009  0.4553936E+03  0.7561462E-02  0.1026126E+00
          1   -1    0    0  501    0  0.00000000000E+00  0.00000000000E+00  0.13495542108E+04  0.13495542108E+04  0.00000000000E+00 0. -1.
         -1   -1    0    0    0  501 -0.00000000000E+00 -0.00000000000E+00 -0.15755402257E+03  0.15755402257E+03  0.00000000000E+00 0.  1.
         25    2    1    2    0    0  0.21369021934E+03 -0.38689023289E+03  0.71483720600E+03  0.84969833285E+03  0.12508982224E+03 0.  0.
          5    1    3    3  502    0  0.10999203314E+03 -0.82895041064E+02  0.20014153126E+03  0.24298958851E+03  0.41800000000E+01 0.  1.
         -5    1    3    3    0  502  0.10369818621E+03 -0.30399519182E+03  0.51469567473E+03  0.60670874434E+03  0.41800000000E+01 0.  1.
        -11    1    1    2    0    0 -0.15989377306E+03  0.19338277402E+03  0.27954625787E+03  0.37564481394E+03  0.00000000000E+00 0.  1.
         11    1    1    2    0    0 -0.53796446286E+02  0.19350745887E+03  0.19761672440E+03  0.28176508661E+03  0.00000000000E+00 0. -1.
</event>
<event>
 7    1  0.2626349E-009  0.3164547E+03  0.7561462E-02  0.1077293E+00
          2   -1    0    0  501    0  0.00000000000E+00  0.00000000000E+00  0.81949532416E+02  0.81949532416E+02  0.00000000000E+00 0. -1.
         -2   -1    0    0    0  501 -0.00000000000E+00 -0.00000000000E+00 -0.13456610518E+04  0.13456610518E+04  0.00000000000E+00 0.  1.
         25    2    1    2    0    0  0.13823792961E+03 -0.27345425857E+03 -0.50439541819E+03  0.60328162961E+03  0.12508808904E+03 0.  0.
          5    1    3    3  502    0  0.27730012136E+02 -0.15365550370E+03 -0.16759586923E+03  0.22909564634E+03  0.41800000000E+01 0. -1.
         -5    1    3    3    0  502  0.11050791747E+03 -0.11979875487E+03 -0.33679954896E+03  0.37418598327E+03  0.41800000000E+01 0. -1.
        -11    1    1    2    0    0 -0.63351881538E+02  0.19581900361E+03 -0.41032125213E+03  0.45904473967E+03  0.00000000000E+00 0. -1.
         11    1    1    2    0    0 -0.74886048071E+02  0.77635254956E+02 -0.34899484902E+03  0.36528421490E+03  0.00000000000E+00 0.  1.
</event>
<event>
 7    1  0.2626349E-009  0.1013128E+03  0.7561462E-02  0.1277559E+00
          3   -1    0    0  501    0  0.00000000000E+00  0.00000000000E+00  0.15083558591E+03  0.15083558591E+03  0.00000000000E+00 0.  1.
         -3   -1    0    0    0  501 -0.00000000000E+00 -0.00000000000E+00 -0.88716295838E+02  0.88716295838E+02  0.00000000000E+00 0. -1.
         25    2    1    2    0    0 -0.42132971576E+01 -0.38376117346E+02  0.15607884194E+02  0.13183971217E+03  0.12509046886E+03 0.  0.
          5    1    3    3  502    0 -0.63484623132E+02 -0.25990644812E+02 -0.16240126942E+01  0.68745332999E+02  0.41800000000E+01 0.  1.
         -5    1    3    3    0  502  0.59271325975E+02 -0.12385472533E+02  0.17231896888E+02  0.63094379171E+02  0.41800000000E+01 0.  1.
        -11    1    1    2    0    0 -0.29001869280E+02  0.20170046565E+02 -0.12600249173E+02  0.37506072566E+02  0.00000000000E+00 0. -1.
         11    1    1    2    0    0  0.33215166437E+02  0.18206070781E+02  0.59111655056E+02  0.70206097015E+02  0.00000000000E+00 0.  1.
</event>
<event>
 7    1  0.2626349E-009  0.1393648E+03  0.7561462E-02  0.1214186E+00
         -2   -1    0    0    0  501 -0.00000000000E+00  0.00000000000E+00  0.39453375279E+02  0.39453375279E+02  0.00000000000E+00 0.  1.
          2   -1    0    0  501    0  0.00000000000E+00 -0.00000000000E+00 -0.68017843552E+03  0.68017843552E+03  0.00000000000E+00 0. -1.
         25    2    1    2    0    0  0.47898842408E+02  0.10148909992E+03 -0.23203711909E+03  0.28650139252E+03  0.12508991477E+03 0.  0.
          5    1    3    3  502    0 -0.50191779841E+01  0.99165609302E+02 -0.20283252602E+03  0.22587057407E+03  0.41800000000E+01 0. -1.
         -5    1    3    3    0  502  0.52918020392E+02  0.23234906171E+01 -0.29204593064E+02  0.60630818458E+02  0.41800000000E+01 0. -1.
        -11    1    1    2    0    0 -0.29515774386E+02 -0.75111680672E+01 -0.30866981985E+02  0.43363223591E+02  0.00000000000E+00 0.  1.
         11    1    1    2    0    0 -0.18383068022E+02 -0.93977931852E+02 -0.37782095916E+03  0.38976719468E+03  0.00000000000E+00 0. -1.
</event>
<event>
 7    1  0.2626349E-009  0.1123532E+03  0.7561462E-02  0.1256273E+00
          1   -1    0    0  501    0  0.00000000000E+00  0.00000000000E+00  0.14844690318E+03  0.14844690318E+03  0.00000000000E+00 0. -1.
         -1   -1    0    0    0  501 -0.00000000000E+00 -0.00000000000E+00 -0.10056486688E+03  0.10056486688E+03  0.00000000000E+00 0.  1.
         25    2    1    2    0    0 -0.88624729506E+00 -0.46841902836E+02 -0.33828900046E+01  0.13361455887E+03  0.12508579896E+03 0.  0.
          5    1    3    3  502    0 -0.35390205806E+01 -0.89905840703E+02 -0.52638709722E+01  0.90226191301E+02  0.41800000000E+01 0.  1.
         -5    1    3    3    0  502  0.26527732855E+01  0.43063937867E+02  0.18809809676E+01  0.43388367567E+02  0.41800000000E+01 0.  1.
        -11    1    1    2    0    0  0.26344491465E+02 -0.10645472115E+02  0.43625030194E+02  0.52062477530E+02  0.00000000000E+00 0. -1.
         11    1    1    2    0    0 -0.25458244170E+02  0.57487374951E+02  0.76398961112E+01  0.63334733659E+02  0.00000000000E+00 0.  1.
</event>
<event>
 7    1  0.2626349E-009  0.2140889E+03  0.7561462E-02  0.1138368E+00
         -2   -1    0    0    0  501 -0.00000000000E+00  0.00000000000E+00  0.47527102908E+02  0.47527102908E+02  0.00000000000E+00 0.  1.
          2   -1    0    0  501    0  0.00000000000E+00 -0.00000000000E+00 -0.12481269156E+04  0.12481269156E+04  0.00000000000E+00 0. -1.
         25    2    1    2    0    0  0.20268260083E+03 -0.65479187226E+02 -0.73515077574E+03  0.77553965763E+03  0.12508931545E+03 0.  0.
          5    1    3    3  502    0  0.73653263926E+02 -0.38322217544E+02 -0.49137064117E+03  0.49835326330E+03  0.41800000000E+01 0.  1.
         -5    1    3    3    0  502  0.12902933691E+03 -0.27156969682E+02 -0.24378013458E+03  0.27718639433E+03  0.41800000000E+01 0.  1.
        -11    1    1    2    0    0 -0.76805046925E+02  0.21079208123E+02 -0.82955763699E+02  0.11500003034E+03  0.00000000000E+00 0.  1.
         11    1    1    2    0    0 -0.12587755391E+03  0.44399979103E+02 -0.38249327323E+03  0.40511433051E+03  0.00000000000E+00 0. -1.
</event>
<event>
 7    1  0.2626349E-009  0.1697326E+03  0.7561462E-02  0.1178127E+00
         -1   -1    0    0    0  501 -0.00000000000E+00  0.00000000000E+00  0.43792445518E+03  0.43792445518E+03  0.00000000000E+00 0.  1.
          1   -1    0    0  501    0  0.00000000000E+00 -0.00000000000E+00 -0.75453605622E+02  0.75453605622E+02  0.00000000000E+00 0. -1.
         25    2    1    2    0    0 -0.93293684928E+02 -0.10804726000E+03  0.22616014379E+03  0.29525197790E+03  0.12508955901E+03 0.  0.
          5    1    3    3  502    0 -0.11611530055E+03 -0.11514241197E+03  0.18084223022E+03  0.24384815498E+03  0.41800000000E+01 0.  1.
         -5    1    3    3    0  502  0.22821615617E+02  0.70951519662E+01  0.45317913565E+02  0.51403822919E+02  0.41800000000E+01 0.  1.
        -11    1    1    2    0    0  0.50251326579E+02  0.20893871623E+02  0.10096182992E+03  0.11469542622E+03  0.00000000000E+00 0.  1.
         11    1    1    2    0    0  0.43042358349E+02  0.87153388380E+02  0.35348875846E+02  0.10343065668E+03  0.00000000000E+00 0. -1.
</event>
<event>
 7    1  0.2626349E-009  0.6807496E+02  0.7561462E-02  0.1366764E+00
          2   -1    0    0  501    0  0.00000000000E+00  0.00000000000E+00  0.66663096621E+03  0.66663096621E+03  0.00000000000E+00 0. -1.
         -2   -1    0    0    0  501 -0.00000000000E+00 -0.00000000000E+00 -0.18182388188E+02  0.18182388188E+02  0.00000000000E+00 0.  1.
         25    2    1    2    0    0 -0.88190681513E+01  0.53689996266E+00  0.32818673212E+03  0.35133067295E+03  0.12509454981E+03 0.  0.
          5    1    3    3  502    0  0.22560914826E+01  0.21216277587E+02  0.32673611359E+03  0.32745867023E+03  0.41800000000E+01 0. -1.
         -5    1    3    3    0  502 -0.11075159634E+02 -0.20679377624E+02  0.14506185273E+01  0.23872002722E+02  0.41800000000E+01 0. -1.
        -11    1    1    2    0    0 -0.18623124689E+02 -0.39065856758E+02  0.19088607297E+03  0.19573056683E+03  0.00000000000E+00 0. -1.
         11    1    1    2    0    0  0.27442192841E+02  0.38528956795E+02  0.12937577292E+03  0.13775211461E+03  0.00000000000E+00 0.  1.
</event>
<event>
 7    1  0.2626349E-009  0.9871442E+02  0.7561462E-02  0.1283023E+00
          2   -1    0    0  501    0  0.00000000000E+00  0.00000000000E+00  0.11467276399E+03  0.11467276399E+03  0.00000000000E+00 0. -1.
         -2   -1    0    0    0  501 -0.00000000000E+00 -0.00000000000E+00 -0.14586416009E+03  0.14586416009E+03  0.00000000000E+00 0.  1.
         25    2    1    2    0    0  0.47804065882E+02 -0.26826141616E+02 -0.60759363614E+02  0.14947969060E+03  0.12509039550E+03 0.  0.
          5    1    3    3  502    0  0.93269580912E+01  0.41505607304E+02  0.98576204703E+01  0.43867444264E+02  0.41800000000E+01 0. -1.
         -5    1    3    3    0  502  0.38477107790E+02 -0.68331748920E+02 -0.70616984084E+02  0.10561224633E+03  0.41800000000E+01 0. -1.
        -11    1    1    2    0    0 -0.39171254340E+02  0.42784741079E+02  0.54919676760E+02  0.79881738409E+02  0.00000000000E+00 0. -1.
         11    1    1    2    0    0 -0.86328115418E+01 -0.15958599463E+02 -0.25351709244E+02  0.31175495080E+02  0.00000000000E+00 0.  1.
</event>
<event>
 7    1  0.2626349E-009  0.1154730E+03  0.7561462E-02  0.1250758E+00
          3   -1    0    0  501    0  0.00000000000E+00  0.00000000000E+00  0.58164050537E+03  0.58164050537E+03  0.00000000000E+00 0. -1.
         -3   -1    0    0    0  501 -0.00000000000E+00 -0.00000000000E+00 -0.34988739950E+02  0.34988739950E+02  0.00000000000E+00 0.  1.
         25    2    1    2    0    0 -0.25444967060E+02  0.81767817630E+02  0.36666573766E+03  0.39676725320E+03  0.12508823960E+03 0.  0.
          5    1    3    3  502    0 -0.53229936329E+01 -0.10644389052E+02 -0.47481962664E+01  0.13477946702E+02  0.41800000000E+01 0.  1.
         -5    1    3    3    0  502 -0.20121973427E+02  0.92412206682E+02  0.37141393393E+03  0.38328930650E+03  0.41800000000E+01 0.  1.
        -11    1    1    2    0    0  0.93707110752E+01 -0.99378148695E+02  0.16077736802E+03  0.18924372838E+03  0.00000000000E+00 0. -1.
         11    1    1    2    0    0  0.16074255985E+02  0.17610331065E+02  0.19208659745E+02  0.30618263747E+02  0.00000000000E+00 0.  1.
</event>
<event>
 7    1  0.2626349E-009  0.1242840E+03  0.7561462E-02  0.1236192E+00
         -1   -1    0    0    0  501 -0.00000000000E+00  0.00000000000E+00  0.17673638928E+03  0.17673638928E+03  0.00000000000E+00 0.  1.
          1   -1    0    0  501    0  0.00000000000E+00 -0.00000000000E+00 -0.10419015279E+03  0.10419015279E+03  0.00000000000E+00 0. -1.
         25    2    1    2    0    0 -0.38827614893E+02 -0.57168027184E+02 -0.11436990994E+02  0.14337078428E+03  0.12509440439E+03 0.  0.
          5    1    3    3  502    0 -0.71545237465E+02 -0.76046489421E+02 -0.35419619177E+01  0.10455528419E+03  0.41800000000E+01 0. -1.
         -5    1    3    3    0  502  0.32717622572E+02  0.18878462236E+02 -0.78950290762E+01  0.38815500091E+02  0.41800000000E+01 0. -1.
        -11    1    1    2    0    0 -0.20060136767E+02 -0.47545853264E+01  0.50488279459E+01  0.21225122670E+02  0.00000000000E+00 0. -1.
         11    1    1    2    0    0  0.58887751660E+02  0.61922612511E+02  0.78934399538E+02  0.11633063511E+03  0.00000000000E+00 0.  1.
</event>
<event>
 7    1  0.2626349E-009  0.1616590E+03  0.7561462E-02  0.1186836E+00
          1   -1    0    0  501    0  0.00000000000E+00  0.00000000000E+00  0.96039462831E+03  0.96039462831E+03  0.00000000000E+00 0. -1.
         -1   -1    0    0    0  501 -0.00000000000E+00 -0.00000000000E+00 -0.51305741787E+02  0.51305741787E+02  0.00000000000E+00 0.  1.
         25    2    1    2    0    0  0.10495208760E+03 -0.71229646263E+02  0.80060660275E+03  0.82018726978E+03  0.12509045504E+03 0.  0.
          5    1    3    3  502    0 -0.25921952072E+02  0.46026487343E+01  0.13345688028E+03  0.13609314189E+03  0.41800000000E+01 0. -1.
         -5    1    3    3    0  502  0.13087403967E+03 -0.75832294997E+02  0.66714972247E+03  0.68409412789E+03  0.41800000000E+01 0. -1.
        -11    1    1    2    0    0 -0.54400468602E+02 -0.41797624003E+01  0.79098005547E+02  0.96090456755E+02  0.00000000000E+00 0. -1.
         11    1    1    2    0    0 -0.50551618997E+02  0.75409408663E+02  0.29384278229E+02  0.95422643566E+02  0.00000000000E+00 0.  1.
</event>
<event>
 7    1  0.2626349E-009  0.5573334E+02  0.7561462E-02  0.1416662E+00
          1   -1    0    0  501    0  0.00000000000E+00  0.00000000000E+00  0.19079295030E+02  0.19079295030E+02  0.00000000000E+00 0. -1.
         -1   -1    0    0    0  501 -0.00000000000E+00 -0.00000000000E+00 -0.67806084933E+03  0.67806084933E+03  0.00000000000E+00 0.  1.
         25    2    1    2    0    0  0.32721929659E+01 -0.24498814552E+02 -0.47247127861E+03  0.48937473776E+03  0.12509046998E+03 0.  0.
          5    1    3    3  502    0  0.16699783662E+02 -0.96605316419E+01 -0.46804017365E+03  0.46845627885E+03  0.41800000000E+01 0.  1.
         -5    1    3    3    0  502 -0.13427590696E+02 -0.14838282910E+02 -0.44311049591E+01  0.20918458901E+02  0.41800000000E+01 0.  1.
        -11    1    1    2    0    0  0.23683489124E+02 -0.11485629402E+02 -0.14655508068E+02  0.30126587205E+02  0.00000000000E+00 0. -1.
         11    1    1    2    0    0 -0.26955682090E+02  0.35984443954E+02 -0.17185476762E+03  0.17763881940E+03  0.00000000000E+00 0.  1.
</event>
<event>
 7    1  0.2626349E-009  0.1650303E+03  0.7561462E-02  0.1183132E+00
          2   -1    0    0  501    0  0.00000000000E+00  0.00000000000E+00  0.26352134504E+03  0.26352134504E+03  0.00000000000E+00 0.  1.
         -2   -1    0    0    0  501 -0.00000000000E+00 -0.00000000000E+00 -0.14120921866E+03  0.14120921866E+03  0.00000000000E+00 0. -1.
         25    2    1    2    0    0 -0.46597959489E+02  0.14524258180E+03  0.11263127667E+03  0.22715574142E+03  0.12508856454E+03 0.  0.
          5    1    3    3  502    0 -0.16157049274E+02  0.61007057145E+02  0.12157791419E+03  0.13704587874E+03  0.41800000000E+01 0. -1.
         -5    1    3    3    0  502 -0.30440910216E+02  0.84235524650E+02 -0.89466375177E+01  0.90109862672E+02  0.41800000000E+01 0. -1.
        -11    1    1    2    0    0 -0.26693232104E+02 -0.26541336573E+02  0.51803595103E+01  0.37997464546E+02  0.00000000000E+00 0.  1.
         11    1    1    2    0    0  0.73291191593E+02 -0.11870124522E+03  0.45004901967E+01  0.13957735774E+03  0.00000000000E+00 0. -1.
</event>
<event>
 7    1  0.2783469E-009  0.1105062E+03  0.7561462E-02  0.1259635E+00
          1   -1    0    0  501    0  0.00000000000E+00  0.00000000000E+00  0.51676678678E+03  0.51676678678E+03  0.00000000000E+00 0. -1.
         -1   -1    0    0    0  501 -0.00000000000E+00 -0.00000000000E+00 -0.41819771102E+02  0.41819771102E+02  0.00000000000E+00 0.  1.
         25    2    1    2    0    0  0.96590141666E+02  0.22404593416E+01  0.29708260157E+03  0.33651140016E+03  0.12508866918E+03 0.  0.
          5    1    3    3  502    0  0.48483914616E+02 -0.36049372422E+02  0.41041213758E+02  0.73158053933E+02  0.41800000000E+01 0. -1.
         -5    1    3    3    0  502  0.48106227050E+02  0.38289831763E+02  0.25604138781E+03  0.26335334623E+03  0.41800000000E+01 0. -1.
        -11    1    1    2    0    0 -0.46365414496E+02  0.93048180682E+01  0.12567894680E+02  0.48931414013E+02  0.00000000000E+00 0.  1.
         11    1    1    2    0    0 -0.50224727170E+02 -0.11545277410E+02  0.16529651943E+03  0.17314374371E+03  0.00000000000E+00 0. -1.
</event>
<event>
 7    1  0.2879519E-009  0.9494007E+02  0.7561462E-02  0.1291311E+00
          2   -1    0    0  501    0  0.00000000000E+00  0.00000000000E+00  0.21663202155E+03  0.21663202155E+03  0.00000000000E+00 0. -1.
         -2   -1    0    0    0  501 -0.00000000000E+00 -0.00000000000E+00 -0.61399078206E+02  0.61399078206E+02  0.00000000000E+00 0.  1.
         25    2    1    2    0    0 -0.36224775310E+02  0.10255519678E+02  0.72718642226E+02  0.14950364468E+03  0.12508368725E+03 0.  0.
          5    1    3    3  502    0 -0.68428136219E+02 -0.34375726309E+01  0.87564405030E+02  0.11126196187E+03  0.41800000000E+01 0. -1.
         -5    1    3    3    0  502  0.32203360909E+02  0.13693092309E+02 -0.14845762804E+02  0.38241682809E+02  0.41800000000E+01 0. -1.
        -11    1    1    2    0    0 -0.77892273180E+01  0.27143163062E+02  0.53299477011E+00  0.28243715171E+02  0.00000000000E+00 0.  1.
         11    1    1    2    0    0  0.44014002628E+02 -0.37398682741E+02  0.81981306344E+02  0.10028373990E+03  0.00000000000E+00 0. -1.
</event>
<event>
 7    1  0.2626349E-009  0.7712942E+02  0.7561462E-02  0.1337401E+00
          1   -1    0    0  501    0  0.00000000000E+00  0.00000000000E+00  0.43558668869E+03  0.43558668869E+03  0.00000000000E+00 0. -1.
         -1   -1    0    0    0  501 -0.00000000000E+00 -0.00000000000E+00 -0.36088024907E+02  0.36088024907E+02  0.00000000000E+00 0.  1.
         25    2    1    2    0    0 -0.16980201910E+02 -0.56219384368E+02  0.26186902352E+03  0.29609414704E+03  0.12508961586E+03 0.  0.
          5    1    3    3  502    0 -0.74040248150E+01 -0.47619363819E+02  0.17636971212E+02  0.51487460099E+02  0.41800000000E+01 0. -1.
         -5    1    3    3    0  502 -0.95761770952E+01 -0.86000205496E+01  0.24423205231E+03  0.24460668694E+03  0.41800000000E+01 0. -1.
        -11    1    1    2    0    0  0.18534062546E+02 -0.13302866696E+02  0.16772058753E+01  0.22875549312E+02  0.00000000000E+00 0.  1.
         11    1    1    2    0    0 -0.15538606356E+01  0.69522251064E+02  0.13595243439E+03  0.15270501725E+03  0.00000000000E+00 0. -1.
</event>
<event>
 7    1  0.2626349E-009  0.1036989E+03  0.7561462E-02  0.1272704E+00
          2   -1    0    0  501    0  0.00000000000E+00  0.00000000000E+00  0.16846105396E+04  0.16846105396E+04  0.00000000000E+00 0. -1.
         -2   -1    0    0    0  501 -0.00000000000E+00 -0.00000000000E+00 -0.12013391143E+02  0.12013391143E+02  0.00000000000E+00 0.  1.
         25    2    1    2    0    0  0.41080499117E+02 -0.33283147235E+02  0.13608996806E+04  0.13676583086E+04  0.12508370469E+03 0.  0.
          5    1    3    3  502    0  0.37180312652E+02 -0.80135424113E+02  0.85527318558E+03  0.85983356309E+03  0.41800000000E+01 0.  1.
         -5    1    3    3    0  502  0.39001864651E+01  0.46852276877E+02  0.50562649503E+03  0.50782474554E+03  0.41800000000E+01 0.  1.
        -11    1    1    2    0    0 -0.42411403447E+02  0.43910626401E+02  0.31232630154E+03  0.31823668690E+03  0.00000000000E+00 0. -1.
         11    1    1    2    0    0  0.13309043302E+01 -0.10627479166E+02 -0.62883366477E+00  0.10728935247E+02  0.00000000000E+00 0.  1.
</event>
<event>
 7    1  0.2626349E-009  0.2105973E+03  0.7561462E-02  0.1141094E+00
         -2   -1    0    0    0  501 -0.00000000000E+00  0.00000000000E+00  0.42089857997E+03  0.42089857997E+03  0.00000000000E+00 0.  1.
          2   -1    0    0  501    0  0.00000000000E+00 -0.00000000000E+00 -0.13392740400E+03  0.13392740400E+03  0.00000000000E+00 0. -1.
         25    2    1    2    0    0  0.53782255290E+02 -0.20300279540E+03  0.15001207480E+03  0.28679715782E+03  0.12508525584E+03 0.  0.
          5    1    3    3  502    0  0.30573659633E+00 -0.10051709077E+02  0.70477231148E+02  0.71313693219E+02  0.41800000000E+01 0.  1.
         -5    1    3    3    0  502  0.53476518694E+02 -0.19295108632E+03  0.79534843650E+02  0.21548346460E+03  0.41800000000E+01 0.  1.
        -11    1    1    2    0    0 -0.14960948188E+02  0.62824317615E+02 -0.50091004317E+01  0.64775118229E+02  0.00000000000E+00 0. -1.
         11    1    1    2    0    0 -0.38821307102E+02  0.14017847778E+03  0.14196820161E+03  0.20325370793E+03  0.00000000000E+00 0.  1.
</event>
<event>
 7    1  0.2626349E-009  0.1067078E+03  0.7561462E-02  0.1266791E+00
          2   -1    0    0  501    0  0.00000000000E+00  0.00000000000E+00  0.74563235574E+03  0.74563235574E+03  0.00000000000E+00 0. -1.
         -2   -1    0    0    0  501 -0.00000000000E+00 -0.00000000000E+00 -0.16450204846E+02  0.16450204846E+02  0.00000000000E+00 0.  1.
         25    2    1    2    0    0  0.31473181994E+01 -0.28494557950E+02  0.38267649012E+03  0.40362045353E+03  0.12508528679E+03 0.  0.
          5    1    3    3  502    0 -0.34058233223E+02 -0.62804451484E+02  0.16080720747E+03  0.17601361525E+03  0.41800000000E+01 0. -1.
         -5    1    3    3    0  502  0.37205551423E+02  0.34309893534E+02  0.22186928265E+03  0.22760683828E+03  0.41800000000E+01 0. -1.
        -11    1    1    2    0    0  0.18260204201E+02  0.54444618429E+02  0.19578900728E+03  0.20403672931E+03  0.00000000000E+00 0. -1.
         11    1    1    2    0    0 -0.21407522401E+02 -0.25950060479E+02  0.15071665349E+03  0.15442537775E+03  0.00000000000E+00 0.  1.
</event>
<event>
 7    1  0.2626349E-009  0.1011608E+03  0.7561462E-02  0.1277874E+00
          1   -1    0    0  501    0  0.00000000000E+00  0.00000000000E+00  0.69069153906E+02  0.69069153906E+02  0.00000000000E+00 0. -1.
         -1   -1    0    0    0  501 -0.00000000000E+00 -0.00000000000E+00 -0.25593782704E+03  0.25593782704E+03  0.00000000000E+00 0.  1.
         25    2    1    2    0    0 -0.47861182739E+02  0.39972318033E+02 -0.15599127376E+03  0.20944792672E+03  0.12508667994E+03 0.  0.
          5    1    3    3  502    0  0.15797116063E+02  0.17828702640E+02 -0.13725267531E+03  0.13936707213E+03  0.41800000000E+01 0. -1.
         -5    1    3    3    0  502 -0.63658298802E+02  0.22143615394E+02 -0.18738598449E+02  0.70080854596E+02  0.41800000000E+01 0. -1.
        -11    1    1    2    0    0  0.75397258948E+02 -0.32287835547E+02 -0.16925339189E+02  0.83747943783E+02  0.00000000000E+00 0. -1.
         11    1    1    2    0    0 -0.27536076209E+02 -0.76844824864E+01 -0.13952060188E+02  0.31811110442E+02  0.00000000000E+00 0.  1.
</event>
<event>
 7    1  0.2626349E-009  0.1729408E+03  0.7561462E-02  0.1174815E+00
          2   -1    0    0  501    0  0.00000000000E+00  0.00000000000E+00  0.18236584799E+04  0.18236584799E+04  0.00000000000E+00 0. -1.
         -2   -1    0    0    0  501 -0.00000000000E+00 -0.00000000000E+00 -0.21391180462E+02  0.21391180462E+02  0.00000000000E+00 0.  1.
         25    2    1    2    0    0 -0.14739968965E+03  0.43081740757E+02  0.12169447544E+04  0.12329579057E+04  0.12509179420E+03 0.  0.
          5    1    3    3  502    0 -0.60961066085E+02  0.60524525610E+02  0.30945261377E+03  0.32118197699E+03  0.41800000000E+01 0.  1.
         -5    1    3    3    0  502 -0.86438623565E+02 -0.17442784854E+02  0.90749214065E+03  0.91177592868E+03  0.41800000000E+01 0.  1.
        -11    1    1    2    0    0  0.11449123218E+03  0.35211786358E+01  0.30005690224E+03  0.32117718712E+03  0.00000000000E+00 0.  1.
         11    1    1    2    0    0  0.32908457474E+02 -0.46602919393E+02  0.28526564280E+03  0.29091456759E+03  0.00000000000E+00 0. -1.
</event>
<event>
 7    1  0.2626349E-009  0.1852425E+03  0.7561462E-02  0.1162824E+00
         -1   -1    0    0    0  501 -0.00000000000E+00  0.00000000000E+00  0.14975529284E+03  0.14975529284E+03  0.00000000000E+00 0.  1.
          1   -1    0    0  501    0  0.00000000000E+00 -0.00000000000E+00 -0.32506255554E+03  0.32506255554E+03  0.00000000000E+00 0. -1.
         25    2    1    2    0    0 -0.41500286130E+01 -0.16433409894E+03 -0.19811443069E+03  0.28621615814E+03  0.12508973866E+03 0.  0.
          5    1    3    3  502    0  0.41249672064E+02 -0.66963590829E+01 -0.32844304066E+02  0.53316014291E+02  0.41800000000E+01 0. -1.
         -5    1    3    3    0  502 -0.45399700677E+02 -0.15763773986E+03 -0.16527012662E+03  0.23290014384E+03  0.41800000000E+01 0. -1.
        -11    1    1    2    0    0  0.21368683629E+01  0.10033949073E+03  0.57616371287E+02  0.11572478492E+03  0.00000000000E+00 0.  1.
         11    1    1    2    0    0  0.20131602501E+01  0.63994608212E+02 -0.34809203301E+02  0.72876905319E+02  0.00000000000E+00 0. -1.
</event>
<event>
 7    1  0.2626349E-009  0.1536660E+03  0.7561462E-02  0.1196039E+00
          1   -1    0    0  501    0  0.00000000000E+00  0.00000000000E+00  0.57775850166E+03  0.57775850166E+03  0.00000000000E+00 0. -1.
         -1   -1    0    0    0  501 -0.00000000000E+00 -0.00000000000E+00 -0.48725464991E+02  0.48725464991E+02  0.00000000000E+00 0.  1.
         25    2    1    2    0    0 -0.33894552357E+02  0.12128047443E+03  0.31057818883E+03  0.35772066959E+03  0.12508985536E+03 0.  0.
          5    1    3    3  502    0  0.27930644101E+02  0.10113259354E+03  0.23829613195E+03  0.26040438025E+03  0.41800000000E+01 0. -1.
         -5    1    3    3    0  502 -0.61825196458E+02  0.20147880894E+02  0.72282056885E+02  0.97316289331E+02  0.41800000000E+01 0. -1.
        -11    1    1    2    0    0 -0.10347125550E+02 -0.63809595444E+02  0.16910291369E+03  0.18103735222E+03  0.00000000000E+00 0. -1.
         11    1    1    2    0    0  0.44241677907E+02 -0.57470878987E+02  0.49351934143E+02  0.87725944847E+02  0.00000000000E+00 0.  1.
</event>
<event>
 7    1  0.2626349E-009  0.1447567E+03  0.7561462E-02  0.1207068E+00
         -1   -1    0    0    0  501 -0.00000000000E+00  0.00000000000E+00  0.25537422889E+02  0.25537422889E+02  0.00000000000E+00 0.  1.
          1   -1    0    0  501    0  0.00000000000E+00 -0.00000000000E+00 -0.11928960488E+04  0.11928960488E+04  0.00000000000E+00 0. -1.
         25    2    1    2    0    0  0.17465920927E+02  0.12680559280E+03 -0.45962271989E+03  0.49323878984E+03  0.12508693940E+03 0.  0.
          5    1    3    3  502    0 -0.81780910679E+01  0.61203725485E+02 -0.55901683969E+02  0.83398128620E+02  0.41800000000E+01 0. -1.
         -5    1    3    3    0  502  0.25644011995E+02  0.65601867314E+02 -0.40372103592E+03  0.40984066122E+03  0.41800000000E+01 0. -1.
        -11    1    1    2    0    0 -0.33913619811E+02 -0.51503175089E+01 -0.12189076583E+03  0.12662550365E+03  0.00000000000E+00 0. -1.
         11    1    1    2    0    0  0.16447698884E+02 -0.12165527529E+03 -0.58584514017E+03  0.59856917818E+03  0.00000000000E+00 0.  1.
</event>
<event>
 7    1  0.2626349E-009  0.1211000E+03  0.7561462E-02  0.1241293E+00
          1   -1    0    0  501    0  0.00000000000E+00  0.00000000000E+00  0.35606885744E+03  0.35606885744E+03  0.00000000000E+00 0. -1.
         -1   -1    0    0    0  501 -0.00000000000E+00 -0.00000000000E+00 -0.51504980131E+02  0.51504980131E+02  0.00000000000E+00 0.  1.
         25    2    1    2    0    0  0.67921450673E+02  0.22556671913E+02  0.21841995421E+03  0.26168391184E+03  0.12509622860E+03 0.  0.
          5    1    3    3  502    0 -0.30689947423E+02  0.18078213911E+02  0.10658399476E+03  0.11245583591E+03  0.41800000000E+01 0.  1.
         -5    1    3    3    0  502  0.98611398096E+02  0.44784580017E+01  0.11183595945E+03  0.14922807594E+03  0.41800000000E+01 0.  1.
        -11    1    1    2    0    0 -0.73644566181E+02 -0.43697944904E+02  0.89343795509E+02  0.12375518701E+03  0.00000000000E+00 0. -1.
         11    1    1    2    0    0  0.57231155087E+01  0.21141272990E+02 -0.31998724065E+01  0.22134738720E+02  0.00000000000E+00 0.  1.
</event>
<event>
 7    1  0.3162607E-009  0.1755562E+03  0.7561462E-02  0.1172174E+00
          1   -1    0    0  501    0  0.00000000000E+00  0.00000000000E+00  0.57315161768E+03  0.57315161768E+03  0.00000000000E+00 0. -1.
         -1   -1    0    0    0  501 -0.00000000000E+00 -0.00000000000E+00 -0.54470154461E+02  0.54470154461E+02  0.00000000000E+00 0.  1.
         25    2    1    2    0    0 -0.89301136227E+02 -0.10510177380E+03  0.30650227545E+03  0.35862448611E+03  0.12508717517E+03 0.  0.
          5    1    3    3  502    0  0.25470819767E+02 -0.54629073726E+02  0.89916672865E+02  0.10833087655E+03  0.41800000000E+01 0.  1.
         -5    1    3    3    0  502 -0.11477195599E+03 -0.50472700071E+02  0.21658560259E+03  0.25029360955E+03  0.41800000000E+01 0.  1.
        -11    1    1    2    0    0  0.82079317908E+02  0.26414530724E+02  0.10595031623E+03  0.13660238420E+03  0.00000000000E+00 0.  1.
         11    1    1    2    0    0  0.72218183185E+01  0.78687243073E+02  0.10622887155E+03  0.13239490184E+03  0.00000000000E+00 0. -1.
</event>
<event>
 7    1  0.2626349E-009  0.9469623E+02  0.7561462E-02  0.1291862E+00
         -2   -1    0    0    0  501 -0.00000000000E+00  0.00000000000E+00  0.32624732460E+02  0.32624732460E+02  0.00000000000E+00 0. -1.
          2   -1    0    0  501    0  0.00000000000E+00 -0.00000000000E+00 -0.47135835044E+03  0.47135835044E+03  0.00000000000E+00 0.  1.
         25    2    1    2    0    0  0.29868382190E+02  0.12528105626E+02 -0.14395277112E+03  0.19344225630E+03  0.12509369498E+03 0.  0.
          5    1    3    3  502    0 -0.74866777452E+01  0.46929056182E+02 -0.13303750050E+03  0.14133235863E+03  0.41800000000E+01 0.  1.
         -5    1    3    3    0  502  0.37355059936E+02 -0.34400950556E+02 -0.10915270617E+02  0.52109897665E+02  0.41800000000E+01 0.  1.
        -11    1    1    2    0    0 -0.15741132273E+02 -0.49081652858E+02 -0.22173065742E+03  0.22764287016E+03  0.00000000000E+00 0.  1.
         11    1    1    2    0    0 -0.14127249917E+02  0.36553547232E+02 -0.73050189439E+02  0.82897956444E+02  0.00000000000E+00 0. -1.
</event>
<event>
 7    1  0.2626349E-009  0.1260652E+03  0.7561462E-02  0.1233414E+00
         -1   -1    0    0    0  501 -0.00000000000E+00  0.00000000000E+00  0.41255619911E+02  0.41255619911E+02  0.00000000000E+00 0.  1.
          1   -1    0    0  501    0  0.00000000000E+00 -0.00000000000E+00 -0.48778729037E+03  0.48778729037E+03  0.00000000000E+00 0. -1.
         25    2    1    2    0    0  0.54975029374E+02  0.56996576751E+02 -0.17009450400E+03  0.22550019887E+03  0.12508931123E+03 0.  0.
          5    1    3    3  502    0  0.21206191897E+02  0.90624236129E+02 -0.77136359633E+02  0.12095431008E+03  0.41800000000E+01 0.  1.
         -5    1    3    3    0  502  0.33768837477E+02 -0.33627659378E+02 -0.92958144367E+02  0.10454588880E+03  0.41800000000E+01 0.  1.
        -11    1    1    2    0    0  0.17921978177E+02 -0.26756836569E+02 -0.27346751055E+02  0.42248910024E+02  0.00000000000E+00 0.  1.
         11    1    1    2    0    0 -0.72897007552E+02 -0.30239740182E+02 -0.24909041541E+03  0.26129380139E+03  0.00000000000E+00 0. -1.
</event>
<event>
 7    1  0.2626349E-009  0.1435569E+03  0.7561462E-02  0.1208622E+00
          2   -1    0    0  501    0  0.00000000000E+00  0.00000000000E+00  0.45431735508E+03  0.45431735508E+03  0.00000000000E+00 0. -1.
         -2   -1    0    0    0  501 -0.00000000000E+00 -0.00000000000E+00 -0.58124410550E+02  0.58124410550E+02  0.00000000000E+00 0.  1.
         25    2    1    2    0    0 -0.99770888510E+02  0.55343903409E+02  0.27149430793E+03  0.31995572576E+03  0.12508129105E+03 0.  0.
          5    1    3    3  502    0 -0.20505037859E+02 -0.30991918478E+02  0.13457690861E+03  0.13967595469E+03  0.41800000000E+01 0. -1.
         -5    1    3    3    0  502 -0.79265850651E+02  0.86335821888E+02  0.13691739932E+03  0.18027977107E+03  0.41800000000E+01 0. -1.
        -11    1    1    2    0    0  0.10271512660E+03 -0.65528331951E+02  0.78154327706E+02  0.14474964062E+03  0.00000000000E+00 0.  1.
         11    1    1    2    0    0 -0.29442380868E+01  0.10184428541E+02  0.46544308896E+02  0.47736399248E+02  0.00000000000E+00 0. -1.
</event>
<event>
 7    1  0.2626349E-009  0.1030913E+03  0.7561462E-02  0.1273927E+00
          2   -1    0    0  501    0  0.00000000000E+00  0.00000000000E+00  0.60085183358E+03  0.60085183358E+03  0.00000000000E+00 0. -1.
         -2   -1    0    0    0  501 -0.00000000000E+00 -0.00000000000E+00 -0.21990747441E+02  0.21990747441E+02  0.00000000000E+00 0.  1.
         25    2    1    2    0    0 -0.20353968916E+02 -0.37559004508E+01  0.24731795417E+03  0.27792465769E+03  0.12509018368E+03 0.  0.
          5    1    3    3  502    0  0.44675970145E+02 -0.16585070789E+02  0.16693400882E+03  0.17365322509E+03  0.41800000000E+01 0. -1.
         -5    1    3    3    0  502 -0.65029939061E+02  0.12829170339E+02  0.80383945349E+02  0.10427143260E+03  0.41800000000E+01 0. -1.
        -11    1    1    2    0    0  0.49337848519E+02  0.25648683521E+02  0.24161432354E+03  0.24793055399E+03  0.00000000000E+00 0. -1.
         11    1    1    2    0    0 -0.28983879604E+02 -0.21892783070E+02  0.89928808423E+02  0.96987369342E+02  0.00000000000E+00 0.  1.
</event>
<event>
 7    1  0.2626349E-009  0.1473204E+03  0.7561462E-02  0.1203805E+00
         -4   -1    0    0    0  501 -0.00000000000E+00  0.00000000000E+00  0.50956957656E+02  0.50956957656E+02  0.00000000000E+00 0. -1.
          4   -1    0    0  501    0  0.00000000000E+00 -0.00000000000E+00 -0.50400900230E+03  0.50400900230E+03  0.00000000000E+00 0.  1.
         25    2    1    2    0    0 -0.11327080944E+03 -0.28014182979E+02 -0.26656250991E+03  0.31673097253E+03  0.12509143277E+03 0.  0.
          5    1    3    3  502    0 -0.11365266450E+03  0.60878389534E+01 -0.25693796792E+03  0.28104907345E+03  0.41800000000E+01 0.  1.
         -5    1    3    3    0  502  0.38185506171E+00 -0.34102021932E+02 -0.96245419918E+01  0.35681899076E+02  0.41800000000E+01 0.  1.
        -11    1    1    2    0    0  0.10691966286E+03 -0.10426877037E+02 -0.15244786406E+03  0.18649634132E+03  0.00000000000E+00 0.  1.
         11    1    1    2    0    0  0.63511465782E+01  0.38441060015E+02 -0.34041670675E+02  0.51738646101E+02  0.00000000000E+00 0. -1.
</event>
<event>
 7    1  0.2626349E-009  0.9891241E+02  0.7561462E-02  0.1282600E+00
          1   -1    0    0  501    0  0.00000000000E+00  0.00000000000E+00  0.50457608553E+03  0.50457608553E+03  0.00000000000E+00 0. -1.
         -1   -1    0    0    0  501 -0.00000000000E+00 -0.00000000000E+00 -0.27676886600E+02  0.27676886600E+02  0.00000000000E+00 0.  1.
         25    2    1    2    0    0  0.17680740740E+02  0.33947610196E+02  0.33993331116E+03  0.36423533841E+03  0.12509067463E+03 0.  0.
          5    1    3    3  502    0 -0.48402936066E+02  0.36912848421E+02  0.20522585639E+03  0.21410401007E+03  0.41800000000E+01 0.  1.
         -5    1    3    3    0  502  0.66083676805E+02 -0.29652382252E+01  0.13470745477E+03  0.15013132834E+03  0.41800000000E+01 0.  1.
        -11    1    1    2    0    0 -0.37496509350E+02 -0.88083068099E+01  0.14046310504E+02  0.40998455105E+02  0.00000000000E+00 0.  1.
         11    1    1    2    0    0  0.19815768610E+02 -0.25139303386E+02  0.12291957726E+03  0.12701917861E+03  0.00000000000E+00 0. -1.
</event>
<event>
 7    1  0.2626349E-009  0.9724573E+02  0.7561462E-02  0.1286197E+00
         -2   -1    0    0    0  501 -0.00000000000E+00  0.00000000000E+00  0.85873686103E+02  0.85873686103E+02  0.00000000000E+00 0.  1.
          2   -1    0    0  501    0  0.00000000000E+00 -0.00000000000E+00 -0.20838644582E+03  0.20838644582E+03  0.00000000000E+00 0. -1.
         25    2    1    2    0    0 -0.59053867473E+02 -0.45862249024E+02 -0.10704681909E+03  0.18082318123E+03  0.12508915319E+03 0.  0.
          5    1    3    3  502    0  0.18286879809E+01  0.21952492091E+02  0.16072268830E+02  0.27587066427E+02  0.41800000000E+01 0.  1.
         -5    1    3    3    0  502 -0.60882555453E+02 -0.67814741114E+02 -0.12311908792E+03  0.15323611480E+03  0.41800000000E+01 0.  1.
        -11    1    1    2    0    0  0.37465242315E+02  0.45902120645E+02  0.27523353482E+02  0.65331340476E+02  0.00000000000E+00 0.  1.
         11    1    1    2    0    0  0.21588625157E+02 -0.39871621830E-01 -0.42989294117E+02  0.48105610220E+02  0.00000000000E+00 0. -1.
</event>
<event>
 7    1  0.2626349E-009  0.1066214E+03  0.7561462E-02  0.1266958E+00
          1   -1    0    0  501    0  0.00000000000E+00  0.00000000000E+00  0.19309421116E+03  0.19309421116E+03  0.00000000000E+00 0. -1.
         -1   -1    0    0    0  501 -0.00000000000E+00 -0.00000000000E+00 -0.79798013092E+02  0.79798013092E+02  0.00000000000E+00 0.  1.
         25    2    1    2    0    0 -0.55921453870E+02 -0.70945637038E+01  0.86084414766E+02  0.16197424111E+03  0.12509031329E+03 0.  0.
          5    1    3    3  502    0  0.19336141307E+02 -0.32267228625E+02 -0.81397767792E+01  0.38714193389E+02  0.41800000000E+01 0.  1.
         -5    1    3    3    0  502 -0.75257595176E+02  0.25172664921E+02  0.94224191545E+02  0.12326004772E+03  0.41800000000E+01 0.  1.
        -11    1    1    2    0    0 -0.10999599243E+02 -0.20718530073E+02 -0.14228830664E+02  0.27435529773E+02  0.00000000000E+00 0.  1.
         11    1    1    2    0    0  0.66921053113E+02  0.27813093776E+02  0.41440613964E+02  0.83482453371E+02  0.00000000000E+00 0. -1.
</event>
<event>
 7    1  0.2626349E-009  0.1655729E+03  0.7561462E-02  0.1182545E+00
          2   -1    0    0  501    0  0.00000000000E+00  0.00000000000E+00  0.15519107996E+04  0.15519107996E+04  0.00000000000E+00 0. -1.
         -2   -1    0    0    0  501 -0.00000000000E+00 -0.00000000000E+00 -0.18698669759E+02  0.18698669759E+02  0.00000000000E+00 0.  1.
         25    2    1    2    0    0  0.12386022681E+03 -0.37442412691E+02  0.82110178910E+03  0.84059520311E+03  0.12509539311E+03 0.  0.
          5    1    3    3  502    0  0.11615907503E+03  0.20041858961E+02  0.62589701858E+03  0.63691377523E+03  0.41800000000E+01 0. -1.
         -5    1    3    3    0  502  0.77011517838E+01 -0.57484271653E+02  0.19520477053E+03  0.20368142788E+03  0.41800000000E+01 0. -1.
        -11    1    1    2    0    0 -0.22514949757E+02  0.48134815772E+02  0.16047192523E+03  0.16904177661E+03  0.00000000000E+00 0.  1.
         11    1    1    2    0    0 -0.10134527705E+03 -0.10692403080E+02  0.55163841555E+03  0.56097248968E+03  0.00000000000E+00 0. -1.
</event>
<event>
 7    1  0.2626349E-009  0.1247844E+03  0.7561462E-02  0.1235407E+00
         -1   -1    0    0    0  501 -0.00000000000E+00  0.00000000000E+00  0.84004014071E+02  0.84004014071E+02  0.00000000000E+00 0.  1.
          1   -1    0    0  501    0  0.00000000000E+00 -0.00000000000E+00 -0.29872509456E+03  0.29872509456E+03  0.00000000000E+00 0. -1.
         25    2    1    2    0    0  0.96349989501E+02  0.52092698932E+01 -0.19059107226E+03  0.24755577661E+03  0.12509375980E+03 0.  0.
          5    1    3    3  502    0 -0.51277860287E+01  0.15001003146E+02  0.12270885770E+02  0.20478557628E+02  0.41800000000E+01 0.  1.
         -5    1    3    3    0  502  0.10147777553E+03 -0.97917332531E+01 -0.20286195803E+03  0.22707721899E+03  0.41800000000E+01 0.  1.
        -11    1    1    2    0    0 -0.57808001643E+02  0.41070182216E+02 -0.24257600103E+02  0.74946354707E+02  0.00000000000E+00 0.  1.
         11    1    1    2    0    0 -0.38541987859E+02 -0.46279452109E+02  0.12759187787E+00  0.60226977305E+02  0.00000000000E+00 0. -1.
</event>
<event>
 7    1  0.2626349E-009  0.1400533E+03  0.7561462E-02  0.1213257E+00
         -1   -1    0    0    0  501 -0.00000000000E+00  0.00000000000E+00  0.41696068838E+02  0.41696068838E+02  0.00000000000E+00 0.  1.
          1   -1    0    0  501    0  0.00000000000E+00 -0.00000000000E+00 -0.52089574450E+03  0.52089574450E+03  0.00000000000E+00 0. -1.
         25    2    1    2    0    0 -0.99840165211E+02  0.89490772604E+01 -0.24767295017E+03  0.29502069319E+03  0.12508866691E+03 0.  0.
          5    1    3    3  502    0 -0.97088600109E+02  0.47162733916E+02 -0.22675743796E+03  0.25117111261E+03  0.41800000000E+01 0. -1.
         -5    1    3    3    0  502 -0.27515651023E+01 -0.38213656655E+02 -0.20915512215E+02  0.43849580576E+02  0.41800000000E+01 0. -1.
        -11    1    1    2    0    0  0.49212495802E+02  0.39779849557E+02 -0.12214161595E+03  0.13756046133E+03  0.00000000000E+00 0.  1.
         11    1    1    2    0    0  0.50627669409E+02 -0.48728926817E+02 -0.10938510954E+03  0.13001065882E+03  0.00000000000E+00 0. -1.
</event>
<event>
 7    1  0.2626349E-009  0.2163028E+03  0.7561462E-02  0.1136670E+00
          1   -1    0    0  501    0  0.00000000000E+00  0.00000000000E+00  0.17092672937E+03  0.17092672937E+03  0.00000000000E+00 0. -1.
         -1   -1    0    0    0  501 -0.00000000000E+00 -0.00000000000E+00 -0.33227310378E+03  0.33227310378E+03  0.00000000000E+00 0.  1.
         25    2    1    2    0    0 -0.19895865298E+03  0.15794177337E+02 -0.69760970968E+01  0.23565547986E+03  0.12510330781E+03 0.  0.
          5    1    3    3  502    0 -0.60966513138E+02 -0.50815627086E+02  0.14764159206E+02  0.80836850986E+02  0.41800000000E+01 0. -1.
         -5    1    3    3    0  502 -0.13799213984E+03  0.66609804423E+02 -0.21740256303E+02  0.15481862888E+03  0.41800000000E+01 0. -1.
        -11    1    1    2    0    0  0.11341236972E+03 -0.39460337478E+01 -0.13963577729E+03  0.17993356298E+03  0.00000000000E+00 0.  1.
         11    1    1    2    0    0  0.85546283260E+02 -0.11848143589E+02 -0.14734500021E+02  0.87610790300E+02  0.00000000000E+00 0. -1.
</event>
<event>
 7    1  0.2626349E-009  0.1423267E+03  0.7561462E-02  0.1210232E+00
          1   -1    0    0  501    0  0.00000000000E+00  0.00000000000E+00  0.10033166766E+04  0.10033166766E+04  0.00000000000E+00 0. -1.
         -1   -1    0    0    0  501 -0.00000000000E+00 -0.00000000000E+00 -0.36495183258E+02  0.36495183258E+02  0.00000000000E+00 0.  1.
         25    2    1    2    0    0  0.98761741013E+02 -0.94678546437E+02  0.71693938538E+03  0.74051804871E+03  0.12508792717E+03 0.  0.
          5    1    3    3  502    0  0.61404421542E+01 -0.32595780392E+02  0.31097555788E+02  0.45658737446E+02  0.41800000000E+01 0. -1.
         -5    1    3    3    0  502  0.92621298859E+02 -0.62082766045E+02  0.68584182959E+03  0.69485931127E+03  0.41800000000E+01 0. -1.
        -11    1    1    2    0    0 -0.29229293818E+02  0.11964638586E+02  0.54605246120E+01  0.32051856774E+02  0.00000000000E+00 0.  1.
         11    1    1    2    0    0 -0.69532447195E+02  0.82713907851E+02  0.24442158332E+03  0.26724195434E+03  0.00000000000E+00 0. -1.
</event>
<event>
 7    1  0.2626349E-009  0.1391136E+03  0.7561462E-02  0.1214527E+00
          2   -1    0    0  501    0  0.00000000000E+00  0.00000000000E+00  0.13376277229E+04  0.13376277229E+04  0.00000000000E+00 0. -1.
         -2   -1    0    0    0  501 -0.00000000000E+00 -0.00000000000E+00 -0.15273358794E+02  0.15273358794E+02  0.00000000000E+00 0.  1.
         25    2    1    2    0    0 -0.18455116390E+02  0.55595307370E+02  0.52968974603E+03  0.54740357329E+03  0.12509202803E+03 0.  0.
          5    1    3    3  502    0 -0.17401114225E+02 -0.37675118745E+02  0.11494027703E+03  0.12227408979E+03  0.41800000000E+01 0.  1.
         -5    1    3    3    0  502 -0.10540021649E+01  0.93270426115E+02  0.41474946900E+03  0.42512948351E+03  0.41800000000E+01 0.  1.
        -11    1    1    2    0    0 -0.50545077501E+02 -0.54231466954E+02  0.39864920305E+03  0.40548371602E+03  0.00000000000E+00 0.  1.
         11    1    1    2    0    0  0.69000193891E+02 -0.13638404156E+01  0.39401541500E+03  0.40001379236E+03  0.00000000000E+00 0. -1.
</event>
<event>
 7    1  0.2626349E-009  0.9664016E+02  0.7561462E-02  0.1287524E+00
          1   -1    0    0  501    0  0.00000000000E+00  0.00000000000E+00  0.16065904553E+03  0.16065904553E+03  0.00000000000E+00 0. -1.
         -1   -1    0    0    0  501 -0.00000000000E+00 -0.00000000000E+00 -0.84442242237E+02  0.84442242237E+02  0.00000000000E+00 0.  1.
         25    2    1    2    0    0  0.42656640474E+01  0.21082327847E+02  0.82521947134E+02  0.15139287928E+03  0.12508905508E+03 0.  0.
          5    1    3    3  502    0  0.58967602526E+02 -0.90643948322E+01  0.60401097030E+02  0.85000625432E+02  0.41800000000E+01 0.  1.
         -5    1    3    3    0  502 -0.54701938479E+02  0.30146722679E+02  0.22120850104E+02  0.66392253847E+02  0.41800000000E+01 0.  1.
        -11    1    1    2    0    0 -0.34768490661E+02 -0.20509548731E+02 -0.33792087182E+02  0.52644037537E+02  0.00000000000E+00 0.  1.
         11    1    1    2    0    0  0.30502826614E+02 -0.57277911519E+00  0.27486943341E+02  0.41064370951E+02  0.00000000000E+00 0. -1.
</event>
<event>
 7    1  0.3078944E-009  0.1151114E+03  0.7561462E-02  0.1251387E+00
         -2   -1    0    0    0  501 -0.00000000000E+00  0.00000000000E+00  0.73542790609E+02  0.73542790609E+02  0.00000000000E+00 0.  1.
          2   -1    0    0  501    0  0.00000000000E+00 -0.00000000000E+00 -0.29811737512E+03  0.29811737512E+03  0.00000000000E+00 0. -1.
         25    2    1    2    0    0 -0.78022284271E+02  0.49286420894E+02 -0.71122850473E+02  0.17094341049E+03  0.12508621668E+03 0.  0.
          5    1    3    3  502    0 -0.82335511476E+02 -0.33461275598E+01 -0.82589339895E+02  0.11674247078E+03  0.41800000000E+01 0. -1.
         -5    1    3    3    0  502  0.43132272052E+01  0.52632548453E+02  0.11466489422E+02  0.54200939709E+02  0.41800000000E+01 0. -1.
        -11    1    1    2    0    0  0.58290504990E+02 -0.46994196217E+02 -0.16247599449E+03  0.17889853615E+03  0.00000000000E+00 0. -1.
         11    1    1    2    0    0  0.19731779282E+02 -0.22922246770E+01  0.90242604535E+01  0.21818219091E+02  0.00000000000E+00 0.  1.
</event>
<event>
 7    1  0.2626349E-009  0.1205776E+03  0.7561462E-02  0.1242147E+00
          1   -1    0    0  501    0  0.00000000000E+00  0.00000000000E+00  0.74835677102E+02  0.74835677102E+02  0.00000000000E+00 0.  1.
         -1   -1    0    0    0  501 -0.00000000000E+00 -0.00000000000E+00 -0.22007138436E+03  0.22007138436E+03  0.00000000000E+00 0. -1.
         25    2    1    2    0    0  0.59510864708E+02 -0.11510971310E+01 -0.40780508243E+02  0.14440666623E+03  0.12508943742E+03 0.  0.
          5    1    3    3  502    0 -0.30117086532E+02 -0.25891797991E+02  0.57530873413E+01  0.40348414075E+02  0.41800000000E+01 0. -1.
         -5    1    3    3    0  502  0.89627951241E+02  0.24740700860E+02 -0.46533595584E+02  0.10405825215E+03  0.41800000000E+01 0. -1.
        -11    1    1    2    0    0 -0.52069829054E+02 -0.40417729917E+02 -0.59122252884E+02  0.88545472924E+02  0.00000000000E+00 0.  1.
         11    1    1    2    0    0 -0.74410356546E+01  0.41568827048E+02 -0.45332946130E+02  0.61954922311E+02  0.00000000000E+00 0. -1.
</event>
<event>
 7    1  0.2626349E-009  0.1168344E+03  0.7561462E-02  0.1248413E+00
         -2   -1    0    0    0  501 -0.00000000000E+00  0.00000000000E+00  0.10256979817E+03  0.10256979817E+03  0.00000000000E+00 0.  1.
          2   -1    0    0  501    0  0.00000000000E+00 -0.00000000000E+00 -0.15890151605E+03  0.15890151605E+03  0.00000000000E+00 0. -1.
         25    2    1    2    0    0 -0.19089422315E+02 -0.61935355153E+02 -0.11304842137E+01  0.14088629985E+03  0.12508907717E+03 0.  0.
          5    1    3    3  502    0  0.42346287976E+02 -0.51121265004E+02  0.27684904026E+02  0.72045250724E+02  0.41800000000E+01 0. -1.
         -5    1    3    3    0  502 -0.61435710291E+02 -0.10814090149E+02 -0.28815388240E+02  0.68841049121E+02  0.41800000000E+01 0. -1.
        -11    1    1    2    0    0 -0.39676318331E+01 -0.19550955396E+02 -0.86835634947E+00  0.19968375046E+02  0.00000000000E+00 0.  1.
         11    1    1    2    0    0  0.23057054148E+02  0.81486310549E+02 -0.54332877308E+02  0.10061663933E+03  0.00000000000E+00 0. -1.
</event>
<event>
 7    1  0.2626349E-009  0.1415195E+03  0.7561462E-02  0.1211299E+00
         -1   -1    0    0    0  501 -0.00000000000E+00  0.00000000000E+00  0.53881700658E+03  0.53881700658E+03  0.00000000000E+00 0.  1.
          1   -1    0    0  501    0  0.00000000000E+00 -0.00000000000E+00 -0.49606020067E+02  0.49606020067E+02  0.00000000000E+00 0. -1.
         25    2    1    2    0    0 -0.54588643374E+02 -0.10642391731E+03  0.21513448135E+03  0.27610907724E+03  0.12508959712E+03 0.  0.
          5    1    3    3  502    0 -0.59749348331E+02 -0.12712399964E+03  0.21170584299E+03  0.25410102768E+03  0.41800000000E+01 0.  1.
         -5    1    3    3    0  502  0.51607049565E+01  0.20700082336E+02  0.34286383591E+01  0.22008049558E+02  0.41800000000E+01 0.  1.
        -11    1    1    2    0    0  0.24106907970E+02  0.65117028755E+02  0.24203706465E+03  0.25180014120E+03  0.00000000000E+00 0.  1.
         11    1    1    2    0    0  0.30481735405E+02  0.41306888552E+02  0.32039440511E+02  0.60513808204E+02  0.00000000000E+00 0. -1.
</event>
<event>
 7    1  0.2626349E-009  0.1102468E+03  0.7561462E-02  0.1260113E+00
          1   -1    0    0  501    0  0.00000000000E+00  0.00000000000E+00  0.58404375347E+03  0.58404375347E+03  0.00000000000E+00 0. -1.
         -1   -1    0    0    0  501 -0.00000000000E+00 -0.00000000000E+00 -0.40378652645E+02  0.40378652645E+02  0.00000000000E+00 0.  1.
         25    2    1    2    0    0 -0.98971549181E+02  0.23371712375E+02  0.21937245179E+03  0.27223876460E+03  0.12509223741E+03 0.  0.
          5    1    3    3  502    0 -0.60160326399E+02  0.17526091343E+02  0.22387069212E+03  0.23251233933E+03  0.41800000000E+01 0. -1.
         -5    1    3    3    0  502 -0.38811222783E+02  0.58456210322E+01 -0.44982403275E+01  0.39726425275E+02  0.41800000000E+01 0. -1.
        -11    1    1    2    0    0  0.66807966273E+02  0.14676411392E+02  0.26985614396E+03  0.27839008575E+03  0.00000000000E+00 0. -1.
         11    1    1    2    0    0  0.32163582908E+02 -0.38048123767E+02  0.54436505069E+02  0.73793555760E+02  0.00000000000E+00 0.  1.
</event>
<event>
 7    1  0.2626349E-009  0.1084127E+03  0.7561462E-02  0.1263538E+00
          2   -1    0    0  501    0  0.00000000000E+00  0.00000000000E+00  0.13780537062E+03  0.13780537062E+03  0.00000000000E+00 0.  1.
         -2   -1    0    0    0  501 -0.00000000000E+00 -0.00000000000E+00 -0.13184821957E+03  0.13184821957E+03  0.00000000000E+00 0. -1.
         25    2    1    2    0    0  0.23210135852E+02 -0.73988358232E+02  0.23720888252E+02  0.14907251300E+03  0.12508775332E+03 0.  0.
          5    1    3    3  502    0  0.21355681625E+02  0.13057656607E+02  0.51644534471E+02  0.57543008911E+02  0.41800000000E+01 0. -1.
         -5    1    3    3    0  502  0.18544542270E+01 -0.87046014840E+02 -0.27923646219E+02  0.91529504086E+02  0.41800000000E+01 0. -1.
        -11    1    1    2    0    0 -0.17249517088E+02  0.87673592685E+02  0.91330044242E+01  0.89819911288E+02  0.00000000000E+00 0.  1.
         11    1    1    2    0    0 -0.59606187641E+01 -0.13685234452E+02 -0.26896741620E+02  0.30761165905E+02  0.00000000000E+00 0. -1.
</event>
<event>
 7    1  0.2626349E-009  0.8433882E+02  0.7561462E-02  0.1317171E+00
          2   -1    0    0  501    0  0.00000000000E+00  0.00000000000E+00  0.62105822913E+02  0.62105822913E+02  0.00000000000E+00 0. -1.
         -2   -1    0    0    0  501 -0.00000000000E+00 -0.00000000000E+00 -0.17520958197E+03  0.17520958197E+03  0.00000000000E+00 0.  1.
         25    2    1    2    0    0  0.18298071390E+02  0.18985697270E+02 -0.10601131151E+03  0.16607367172E+03  0.12508713025E+03 0.  0.
          5    1    3    3  502    0  0.26436593737E+01 -0.48017875661E+02 -0.77865101928E+02  0.91614146375E+02  0.41800000000E+01 0.  1.
         -5    1    3    3    0  502  0.15654412016E+02  0.67003572931E+02 -0.28146209584E+02  0.74459525348E+02  0.41800000000E+01 0.  1.
        -11    1    1    2    0    0  0.13093149424E+02 -0.14867116382E+02 -0.27264101311E+02  0.33701527141E+02  0.00000000000E+00 0.  1.
         11    1    1    2    0    0 -0.31391220814E+02 -0.41185808879E+01  0.20171653761E+02  0.37540206022E+02  0.00000000000E+00 0. -1.
</event>
<event>
 7    1  0.2626349E-009  0.1056117E+03  0.7561462E-02  0.1268919E+00
          2   -1    0    0  501    0  0.00000000000E+00  0.00000000000E+00  0.26192367668E+03  0.26192367668E+03  0.00000000000E+00 0. -1.
         -2   -1    0    0    0  501 -0.00000000000E+00 -0.00000000000E+00 -0.46173616455E+02  0.46173616455E+02  0.00000000000E+00 0.  1.
         25    2    1    2    0    0  0.12223533619E+02  0.18045300148E+02  0.13108944765E+03  0.18250204561E+03  0.12508999055E+03 0.  0.
          5    1    3    3  502    0  0.34413922946E+02  0.61847154795E+02  0.47088190088E+02  0.85112623591E+02  0.41800000000E+01 0.  1.
         -5    1    3    3    0  502 -0.22190389326E+02 -0.43801854648E+02  0.84001257559E+02  0.97389422016E+02  0.41800000000E+01 0.  1.
        -11    1    1    2    0    0  0.16585908669E+02  0.30428062531E+02  0.20865982214E+02  0.40451805516E+02  0.00000000000E+00 0.  1.
         11    1    1    2    0    0 -0.28809442288E+02 -0.48473362678E+02  0.63794630363E+02  0.85143442011E+02  0.00000000000E+00 0. -1.
</event>
<event>
 7    1  0.2626349E-009  0.1511325E+03  0.7561462E-02  0.1199088E+00
         -2   -1    0    0    0  501 -0.00000000000E+00  0.00000000000E+00  0.28644754031E+02  0.28644754031E+02  0.00000000000E+00 0.  1.
          2   -1    0    0  501    0  0.00000000000E+00 -0.00000000000E+00 -0.86791988158E+03  0.86791988158E+03  0.00000000000E+00 0. -1.
         25    2    1    2    0    0  0.10520157465E+03  0.32045557826E+02 -0.36835097427E+03  0.40425883458E+03  0.12509386876E+03 0.  0.
          5    1    3    3  502    0  0.12056172021E+03 -0.72446911129E+01 -0.30461228274E+03  0.32770982458E+03  0.41800000000E+01 0.  1.
         -5    1    3    3    0  502 -0.15360145565E+02  0.39290248939E+02 -0.63738691530E+02  0.76549009996E+02  0.41800000000E+01 0.  1.
        -11    1    1    2    0    0 -0.28308261728E+02 -0.52330806603E+02 -0.14313613347E+03  0.15500910847E+03  0.00000000000E+00 0.  1.
         11    1    1    2    0    0 -0.76893312919E+02  0.20285248777E+02 -0.32778801980E+03  0.33729669257E+03  0.00000000000E+00 0. -1.
</event>
<event>
 7    1  0.2626349E-009  0.9462033E+02  0.7561462E-02  0.1292033E+00
         -2   -1    0    0    0  501 -0.00000000000E+00  0.00000000000E+00  0.25052176401E+03  0.25052176401E+03  0.00000000000E+00 0.  1.
          2   -1    0    0  501    0  0.00000000000E+00 -0.00000000000E+00 -0.54098018949E+02  0.54098018949E+02  0.00000000000E+00 0. -1.
         25    2    1    2    0    0  0.22060788712E+02  0.13572696340E+02  0.15299603389E+03  0.19931484085E+03  0.12509085862E+03 0.  0.
          5    1    3    3  502    0 -0.47003987011E+02  0.30147500692E+02  0.57902684211E+02  0.80550852458E+02  0.41800000000E+01 0.  1.
         -5    1    3    3    0  502  0.69064775723E+02 -0.16574804352E+02  0.95093349682E+02  0.11876398839E+03  0.41800000000E+01 0.  1.
        -11    1    1    2    0    0 -0.35579760041E+02 -0.25733687632E+02  0.64147828620E+02  0.77737287838E+02  0.00000000000E+00 0.  1.
         11    1    1    2    0    0  0.13518971328E+02  0.12160991292E+02 -0.20720117450E+02  0.27567654273E+02  0.00000000000E+00 0. -1.
</event>
<event>
 7    1  0.2626349E-009  0.1184096E+03  0.7561462E-02  0.1245744E+00
          1   -1    0    0  501    0  0.00000000000E+00  0.00000000000E+00  0.17008496919E+03  0.17008496919E+03  0.00000000000E+00 0. -1.
         -1   -1    0    0    0  501 -0.00000000000E+00 -0.00000000000E+00 -0.10317240660E+03  0.10317240660E+03  0.00000000000E+00 0.  1.
         25    2    1    2    0    0 -0.14014379018E+02 -0.69933369039E+02  0.65784224512E+02  0.15831860920E+03  0.12510051519E+03 0.  0.
          5    1    3    3  502    0 -0.59628643089E+02 -0.13222931266E+02  0.59136239018E+02  0.85117496163E+02  0.41800000000E+01 0. -1.
         -5    1    3    3    0  502  0.45614264071E+02 -0.56710437773E+02  0.66479854945E+01  0.73201113040E+02  0.41800000000E+01 0. -1.
        -11    1    1    2    0    0 -0.80412850645E+01  0.78594761753E+02  0.23422691029E+02  0.82404012618E+02  0.00000000000E+00 0. -1.
         11    1    1    2    0    0  0.22055664082E+02 -0.86613927144E+01 -0.22294352961E+02  0.32534753969E+02  0.00000000000E+00 0.  1.
</event>
<event>
 7    1  0.2626349E-009  0.6521968E+02  0.7561462E-02  0.1377147E+00
          1   -1    0    0  501    0  0.00000000000E+00  0.00000000000E+00  0.13031625226E+03  0.13031625226E+03  0.00000000000E+00 0. -1.
         -1   -1    0    0    0  501 -0.00000000000E+00 -0.00000000000E+00 -0.12904223361E+03  0.12904223361E+03  0.00000000000E+00 0.  1.
         25    2    1    2    0    0 -0.18712283441E+02  0.25899293801E+02  0.63066207316E+02  0.14368640791E+03  0.12509002495E+03 0.  0.
          5    1    3    3  502    0 -0.35187430253E+01  0.34305022397E+02  0.98260393028E+02  0.10421992781E+03  0.41800000000E+01 0.  1.
         -5    1    3    3    0  502 -0.15193540416E+02 -0.84057285963E+01 -0.35194185712E+02  0.39466480100E+02  0.41800000000E+01 0.  1.
        -11    1    1    2    0    0  0.55646364119E+01 -0.50042612481E+02 -0.70679349468E+02  0.86780174485E+02  0.00000000000E+00 0. -1.
         11    1    1    2    0    0  0.13147647029E+02  0.24143318680E+02  0.88871608097E+01  0.28891903477E+02  0.00000000000E+00 0.  1.
</event>
<event>
 7    1  0.2626349E-009  0.1108203E+03  0.7561462E-02  0.1259058E+00
         -3   -1    0    0    0  501 -0.00000000000E+00  0.00000000000E+00  0.11935797078E+02  0.11935797078E+02  0.00000000000E+00 0.  1.
          3   -1    0    0  501    0  0.00000000000E+00 -0.00000000000E+00 -0.10321192617E+04  0.10321192617E+04  0.00000000000E+00 0. -1.
         25    2    1    2    0    0  0.53556877037E+01  0.24911649296E+02 -0.60669916647E+03  0.61998443101E+03  0.12509013728E+03 0.  0.
          5    1    3    3  502    0 -0.57132204240E+02  0.30136879836E+02 -0.29649760130E+03  0.30348084003E+03  0.41800000000E+01 0. -1.
         -5    1    3    3    0  502  0.62487891943E+02 -0.52252305395E+01 -0.31020156517E+03  0.31650359098E+03  0.41800000000E+01 0. -1.
        -11    1    1    2    0    0 -0.28675410568E+02  0.25594817770E+02 -0.15961796693E+03  0.16418059945E+03  0.00000000000E+00 0. -1.
         11    1    1    2    0    0  0.23319722864E+02 -0.50506467066E+02 -0.25386633124E+03  0.25989002833E+03  0.00000000000E+00 0.  1.
</event>
<event>
 7    1  0.2626349E-009  0.7599301E+02  0.7561462E-02  0.1340823E+00
          2   -1    0    0  501    0  0.00000000000E+00  0.00000000000E+00  0.15405816932E+03  0.15405816932E+03  0.00000000000E+00 0. -1.
         -2   -1    0    0    0  501 -0.00000000000E+00 -0.00000000000E+00 -0.10356615072E+03  0.10356615072E+03  0.00000000000E+00 0.  1.
         25    2    1    2    0    0 -0.11441528835E+02 -0.44776571017E+02 -0.17504659010E+02  0.13449804891E+03  0.12508981645E+03 0.  0.
          5    1    3    3  502    0  0.22768884538E+01 -0.23514987155E+02  0.53699904728E+02  0.58815737773E+02  0.41800000000E+01 0. -1.
         -5    1    3    3    0  502 -0.13718417289E+02 -0.21261583862E+02 -0.71204563739E+02  0.75682311133E+02  0.41800000000E+01 0. -1.
        -11    1    1    2    0    0  0.51710537823E+02  0.26909316724E+02  0.43355107570E+02  0.72648168599E+02  0.00000000000E+00 0. -1.
         11    1    1    2    0    0 -0.40269008988E+02  0.17867254293E+02  0.24641570044E+02  0.50478102530E+02  0.00000000000E+00 0.  1.
</event>
<event>
 7    1  0.2626349E-009  0.2713622E+03  0.7561462E-02  0.1100503E+00
         -2   -1    0    0    0  501 -0.00000000000E+00  0.00000000000E+00  0.23175415457E+03  0.23175415457E+03  0.00000000000E+00 0.  1.
          2   -1    0    0  501    0  0.00000000000E+00 -0.00000000000E+00 -0.34254608009E+03  0.34254608009E+03  0.00000000000E+00 0. -1.
         25    2    1    2    0    0  0.73671656322E+02  0.24880065626E+03 -0.60903027792E+02  0.29442386407E+03  0.12508778294E+03 0.  0.
          5    1    3    3  502    0  0.98823569351E+02  0.18248913663E+03 -0.11497726927E+02  0.20788952107E+03  0.41800000000E+01 0.  1.
         -5    1    3    3    0  502 -0.25151913029E+02  0.66311519627E+02 -0.49405300865E+02  0.86534342997E+02  0.41800000000E+01 0.  1.
        -11    1    1    2    0    0 -0.31896036522E+02 -0.18578571613E+03 -0.70916016295E+02  0.20140201298E+03  0.00000000000E+00 0.  1.
         11    1    1    2    0    0 -0.41775619800E+02 -0.63014940124E+02  0.21027118564E+02  0.78474357618E+02  0.00000000000E+00 0. -1.
</event>
<event>
 7    1  0.2626349E-009  0.1449173E+03  0.7561462E-02  0.1206861E+00
         -2   -1    0    0    0  501 -0.00000000000E+00  0.00000000000E+00  0.32095206916E+02  0.32095206916E+02  0.00000000000E+00 0.  1.
          2   -1    0    0  501    0  0.00000000000E+00 -0.00000000000E+00 -0.72533761896E+03  0.72533761896E+03  0.00000000000E+00 0. -1.
         25    2    1    2    0    0 -0.83996424822E+02 -0.50767205189E+02 -0.48264711102E+03  0.50816083031E+03  0.12508591918E+03 0.  0.
          5    1    3    3  502    0 -0.24482092274E+02 -0.86033970748E+02 -0.26136141577E+03  0.27627609201E+03  0.41800000000E+01 0.  1.
         -5    1    3    3    0  502 -0.59514332548E+02  0.35266765559E+02 -0.22128569525E+03  0.23188473830E+03  0.41800000000E+01 0.  1.
        -11    1    1    2    0    0 -0.39516340650E+01  0.42459474993E+02 -0.91894723088E+02  0.10130677450E+03  0.00000000000E+00 0.  1.
         11    1    1    2    0    0  0.87948058887E+02  0.83077301961E+01 -0.11870057793E+03  0.14796522107E+03  0.00000000000E+00 0. -1.
</event>
<event>
 7    1  0.2626349E-009  0.8572291E+02  0.7561462E-02  0.1313553E+00
         -2   -1    0    0    0  501 -0.00000000000E+00  0.00000000000E+00  0.49773386345E+02  0.49773386345E+02  0.00000000000E+00 0. -1.
          2   -1    0    0  501    0  0.00000000000E+00 -0.00000000000E+00 -0.30677246339E+03  0.30677246339E+03  0.00000000000E+00 0.  1.
         25    2    1    2    0    0 -0.31092989352E+00  0.80166948499E+00 -0.60884157170E+02  0.13912135620E+03  0.12508849589E+03 0.  0.
          5    1    3    3  502    0 -0.39537570779E+02 -0.81111473422E+01 -0.83461964524E+02  0.92802920948E+02  0.41800000000E+01 0. -1.
         -5    1    3    3    0  502  0.39226640885E+02  0.89128168272E+01  0.22577807354E+02  0.46318435248E+02  0.41800000000E+01 0. -1.
        -11    1    1    2    0    0 -0.35854448881E+02 -0.27738105933E+02 -0.12748979524E+03  0.13530924549E+03  0.00000000000E+00 0.  1.
         11    1    1    2    0    0  0.36165378774E+02  0.26936436448E+02 -0.68625124632E+02  0.82115248044E+02  0.00000000000E+00 0. -1.
</event>
<event>
 7    1  0.2626349E-009  0.1704430E+03  0.7561462E-02  0.1177387E+00
         -2   -1    0    0    0  501 -0.00000000000E+00  0.00000000000E+00  0.32606821367E+02  0.32606821367E+02  0.00000000000E+00 0.  1.
          2   -1    0    0  501    0  0.00000000000E+00 -0.00000000000E+00 -0.10151616647E+04  0.10151616647E+04  0.00000000000E+00 0. -1.
         25    2    1    2    0    0  0.83515217553E+02 -0.10553837733E+03 -0.66904000908E+03  0.69381140451E+03  0.12508633270E+03 0.  0.
          5    1    3    3  502    0  0.11270589628E+03 -0.59212772373E+02 -0.42557279103E+03  0.44422791935E+03  0.41800000000E+01 0. -1.
         -5    1    3    3    0  502 -0.29190678724E+02 -0.46325604956E+02 -0.24346721805E+03  0.24958348516E+03  0.41800000000E+01 0. -1.
        -11    1    1    2    0    0 -0.74631237577E+02  0.26718127142E+02 -0.11046090370E+03  0.13596062366E+03  0.00000000000E+00 0.  1.
         11    1    1    2    0    0 -0.88839799764E+01  0.78820250187E+02 -0.20305393052E+03  0.21799645786E+03  0.00000000000E+00 0. -1.
</event>
<event>
 7    1  0.2626349E-009  0.1895955E+03  0.7561462E-02  0.1158827E+00
          2   -1    0    0  501    0  0.00000000000E+00  0.00000000000E+00  0.32683045846E+03  0.32683045846E+03  0.00000000000E+00 0. -1.
         -2   -1    0    0    0  501 -0.00000000000E+00 -0.00000000000E+00 -0.14286845226E+03  0.14286845226E+03  0.00000000000E+00 0.  1.
         25    2    1    2    0    0  0.95318333351E+02 -0.15536297454E+03  0.54466380748E+02  0.22767898483E+03  0.12509154636E+03 0.  0.
          5    1    3    3  502    0  0.62946763760E+02 -0.11293625785E+03  0.95031094430E+02  0.16051565255E+03  0.41800000000E+01 0. -1.
         -5    1    3    3    0  502  0.32371569591E+02 -0.42426716695E+02 -0.40564713682E+02  0.67163332284E+02  0.41800000000E+01 0. -1.
        -11    1    1    2    0    0  0.11842230709E+02  0.24080665148E+02 -0.28687959820E+01  0.26987901966E+02  0.00000000000E+00 0.  1.
         11    1    1    2    0    0 -0.10716056406E+03  0.13128230940E+03  0.13236442143E+03  0.21503202392E+03  0.00000000000E+00 0. -1.
</event>
<event>
 7    1  0.2626349E-009  0.2250702E+03  0.7561462E-02  0.1130158E+00
          1   -1    0    0  501    0  0.00000000000E+00  0.00000000000E+00  0.31537843766E+03  0.31537843766E+03  0.00000000000E+00 0. -1.
         -1   -1    0    0    0  501 -0.00000000000E+00 -0.00000000000E+00 -0.16983591772E+03  0.16983591772E+03  0.00000000000E+00 0.  1.
         25    2    1    2    0    0  0.79815963712E+02 -0.18684903283E+03  0.90990218382E+02  0.25536245453E+03  0.12509042413E+03 0.  0.
          5    1    3    3  502    0  0.11094497386E+03 -0.13559457604E+03  0.48782299477E+02  0.18191168577E+03  0.41800000000E+01 0. -1.
         -5    1    3    3    0  502 -0.31129010147E+02 -0.51254456791E+02  0.42207918906E+02  0.73450768764E+02  0.41800000000E+01 0. -1.
        -11    1    1    2    0    0 -0.28954935990E+02  0.14792691342E+03  0.66415621723E+02  0.16471731798E+03  0.00000000000E+00 0.  1.
         11    1    1    2    0    0 -0.50861027721E+02  0.38922119408E+02 -0.11863320174E+02  0.65134582870E+02  0.00000000000E+00 0. -1.
</event>
<event>
 7    1  0.2626349E-009  0.1802898E+03  0.7561462E-02  0.1167523E+00
          1   -1    0    0  501    0  0.00000000000E+00  0.00000000000E+00  0.11210060266E+04  0.11210060266E+04  0.00000000000E+00 0. -1.
         -1   -1    0    0    0  501 -0.00000000000E+00 -0.00000000000E+00 -0.39407673831E+02  0.39407673831E+02  0.00000000000E+00 0.  1.
         25    2    1    2    0    0  0.12733883250E+03  0.12003112233E+03  0.67324094861E+03  0.70676855505E+03  0.12508304015E+03 0.  0.
          5    1    3    3  502    0  0.82084869473E+02  0.72994121348E+02  0.19312400607E+03  0.22221705980E+03  0.41800000000E+01 0.  1.
         -5    1    3    3    0  502  0.45253963030E+02  0.47037000984E+02  0.48011694254E+03  0.48455149525E+03  0.41800000000E+01 0.  1.
        -11    1    1    2    0    0 -0.40708411024E+02 -0.46606376195E+01  0.17133028164E+03  0.17616174862E+03  0.00000000000E+00 0. -1.
         11    1    1    2    0    0 -0.86630421480E+02 -0.11537048471E+03  0.23702712256E+03  0.27748339679E+03  0.00000000000E+00 0.  1.
</event>
<event>
 7    1  0.5342736E-009  0.1300831E+03  0.7561462E-02  0.1227333E+00
          1   -1    0    0  501    0  0.00000000000E+00  0.00000000000E+00  0.63470251142E+03  0.63470251142E+03  0.00000000000E+00 0. -1.
         -1   -1    0    0    0  501 -0.00000000000E+00 -0.00000000000E+00 -0.28040325286E+02  0.28040325286E+02  0.00000000000E+00 0.  1.
         25    2    1    2    0    0 -0.98163748949E+01 -0.76374733756E+02  0.31105078503E+03  0.34398822717E+03  0.12508336576E+03 0.  0.
          5    1    3    3  502    0 -0.58125291635E+02 -0.93577684039E+01  0.17584022806E+03  0.18548146959E+03  0.41800000000E+01 0.  1.
         -5    1    3    3    0  502  0.48308916740E+02 -0.67016965352E+02  0.13521055697E+03  0.15850675758E+03  0.41800000000E+01 0.  1.
        -11    1    1    2    0    0  0.43383244991E+02  0.10721841057E+02  0.13010032014E+03  0.13756146670E+03  0.00000000000E+00 0.  1.
         11    1    1    2    0    0 -0.33566870096E+02  0.65652892698E+02  0.16551108097E+03  0.18119314284E+03  0.00000000000E+00 0. -1.
</event>
<event>
 7    1  0.2626349E-009  0.2058287E+03  0.7561462E-02  0.1144912E+00
         -4   -1    0    0    0  501 -0.00000000000E+00  0.00000000000E+00  0.25314265880E+03  0.25314265880E+03  0.00000000000E+00 0.  1.
          4   -1    0    0  501    0  0.00000000000E+00 -0.00000000000E+00 -0.21326400290E+03  0.21326400290E+03  0.00000000000E+00 0. -1.
         25    2    1    2    0    0  0.19412981702E+03  0.64830689265E+02  0.43001890116E+02  0.24369494150E+03  0.12509459554E+03 0.  0.
          5    1    3    3  502    0  0.56315222086E+02  0.91976016123E+01 -0.43328807473E+02  0.71769478687E+02  0.41800000000E+01 0.  1.
         -5    1    3    3    0  502  0.13781459493E+03  0.55633087653E+02  0.86330697589E+02  0.17192546281E+03  0.41800000000E+01 0.  1.
        -11    1    1    2    0    0 -0.65277699049E+02 -0.11362587817E+02  0.39126435495E+02  0.76949102332E+02  0.00000000000E+00 0.  1.
         11    1    1    2    0    0 -0.12885211797E+03 -0.53468101448E+02 -0.42249669712E+02  0.14576261787E+03  0.00000000000E+00 0. -1.
</event>
<event>
 7    1  0.2626349E-009  0.1800862E+03  0.7561462E-02  0.1167720E+00
         -1   -1    0    0    0  501 -0.00000000000E+00  0.00000000000E+00  0.18656421419E+03  0.18656421419E+03  0.00000000000E+00 0.  1.
          1   -1    0    0  501    0  0.00000000000E+00 -0.00000000000E+00 -0.25455089552E+03  0.25455089552E+03  0.00000000000E+00 0. -1.
         25    2    1    2    0    0  0.11954485981E+03 -0.11697331859E+03 -0.12405125219E+03  0.24291986011E+03  0.12509042528E+03 0.  0.
          5    1    3    3  502    0  0.11450674859E+02 -0.36981838043E+02  0.21691491237E+02  0.44573170089E+02  0.41800000000E+01 0. -1.
         -5    1    3    3    0  502  0.10809418495E+03 -0.79991480552E+02 -0.14574274343E+03  0.19834669002E+03  0.41800000000E+01 0. -1.
        -11    1    1    2    0    0 -0.83163674198E+02  0.23543152536E+02  0.74072145242E+01  0.86748738114E+02  0.00000000000E+00 0. -1.
         11    1    1    2    0    0 -0.36381185610E+02  0.93430166059E+02  0.48657356332E+02  0.11144651148E+03  0.00000000000E+00 0.  1.
</event>
<event>
 7    1  0.2626349E-009  0.9576984E+02  0.7561462E-02  0.1289452E+00
         -2   -1    0    0    0  501 -0.00000000000E+00  0.00000000000E+00  0.11519332833E+03  0.11519332833E+03  0.00000000000E+00 0.  1.
          2   -1    0    0  501    0  0.00000000000E+00 -0.00000000000E+00 -0.13662522487E+03  0.13662522487E+03  0.00000000000E+00 0. -1.
         25    2    1    2    0    0 -0.56580184229E+02 -0.27251809208E+02 -0.21527540829E+02  0.14161861887E+03  0.12509364429E+03 0.  0.
          5    1    3    3  502    0 -0.17303199706E+02  0.40376725502E+02 -0.41733341951E+02  0.60735697186E+02  0.41800000000E+01 0.  1.
         -5    1    3    3    0  502 -0.39276984524E+02 -0.67628534710E+02  0.20205801122E+02  0.80882921679E+02  0.41800000000E+01 0.  1.
        -11    1    1    2    0    0  0.53309818393E+02  0.13545687975E+02 -0.39797367414E+02  0.67891478499E+02  0.00000000000E+00 0. -1.
         11    1    1    2    0    0  0.32703658369E+01  0.13706121233E+02  0.39893011702E+02  0.42308455829E+02  0.00000000000E+00 0.  1.
</event>
<event>
 7    1  0.2626349E-009  0.1073059E+03  0.7561462E-02  0.1265642E+00
         -4   -1    0    0    0  501 -0.00000000000E+00  0.00000000000E+00  0.29613917205E+02  0.29613917205E+02  0.00000000000E+00 0.  1.
          4   -1    0    0  501    0  0.00000000000E+00 -0.00000000000E+00 -0.79779099245E+03  0.79779099245E+03  0.00000000000E+00 0. -1.
         25    2    1    2    0    0 -0.72508247236E+01 -0.76191075158E+02 -0.62493190989E+03  0.64190758317E+03  0.12509116249E+03 0.  0.
          5    1    3    3  502    0 -0.56379769079E+02 -0.66060557910E+02 -0.27623237791E+03  0.28959363715E+03  0.41800000000E+01 0.  1.
         -5    1    3    3    0  502  0.49128944355E+02 -0.10130517248E+02 -0.34869953199E+03  0.35231394602E+03  0.41800000000E+01 0.  1.
        -11    1    1    2    0    0  0.10189382719E+02  0.55492915095E+02 -0.19042443647E+02  0.59547475227E+02  0.00000000000E+00 0.  1.
         11    1    1    2    0    0 -0.29385579950E+01  0.20698160063E+02 -0.12420272171E+03  0.12594985126E+03  0.00000000000E+00 0. -1.
</event>
<event>
 7    1  0.2626349E-009  0.1077264E+03  0.7561462E-02  0.1264839E+00
         -1   -1    0    0    0  501 -0.00000000000E+00  0.00000000000E+00  0.13913918045E+03  0.13913918045E+03  0.00000000000E+00 0. -1.
          1   -1    0    0  501    0  0.00000000000E+00 -0.00000000000E+00 -0.87148140125E+02  0.87148140125E+02  0.00000000000E+00 0.  1.
         25    2    1    2    0    0 -0.22815936487E+01 -0.12183154561E+02  0.43086019002E+02  0.13287819533E+03  0.12508626958E+03 0.  0.
          5    1    3    3  502    0 -0.21463756039E+02  0.53034124690E+02  0.23667369095E+02  0.62055845533E+02  0.41800000000E+01 0. -1.
         -5    1    3    3    0  502  0.19182162391E+02 -0.65217279251E+02  0.19418649907E+02  0.70822349799E+02  0.41800000000E+01 0. -1.
        -11    1    1    2    0    0  0.55696699349E+01  0.50859419221E+02 -0.66474826609E+01  0.51593514829E+02  0.00000000000E+00 0.  1.
         11    1    1    2    0    0 -0.32880762862E+01 -0.38676264661E+02  0.15552503979E+02  0.41815610408E+02  0.00000000000E+00 0. -1.
</event>
<event>
 7    1  0.2626349E-009  0.1861909E+03  0.7561462E-02  0.1161942E+00
          1   -1    0    0  501    0  0.00000000000E+00  0.00000000000E+00  0.97202329575E+03  0.97202329575E+03  0.00000000000E+00 0. -1.
         -1   -1    0    0    0  501 -0.00000000000E+00 -0.00000000000E+00 -0.44814380700E+02  0.44814380700E+02  0.00000000000E+00 0.  1.
         25    2    1    2    0    0  0.61412314190E+02 -0.15662462404E+03  0.62513292565E+03  0.65934948359E+03  0.12509125304E+03 0.  0.
          5    1    3    3  502    0  0.53986268818E+02 -0.14367293895E+02  0.28691303068E+03  0.29233114088E+03  0.41800000000E+01 0.  1.
         -5    1    3    3    0  502  0.74260453716E+01 -0.14225733014E+03  0.33821989497E+03  0.36701834271E+03  0.41800000000E+01 0.  1.
        -11    1    1    2    0    0 -0.43735355991E+02  0.14771315672E+03  0.19455719251E+03  0.24816216309E+03  0.00000000000E+00 0.  1.
         11    1    1    2    0    0 -0.17676958199E+02  0.89114673199E+01  0.10751879689E+03  0.10932602977E+03  0.00000000000E+00 0. -1.
</event>
<event>
 7    1  0.2626349E-009  0.1200074E+03  0.7561462E-02  0.1243085E+00
          2   -1    0    0  501    0  0.00000000000E+00  0.00000000000E+00  0.80160771928E+03  0.80160771928E+03  0.00000000000E+00 0. -1.
         -2   -1    0    0    0  501 -0.00000000000E+00 -0.00000000000E+00 -0.29265215686E+02  0.29265215686E+02  0.00000000000E+00 0.  1.
         25    2    1    2    0    0 -0.55173004628E+02 -0.91361414880E+02  0.37556312435E+03  0.40998520621E+03  0.12509692390E+03 0.  0.
          5    1    3    3  502    0  0.10318756692E+02 -0.54512510950E+02  0.29312462387E+03  0.29835818761E+03  0.41800000000E+01 0. -1.
         -5    1    3    3    0  502 -0.65491761320E+02 -0.36848903930E+02  0.82438500475E+02  0.11162701860E+03  0.41800000000E+01 0. -1.
        -11    1    1    2    0    0  0.18705572606E+02  0.52914009719E+02  0.33422914188E+03  0.33890840968E+03  0.00000000000E+00 0. -1.
         11    1    1    2    0    0  0.36467432022E+02  0.38447405161E+02  0.62550237369E+02  0.81979319080E+02  0.00000000000E+00 0.  1.
</event>
<event>
 7    1  0.2626349E-009  0.1385455E+03  0.7561462E-02  0.1215300E+00
          1   -1    0    0  501    0  0.00000000000E+00  0.00000000000E+00  0.38709267723E+03  0.38709267723E+03  0.00000000000E+00 0. -1.
         -1   -1    0    0    0  501 -0.00000000000E+00 -0.00000000000E+00 -0.10220232498E+03  0.10220232498E+03  0.00000000000E+00 0.  1.
         25    2    1    2    0    0  0.61973319316E+02 -0.66584638901E+02  0.31846258923E+03  0.35403555991E+03  0.12509416652E+03 0.  0.
          5    1    3    3  502    0 -0.27569721659E+02 -0.51321297592E+02  0.17194967664E+03  0.18159881287E+03  0.41800000000E+01 0. -1.
         -5    1    3    3    0  502  0.89543040975E+02 -0.15263341309E+02  0.14651291259E+03  0.17243674704E+03  0.41800000000E+01 0. -1.
        -11    1    1    2    0    0 -0.35153467243E+02 -0.17661316917E+02  0.32740983611E+01  0.39476677856E+02  0.00000000000E+00 0. -1.
         11    1    1    2    0    0 -0.26819852073E+02  0.84245955818E+02 -0.36846335340E+02  0.95782764446E+02  0.00000000000E+00 0.  1.
</event>
<event>
 7    1  0.2626349E-009  0.8007477E+02  0.7561462E-02  0.1328839E+00
          2   -1    0    0  501    0  0.00000000000E+00  0.00000000000E+00  0.30518148341E+02  0.30518148341E+02  0.00000000000E+00 0. -1.
         -2   -1    0    0    0  501 -0.00000000000E+00 -0.00000000000E+00 -0.59300889092E+03  0.59300889092E+03  0.00000000000E+00 0.  1.
         25    2    1    2    0    0 -0.61104715070E+02  0.25583150889E+02 -0.21089900764E+03  0.25399211953E+03  0.12508125977E+03 0.  0.
          5    1    3    3  502    0 -0.32352082629E+02  0.13244465913E+02  0.52093920766E+01  0.35590494427E+02  0.41800000000E+01 0.  1.
         -5    1    3    3    0  502 -0.28752632441E+02  0.12338684976E+02 -0.21610839972E+03  0.21840162510E+03  0.41800000000E+01 0.  1.
        -11    1    1    2    0    0  0.44806870532E+02  0.16889090620E+02 -0.28432810013E+03  0.28833204045E+03  0.00000000000E+00 0.  1.
         11    1    1    2    0    0  0.16297844537E+02 -0.42472241510E+02 -0.67263634814E+02  0.81202879283E+02  0.00000000000E+00 0. -1.
</event>
<event>
 7    1  0.2626349E-009  0.1879213E+03  0.7561462E-02  0.1160350E+00
         -2   -1    0    0    0  501 -0.00000000000E+00  0.00000000000E+00  0.44244542131E+03  0.44244542131E+03  0.00000000000E+00 0. -1.
          2   -1    0    0  501    0  0.00000000000E+00 -0.00000000000E+00 -0.19212805074E+03  0.19212805074E+03  0.00000000000E+00 0.  1.
         25    2    1    2    0    0 -0.89524344416E+02  0.13056955381E+03  0.36658804915E+03  0.41844592364E+03  0.12508867495E+03 0.  0.
          5    1    3    3  502    0  0.26520983495E+02  0.22435777479E+02  0.29062905747E+02  0.45484630009E+02  0.41800000000E+01 0.  1.
         -5    1    3    3    0  502 -0.11604532791E+03  0.10813377633E+03  0.33752514341E+03  0.37296129363E+03  0.41800000000E+01 0.  1.
        -11    1    1    2    0    0  0.43310696761E+02  0.38461486026E+00 -0.28368519114E+02  0.51775836635E+02  0.00000000000E+00 0.  1.
         11    1    1    2    0    0  0.46213647654E+02 -0.13095416867E+03 -0.87902159472E+02  0.16435171177E+03  0.00000000000E+00 0. -1.
</event>
<event>
 7    1  0.2626349E-009  0.1344189E+03  0.7561462E-02  0.1221042E+00
          1   -1    0    0  501    0  0.00000000000E+00  0.00000000000E+00  0.35943847188E+03  0.35943847188E+03  0.00000000000E+00 0. -1.
         -1   -1    0    0    0  501 -0.00000000000E+00 -0.00000000000E+00 -0.56207365560E+02  0.56207365560E+02  0.00000000000E+00 0.  1.
         25    2    1    2    0    0  0.19006545744E+02 -0.85500255938E+02  0.11569812895E+03  0.19158674320E+03  0.12509148885E+03 0.  0.
          5    1    3    3  502    0  0.40551160336E+02 -0.10887502443E+03  0.10784667870E+03  0.15857662519E+03  0.41800000000E+01 0. -1.
         -5    1    3    3    0  502 -0.21544614592E+02  0.23374768494E+02  0.78514502457E+01  0.33010118010E+02  0.41800000000E+01 0. -1.
        -11    1    1    2    0    0  0.18137647522E+02 -0.80648303210E+01  0.17511816582E+02  0.26470350691E+02  0.00000000000E+00 0. -1.
         11    1    1    2    0    0 -0.37144193266E+02  0.93565086259E+02  0.17002116079E+03  0.19758874354E+03  0.00000000000E+00 0.  1.
</event>
<event>
 7    1  0.2626349E-009  0.1030910E+03  0.7561462E-02  0.1273927E+00
         -2   -1    0    0    0  501 -0.00000000000E+00  0.00000000000E+00  0.48392999119E+02  0.48392999119E+02  0.00000000000E+00 0. -1.
          2   -1    0    0  501    0  0.00000000000E+00 -0.00000000000E+00 -0.35494290893E+03  0.35494290893E+03  0.00000000000E+00 0.  1.
         25    2    1    2    0    0 -0.19309404373E+02  0.15992436576E+02 -0.62475405139E+02  0.14205338754E+03  0.12508947813E+03 0.  0.
          5    1    3    3  502    0 -0.86490443620E+01  0.63709967689E+02 -0.23885815406E+01  0.64474364465E+02  0.41800000000E+01 0.  1.
         -5    1    3    3    0  502 -0.10660360011E+02 -0.47717531113E+02 -0.60086823598E+02  0.77579023075E+02  0.41800000000E+01 0.  1.
        -11    1    1    2    0    0  0.34913305018E+02  0.28792576812E+02 -0.10475001615E+03  0.11410748104E+03  0.00000000000E+00 0. -1.
         11    1    1    2    0    0 -0.15603900645E+02 -0.44785013388E+02 -0.13932448853E+03  0.14717503947E+03  0.00000000000E+00 0.  1.
</event>
<event>
 7    1  0.2626349E-009  0.1065699E+03  0.7561462E-02  0.1267057E+00
         -2   -1    0    0    0  501 -0.00000000000E+00  0.00000000000E+00  0.26721217443E+02  0.26721217443E+02  0.00000000000E+00 0.  1.
          2   -1    0    0  501    0  0.00000000000E+00 -0.00000000000E+00 -0.59062648743E+03  0.59062648743E+03  0.00000000000E+00 0. -1.
         25    2    1    2    0    0 -0.68448124249E+02 -0.87448601359E+01 -0.31957815596E+03  0.35005641485E+03  0.12509067717E+03 0.  0.
          5    1    3    3  502    0 -0.87918743086E+01 -0.37449227374E+02 -0.20655296690E+02  0.43861775683E+02  0.41800000000E+01 0. -1.
         -5    1    3    3    0  502 -0.59656249941E+02  0.28704367238E+02 -0.29892285927E+03  0.30619463916E+03  0.41800000000E+01 0. -1.
        -11    1    1    2    0    0  0.52702657903E+02 -0.33892283839E+02 -0.13201461775E+03  0.14613047716E+03  0.00000000000E+00 0.  1.
         11    1    1    2    0    0  0.15745466346E+02  0.42637143975E+02 -0.11231249626E+03  0.12116081286E+03  0.00000000000E+00 0. -1.
</event>
<event>
 7    1  0.2626349E-009  0.3646261E+03  0.7561462E-02  0.1056767E+00
         -1   -1    0    0    0  501 -0.00000000000E+00  0.00000000000E+00  0.19293473699E+03  0.19293473699E+03  0.00000000000E+00 0.  1.
          1   -1    0    0  501    0  0.00000000000E+00 -0.00000000000E+00 -0.88299959404E+03  0.88299959404E+03  0.00000000000E+00 0. -1.
         25    2    1    2    0    0 -0.36018511782E+03 -0.29020666353E+02 -0.13112819916E+03  0.40424962938E+03  0.12509052748E+03 0.  0.
          5    1    3    3  502    0 -0.15564924113E+03 -0.26434197684E+02  0.58372621141E+01  0.15804113104E+03  0.41800000000E+01 0.  1.
         -5    1    3    3    0  502 -0.20453587670E+03 -0.25864686694E+01 -0.13696546127E+03  0.24620849835E+03  0.41800000000E+01 0.  1.
        -11    1    1    2    0    0  0.25631689271E+03  0.48981735962E+02 -0.34057671647E+03  0.42905717538E+03  0.00000000000E+00 0.  1.
         11    1    1    2    0    0  0.10386822511E+03 -0.19961069609E+02 -0.21835994142E+03  0.24262752627E+03  0.00000000000E+00 0. -1.
</event>
<event>
 7    1  0.2626349E-009  0.1295045E+03  0.7561462E-02  0.1228193E+00
         -2   -1    0    0    0  501 -0.00000000000E+00  0.00000000000E+00  0.33683756988E+02  0.33683756988E+02  0.00000000000E+00 0.  1.
          2   -1    0    0  501    0  0.00000000000E+00 -0.00000000000E+00 -0.59159309007E+03  0.59159309007E+03  0.00000000000E+00 0. -1.
         25    2    1    2    0    0  0.68691939250E+02 -0.21950941007E+02 -0.42304577146E+03  0.44700866541E+03  0.12509434789E+03 0.  0.
          5    1    3    3  502    0 -0.35470441657E+02 -0.12154174476E+02 -0.82230160132E+02  0.90471806790E+02  0.41800000000E+01 0.  1.
         -5    1    3    3    0  502  0.10416238091E+03 -0.97967665313E+01 -0.34081561133E+03  0.35653685862E+03  0.41800000000E+01 0.  1.
        -11    1    1    2    0    0 -0.26030798571E+02  0.56155848179E+02 -0.72496281693E+02  0.95324669515E+02  0.00000000000E+00 0. -1.
         11    1    1    2    0    0 -0.42661140679E+02 -0.34204907172E+02 -0.62367279925E+02  0.82943512127E+02  0.00000000000E+00 0.  1.
</event>
<event>
 7    1  0.2626349E-009  0.1135318E+03  0.7561462E-02  0.1254166E+00
         -2   -1    0    0    0  501 -0.00000000000E+00  0.00000000000E+00  0.50036766886E+02  0.50036766886E+02  0.00000000000E+00 0.  1.
          2   -1    0    0  501    0  0.00000000000E+00 -0.00000000000E+00 -0.39712120428E+03  0.39712120428E+03  0.00000000000E+00 0. -1.
         25    2    1    2    0    0  0.86000071074E+02 -0.18865884095E+02 -0.21240261284E+03  0.26175006436E+03  0.12508514078E+03 0.  0.
          5    1    3    3  502    0  0.19657126671E+02 -0.57296367420E+02 -0.15319695596E+03  0.16479094655E+03  0.41800000000E+01 0.  1.
         -5    1    3    3    0  502  0.66342944403E+02  0.38430483324E+02 -0.59205656884E+02  0.96959117816E+02  0.41800000000E+01 0.  1.
        -11    1    1    2    0    0 -0.61712423775E+02  0.58060354800E+01 -0.16628588340E+02  0.64176656554E+02  0.00000000000E+00 0.  1.
         11    1    1    2    0    0 -0.24287647299E+02  0.13059848615E+02 -0.11805323621E+03  0.12123125025E+03  0.00000000000E+00 0. -1.
</event>
<event>
 7    1  0.2626349E-009  0.1366615E+03  0.7561462E-02  0.1217893E+00
         -2   -1    0    0    0  501 -0.00000000000E+00  0.00000000000E+00  0.78384006063E+02  0.78384006063E+02  0.00000000000E+00 0.  1.
          2   -1    0    0  501    0  0.00000000000E+00 -0.00000000000E+00 -0.42134849770E+03  0.42134849770E+03  0.00000000000E+00 0. -1.
         25    2    1    2    0    0  0.12145367396E+03  0.21237071414E+02 -0.28902938659E+03  0.33821678642E+03  0.12510235882E+03 0.  0.
          5    1    3    3  502    0  0.39275915755E+02  0.43034459767E+02 -0.22289781784E+03  0.23042454706E+03  0.41800000000E+01 0. -1.
         -5    1    3    3    0  502  0.82177758202E+02 -0.21797388353E+02 -0.66131568741E+02  0.10779223936E+03  0.41800000000E+01 0. -1.
        -11    1    1    2    0    0 -0.33211071968E+02 -0.24838878588E+02 -0.60060209484E+02  0.72987491764E+02  0.00000000000E+00 0. -1.
         11    1    1    2    0    0 -0.88242601989E+02  0.36018071741E+01  0.61251044332E+01  0.88528225584E+02  0.00000000000E+00 0.  1.
</event>
<event>
 7    1  0.2626349E-009  0.1418144E+03  0.7561462E-02  0.1210908E+00
         -1   -1    0    0    0  501 -0.00000000000E+00  0.00000000000E+00  0.53740857399E+02  0.53740857399E+02  0.00000000000E+00 0.  1.
          1   -1    0    0  501    0  0.00000000000E+00 -0.00000000000E+00 -0.43796341147E+03  0.43796341147E+03  0.00000000000E+00 0. -1.
         25    2    1    2    0    0  0.10388821768E+03 -0.17352446343E+02 -0.16657726321E+03  0.23342920820E+03  0.12508933390E+03 0.  0.
          5    1    3    3  502    0 -0.11568831897E+02  0.33238483233E+02 -0.22656351935E+02  0.42064442491E+02  0.41800000000E+01 0.  1.
         -5    1    3    3    0  502  0.11545704958E+03 -0.50590929576E+02 -0.14392091127E+03  0.19136476571E+03  0.41800000000E+01 0.  1.
        -11    1    1    2    0    0 -0.50072296347E+01 -0.16737872117E+02 -0.76022350127E+00  0.17487328309E+02  0.00000000000E+00 0.  1.
         11    1    1    2    0    0 -0.98880988049E+02  0.34090318460E+02 -0.21688506736E+03  0.24078773236E+03  0.00000000000E+00 0. -1.
</event>
<event>
 7    1  0.2626349E-009  0.1212269E+03  0.7561462E-02  0.1241087E+00
          2   -1    0    0  501    0  0.00000000000E+00  0.00000000000E+00  0.49073228338E+03  0.49073228338E+03  0.00000000000E+00 0. -1.
         -2   -1    0    0    0  501 -0.00000000000E+00 -0.00000000000E+00 -0.41935045495E+02  0.41935045495E+02  0.00000000000E+00 0.  1.
         25    2    1    2    0    0 -0.59720949362E+02  0.38291708290E+01  0.11148770522E+03  0.17792572156E+03  0.12508716815E+03 0.  0.
          5    1    3    3  502    0 -0.98318635649E+02 -0.27928171552E+01  0.70529386277E+02  0.12110417281E+03  0.41800000000E+01 0. -1.
         -5    1    3    3    0  502  0.38597686286E+02  0.66219879842E+01  0.40958318941E+02  0.56821548747E+02  0.41800000000E+01 0. -1.
        -11    1    1    2    0    0 -0.17141535860E+01 -0.35474676409E+02  0.68115356690E+02  0.76818570709E+02  0.00000000000E+00 0.  1.
         11    1    1    2    0    0  0.61435102948E+02  0.31645505580E+02  0.26919417598E+03  0.27792303661E+03  0.00000000000E+00 0. -1.
</event>
<event>
 7    1  0.2626349E-009  0.1151640E+03  0.7561462E-02  0.1251295E+00
          2   -1    0    0  501    0  0.00000000000E+00  0.00000000000E+00  0.73813027601E+02  0.73813027601E+02  0.00000000000E+00 0. -1.
         -2   -1    0    0    0  501 -0.00000000000E+00 -0.00000000000E+00 -0.26260055704E+03  0.26260055704E+03  0.00000000000E+00 0.  1.
         25    2    1    2    0    0  0.74972616696E+02  0.50455730599E+01 -0.15502354611E+03  0.21289850796E+03  0.12508846382E+03 0.  0.
          5    1    3    3  502    0  0.93049548288E+02 -0.15843949674E+02 -0.15872285268E+03  0.18471509289E+03  0.41800000000E+01 0. -1.
         -5    1    3    3    0  502 -0.18076931593E+02  0.20889522734E+02  0.36993065714E+01  0.28183415069E+02  0.41800000000E+01 0. -1.
        -11    1    1    2    0    0 -0.24782267910E+02  0.35562942333E+02  0.11284572945E+02  0.44790905960E+02  0.00000000000E+00 0. -1.
         11    1    1    2    0    0 -0.50190348785E+02 -0.40608515393E+02 -0.45048556278E+02  0.78724170725E+02  0.00000000000E+00 0.  1.
</event>
<event>
 7    1  0.2626349E-009  0.1267012E+03  0.7561462E-02  0.1232434E+00
          2   -1    0    0  501    0  0.00000000000E+00  0.00000000000E+00  0.31766053681E+03  0.31766053681E+03  0.00000000000E+00 0.  1.
         -2   -1    0    0    0  501 -0.00000000000E+00 -0.00000000000E+00 -0.60055530898E+02  0.60055530898E+02  0.00000000000E+00 0. -1.
         25    2    1    2    0    0  0.35207740656E+02  0.71483493162E+02  0.18291007538E+03  0.23548395724E+03  0.12508846328E+03 0.  0.
          5    1    3    3  502    0  0.35637744828E+02 -0.22223667684E+02  0.10630217261E+03  0.11437466749E+03  0.41800000000E+01 0. -1.
         -5    1    3    3    0  502 -0.43000417241E+00  0.93707160847E+02  0.76607902769E+02  0.12110928975E+03  0.41800000000E+01 0. -1.
        -11    1    1    2    0    0 -0.36033319799E+02  0.88115180488E+01  0.82369489441E+01  0.37998556735E+02  0.00000000000E+00 0.  1.
         11    1    1    2    0    0  0.82557914298E+00 -0.80295011211E+02  0.66457981586E+02  0.10423355373E+03  0.00000000000E+00 0. -1.
</event>
<event>
 7    1  0.2626349E-009  0.9648005E+02  0.7561462E-02  0.1287877E+00
          2   -1    0    0  501    0  0.00000000000E+00  0.00000000000E+00  0.27282678787E+03  0.27282678787E+03  0.00000000000E+00 0. -1.
         -2   -1    0    0    0  501 -0.00000000000E+00 -0.00000000000E+00 -0.82277685075E+02  0.82277685075E+02  0.00000000000E+00 0.  1.
         25    2    1    2    0    0 -0.75110702446E+02 -0.17724108800E+02  0.18217199709E+03  0.23407345368E+03  0.12509190037E+03 0.  0.
          5    1    3    3  502    0 -0.38403425385E+02  0.21504849047E+02  0.17405012009E+03  0.17957783359E+03  0.41800000000E+01 0.  1.
         -5    1    3    3    0  502 -0.36707277061E+02 -0.39228957847E+02  0.81218770053E+01  0.54495620091E+02  0.41800000000E+01 0.  1.
        -11    1    1    2    0    0  0.31894903125E+01  0.22552949882E+02  0.37019715637E+02  0.43465707663E+02  0.00000000000E+00 0. -1.
         11    1    1    2    0    0  0.71921212133E+02 -0.48288410826E+01 -0.28642609932E+02  0.77565311606E+02  0.00000000000E+00 0.  1.
</event>
<event>
 7    1  0.2626349E-009  0.9958954E+02  0.7561462E-02  0.1281161E+00
         -2   -1    0    0    0  501 -0.00000000000E+00  0.00000000000E+00  0.12529015945E+03  0.12529015945E+03  0.00000000000E+00 0.  1.
          2   -1    0    0  501    0  0.00000000000E+00 -0.00000000000E+00 -0.11450367310E+03  0.11450367310E+03  0.00000000000E+00 0. -1.
         25    2    1    2    0    0 -0.47332912687E+01 -0.26693139460E+02  0.48778345979E+02  0.13697340435E+03  0.12508980263E+03 0.  0.
          5    1    3    3  502    0 -0.57668867955E+02 -0.23906460985E+02  0.55170088814E+02  0.83417194318E+02  0.41800000000E+01 0.  1.
         -5    1    3    3    0  502  0.52935576687E+02 -0.27866784753E+01 -0.63917428358E+01  0.53556210028E+02  0.41800000000E+01 0.  1.
        -11    1    1    2    0    0  0.14580713747E+02 -0.26012623900E+02 -0.39121271220E+02  0.49190727555E+02  0.00000000000E+00 0. -1.
         11    1    1    2    0    0 -0.98474224782E+01  0.52705763360E+02  0.11294115858E+01  0.53629700646E+02  0.00000000000E+00 0.  1.
</event>
<event>
 7    1  0.2626349E-009  0.9095546E+02  0.7561462E-02  0.1300554E+00
         -2   -1    0    0    0  501 -0.00000000000E+00  0.00000000000E+00  0.88032682444E+02  0.88032682444E+02  0.00000000000E+00 0.  1.
          2   -1    0    0  501    0  0.00000000000E+00 -0.00000000000E+00 -0.18319057161E+03  0.18319057161E+03  0.00000000000E+00 0. -1.
         25    2    1    2    0    0  0.48417166168E+02 -0.35451146044E+02 -0.81007584069E+02  0.16065807452E+03  0.12509109679E+03 0.  0.
          5    1    3    3  502    0 -0.82626661471E+01 -0.38681623219E+01 -0.93847659383E+02  0.94382677984E+02  0.41800000000E+01 0.  1.
         -5    1    3    3    0  502  0.56679832315E+02 -0.31582983722E+02  0.12840075315E+02  0.66275396537E+02  0.41800000000E+01 0.  1.
        -11    1    1    2    0    0  0.23522377761E+02 -0.53896061864E+01  0.71011631709E+01  0.25155051754E+02  0.00000000000E+00 0.  1.
         11    1    1    2    0    0 -0.71939543928E+02  0.40840752230E+02 -0.21251468266E+02  0.85410127777E+02  0.00000000000E+00 0. -1.
</event>
<event>
 7    1  0.2626349E-009  0.3889920E+03  0.7561462E-02  0.1047659E+00
         -2   -1    0    0    0  501 -0.00000000000E+00  0.00000000000E+00  0.67876484890E+02  0.67876484890E+02  0.00000000000E+00 0.  1.
          2   -1    0    0  501    0  0.00000000000E+00 -0.00000000000E+00 -0.26711226732E+04  0.26711226732E+04  0.00000000000E+00 0. -1.
         25    2    1    2    0    0  0.36653136272E+03 -0.11566329060E+03 -0.84128726057E+03  0.93334612501E+03  0.12508995817E+03 0.  0.
          5    1    3    3  502    0  0.21249858454E+03 -0.85318837136E+02 -0.35624615054E+03  0.42351357071E+03  0.41800000000E+01 0. -1.
         -5    1    3    3    0  502  0.15403277818E+03 -0.30344453462E+02 -0.48504111003E+03  0.50983255431E+03  0.41800000000E+01 0. -1.
        -11    1    1    2    0    0 -0.46250056324E+02 -0.10919776217E+02 -0.15130944016E+03  0.15859651920E+03  0.00000000000E+00 0.  1.
         11    1    1    2    0    0 -0.32028130639E+03  0.12658306682E+03 -0.16106494875E+04  0.16470565138E+04  0.00000000000E+00 0. -1.
</event>
<event>
 7    1  0.2626349E-009  0.9407241E+02  0.7561462E-02  0.1293279E+00
         -2   -1    0    0    0  501 -0.00000000000E+00  0.00000000000E+00  0.41244252669E+03  0.41244252669E+03  0.00000000000E+00 0.  1.
          2   -1    0    0  501    0  0.00000000000E+00 -0.00000000000E+00 -0.33053747227E+02  0.33053747227E+02  0.00000000000E+00 0. -1.
         25    2    1    2    0    0  0.24399834614E+02 -0.26493252664E+02  0.16482791073E+03  0.21002929254E+03  0.12508724636E+03 0.  0.
          5    1    3    3  502    0  0.70031190755E+02 -0.45404810333E+01  0.55843527573E+02  0.89782824740E+02  0.41800000000E+01 0. -1.
         -5    1    3    3    0  502 -0.45631356141E+02 -0.21952771631E+02  0.10898438315E+03  0.12024646780E+03  0.41800000000E+01 0. -1.
        -11    1    1    2    0    0 -0.31636128126E+02  0.40425673690E+02  0.21366172082E+03  0.21974169072E+03  0.00000000000E+00 0.  1.
         11    1    1    2    0    0  0.72362935114E+01 -0.13932421026E+02  0.89914791354E+00  0.15725290662E+02  0.00000000000E+00 0. -1.
</event>
<event>
 7    1  0.2626349E-009  0.1129194E+03  0.7561462E-02  0.1255257E+00
         -2   -1    0    0    0  501 -0.00000000000E+00  0.00000000000E+00  0.35334609127E+02  0.35334609127E+02  0.00000000000E+00 0.  1.
          2   -1    0    0  501    0  0.00000000000E+00 -0.00000000000E+00 -0.63162506738E+03  0.63162506738E+03  0.00000000000E+00 0. -1.
         25    2    1    2    0    0  0.71777295824E+02  0.58140505658E+02 -0.33781300206E+03  0.37188345481E+03  0.12508949201E+03 0.  0.
          5    1    3    3  502    0  0.12712102274E+02  0.49625341358E+02 -0.29211972966E+03  0.29660694683E+03  0.41800000000E+01 0. -1.
         -5    1    3    3    0  502  0.59065193550E+02  0.85151642999E+01 -0.45693272391E+02  0.75276507982E+02  0.41800000000E+01 0. -1.
        -11    1    1    2    0    0 -0.37003859086E+01 -0.45165057263E+02 -0.25475649302E+02  0.51986382455E+02  0.00000000000E+00 0.  1.
         11    1    1    2    0    0 -0.68076909916E+02 -0.12975448396E+02 -0.23300180690E+03  0.24308983924E+03  0.00000000000E+00 0. -1.
</event>
<event>
 7    1  0.2626349E-009  0.1858215E+03  0.7561462E-02  0.1162285E+00
          1   -1    0    0  501    0  0.00000000000E+00  0.00000000000E+00  0.91700963514E+03  0.91700963514E+03  0.00000000000E+00 0. -1.
         -1   -1    0    0    0  501 -0.00000000000E+00 -0.00000000000E+00 -0.51869181579E+02  0.51869181579E+02  0.00000000000E+00 0.  1.
         25    2    1    2    0    0 -0.54985393186E+02  0.15391451709E+03  0.65734397367E+03  0.68881197182E+03  0.12509100995E+03 0.  0.
          5    1    3    3  502    0  0.36954552880E+02  0.18550258634E+02  0.15478494599E+03  0.16026728605E+03  0.41800000000E+01 0.  1.
         -5    1    3    3    0  502 -0.91939946067E+02  0.13536425846E+03  0.50255902768E+03  0.52854468577E+03  0.41800000000E+01 0.  1.
        -11    1    1    2    0    0  0.35172026337E+02 -0.53375575819E+02  0.14850301150E+03  0.16167612055E+03  0.00000000000E+00 0. -1.
         11    1    1    2    0    0  0.19813366849E+02 -0.10053894127E+03  0.59293468392E+02  0.11839072435E+03  0.00000000000E+00 0.  1.
</event>
<event>
 7    1  0.2626349E-009  0.4217674E+03  0.7561462E-02  0.1036493E+00
         -2   -1    0    0    0  501 -0.00000000000E+00  0.00000000000E+00  0.33513573177E+03  0.33513573177E+03  0.00000000000E+00 0. -1.
          2   -1    0    0  501    0  0.00000000000E+00 -0.00000000000E+00 -0.55821718473E+03  0.55821718473E+03  0.00000000000E+00 0.  1.
         25    2    1    2    0    0 -0.32945487648E+03  0.25411957931E+03 -0.15533909140E+03  0.46140517465E+03  0.12508887103E+03 0.  0.
          5    1    3    3  502    0 -0.41541173419E+02  0.81346781925E+02 -0.69376411416E+02  0.11477598564E+03  0.41800000000E+01 0. -1.
         -5    1    3    3    0  502 -0.28791370306E+03  0.17277279739E+03 -0.85962679985E+02  0.34662918901E+03  0.41800000000E+01 0. -1.
        -11    1    1    2    0    0  0.22570190803E+03 -0.18203569119E+03 -0.90121718918E+02  0.30364497094E+03  0.00000000000E+00 0.  1.
         11    1    1    2    0    0  0.10375296845E+03 -0.72083888122E+02  0.22379357352E+02  0.12830277091E+03  0.00000000000E+00 0. -1.
</event>
<event>
 7    1  0.2626349E-009  0.1055594E+03  0.7561462E-02  0.1269021E+00
         -4   -1    0    0    0  501 -0.00000000000E+00  0.00000000000E+00  0.11340408728E+03  0.11340408728E+03  0.00000000000E+00 0.  1.
          4   -1    0    0  501    0  0.00000000000E+00 -0.00000000000E+00 -0.16256797350E+03  0.16256797350E+03  0.00000000000E+00 0. -1.
         25    2    1    2    0    0  0.12241365525E+02  0.45344860957E+02  0.43004077558E+02  0.14036475915E+03  0.12508759922E+03 0.  0.
          5    1    3    3  502    0  0.58563073554E+02  0.23489319626E+02  0.59058712126E+02  0.86526213361E+02  0.41800000000E+01 0.  1.
         -5    1    3    3    0  502 -0.46321708029E+02  0.21855541331E+02 -0.16054634568E+02  0.53838545789E+02  0.41800000000E+01 0.  1.
        -11    1    1    2    0    0  0.28524738732E+02 -0.47788216895E+02 -0.36460889051E+02  0.66533982475E+02  0.00000000000E+00 0.  1.
         11    1    1    2    0    0 -0.40766104257E+02  0.24433559378E+01 -0.55707074724E+02  0.69073319153E+02  0.00000000000E+00 0. -1.
</event>
<event>
 7    1  0.2626349E-009  0.9265891E+02  0.7561462E-02  0.1296538E+00
          1   -1    0    0  501    0  0.00000000000E+00  0.00000000000E+00  0.80347621438E+02  0.80347621438E+02  0.00000000000E+00 0. -1.
         -1   -1    0    0    0  501 -0.00000000000E+00 -0.00000000000E+00 -0.21338084693E+03  0.21338084693E+03  0.00000000000E+00 0.  1.
         25    2    1    2    0    0  0.61114120583E+01  0.23681470239E+02 -0.56740048754E+02  0.13951885141E+03  0.12509162792E+03 0.  0.
          5    1    3    3  502    0  0.17053853524E+02  0.73366447392E+02 -0.25306155292E+02  0.79569739340E+02  0.41800000000E+01 0. -1.
         -5    1    3    3    0  502 -0.10942441465E+02 -0.49684977153E+02 -0.31433893462E+02  0.59949112071E+02  0.41800000000E+01 0. -1.
        -11    1    1    2    0    0 -0.15329333719E+02  0.13560586822E+02  0.32747091627E+02  0.38616706194E+02  0.00000000000E+00 0. -1.
         11    1    1    2    0    0  0.92179216611E+01 -0.37242057061E+02 -0.10904026836E+03  0.11559291076E+03  0.00000000000E+00 0.  1.
</event>
<event>
 7    1  0.2626349E-009  0.1134637E+03  0.7561462E-02  0.1254287E+00
          1   -1    0    0  501    0  0.00000000000E+00  0.00000000000E+00  0.63044600921E+02  0.63044600921E+02  0.00000000000E+00 0. -1.
         -1   -1    0    0    0  501 -0.00000000000E+00 -0.00000000000E+00 -0.35367479542E+03  0.35367479542E+03  0.00000000000E+00 0.  1.
         25    2    1    2    0    0  0.62394844051E+02 -0.69391886349E+02 -0.18037763321E+03  0.23852130971E+03  0.12509186291E+03 0.  0.
          5    1    3    3  502    0  0.38498211335E+02 -0.37927338030E+02 -0.19005120829E+03  0.19762977867E+03  0.41800000000E+01 0.  1.
         -5    1    3    3    0  502  0.23896632716E+02 -0.31464548320E+02  0.96735750724E+01  0.40891531040E+02  0.41800000000E+01 0.  1.
        -11    1    1    2    0    0 -0.94010444308E+01  0.78638266986E+02 -0.91995533512E+02  0.12139001136E+03  0.00000000000E+00 0.  1.
         11    1    1    2    0    0 -0.52993799620E+02 -0.92463806367E+01 -0.18257027771E+02  0.56808075272E+02  0.00000000000E+00 0. -1.
</event>
<event>
 7    1  0.2626349E-009  0.9844121E+02  0.7561462E-02  0.1283608E+00
          1   -1    0    0  501    0  0.00000000000E+00  0.00000000000E+00  0.28342721487E+03  0.28342721487E+03  0.00000000000E+00 0. -1.
         -1   -1    0    0    0  501 -0.00000000000E+00 -0.00000000000E+00 -0.56230477719E+02  0.56230477719E+02  0.00000000000E+00 0.  1.
         25    2    1    2    0    0  0.64835348794E+02 -0.95599870991E+01  0.13089642015E+03  0.19255484475E+03  0.12509388323E+03 0.  0.
          5    1    3    3  502    0  0.54165258238E+02 -0.35142785317E+02  0.64871111088E+01  0.65026498986E+02  0.41800000000E+01 0. -1.
         -5    1    3    3    0  502  0.10670090556E+02  0.25582798218E+02  0.12440930904E+03  0.12752834576E+03  0.41800000000E+01 0. -1.
        -11    1    1    2    0    0 -0.68355389270E+02 -0.22448130216E+02  0.88342165737E+02  0.11393294536E+03  0.00000000000E+00 0.  1.
         11    1    1    2    0    0  0.35200404761E+01  0.32008117315E+02  0.79581512707E+01  0.33169902482E+02  0.00000000000E+00 0. -1.
</event>
<event>
 7    1  0.5126761E-009  0.8649008E+02  0.7561462E-02  0.1311581E+00
         -1   -1    0    0    0  501 -0.00000000000E+00  0.00000000000E+00  0.51880574461E+02  0.51880574461E+02  0.00000000000E+00 0.  1.
          1   -1    0    0  501    0  0.00000000000E+00 -0.00000000000E+00 -0.26388635007E+03  0.26388635007E+03  0.00000000000E+00 0. -1.
         25    2    1    2    0    0 -0.35802191987E+02 -0.49579443969E+01 -0.86395907699E+02  0.15626145127E+03  0.12508800950E+03 0.  0.
          5    1    3    3  502    0 -0.78945966769E+02 -0.20091989461E+02 -0.39491614839E+02  0.90626782754E+02  0.41800000000E+01 0.  1.
         -5    1    3    3    0  502  0.43143774782E+02  0.15134045064E+02 -0.46904292860E+02  0.65634668516E+02  0.41800000000E+01 0.  1.
        -11    1    1    2    0    0  0.83229022296E+01 -0.10944427943E+02  0.12018920013E+02  0.18262136863E+02  0.00000000000E+00 0.  1.
         11    1    1    2    0    0  0.27479289757E+02  0.15902372340E+02 -0.13762878792E+03  0.14124333639E+03  0.00000000000E+00 0. -1.
</event>
<event>
 7    1  0.2626349E-009  0.1785414E+03  0.7561462E-02  0.1169222E+00
          1   -1    0    0  501    0  0.00000000000E+00  0.00000000000E+00  0.42948263748E+03  0.42948263748E+03  0.00000000000E+00 0. -1.
         -1   -1    0    0    0  501 -0.00000000000E+00 -0.00000000000E+00 -0.11685406198E+03  0.11685406198E+03  0.00000000000E+00 0.  1.
         25    2    1    2    0    0  0.12170904286E+03 -0.10508682158E+03  0.29562155279E+03  0.35902192971E+03  0.12509321469E+03 0.  0.
          5    1    3    3  502    0  0.11925708658E+03 -0.76400002655E+02  0.13473298348E+03  0.19552407100E+03  0.41800000000E+01 0.  1.
         -5    1    3    3    0  502  0.24519562803E+01 -0.28686818922E+02  0.16088856931E+03  0.16349785871E+03  0.41800000000E+01 0.  1.
        -11    1    1    2    0    0  0.11553459102E+02  0.32620220066E+02 -0.55359680336E+00  0.34610224556E+02  0.00000000000E+00 0.  1.
         11    1    1    2    0    0 -0.13326250196E+03  0.72466601511E+02  0.17560619512E+02  0.15270454519E+03  0.00000000000E+00 0. -1.
</event>
<event>
 7    1  0.2626349E-009  0.9496442E+02  0.7561462E-02  0.1291256E+00
          2   -1    0    0  501    0  0.00000000000E+00  0.00000000000E+00  0.36674387451E+02  0.36674387451E+02  0.00000000000E+00 0. -1.
         -2   -1    0    0    0  501 -0.00000000000E+00 -0.00000000000E+00 -0.50936942444E+03  0.50936942444E+03  0.00000000000E+00 0.  1.
         25    2    1    2    0    0 -0.12400045045E+02  0.68379262213E+02 -0.20789531372E+03  0.25238415553E+03  0.12509123021E+03 0.  0.
          5    1    3    3  502    0  0.19677176881E+02  0.48356466776E+02 -0.20784308687E+03  0.21434029096E+03  0.41800000000E+01 0. -1.
         -5    1    3    3    0  502 -0.32077221926E+02  0.20022795437E+02 -0.52226853536E-01  0.38043864568E+02  0.41800000000E+01 0. -1.
        -11    1    1    2    0    0 -0.28799595321E+02 -0.40770153041E+02 -0.22383746582E+03  0.22933563433E+03  0.00000000000E+00 0.  1.
         11    1    1    2    0    0  0.41199640366E+02 -0.27609109172E+02 -0.40962257453E+02  0.64324022038E+02  0.00000000000E+00 0. -1.
</event>
<event>
 7    1  0.2626349E-009  0.1087079E+03  0.7561462E-02  0.1262981E+00
         -2   -1    0    0    0  501 -0.00000000000E+00  0.00000000000E+00  0.77383210544E+03  0.77383210544E+03  0.00000000000E+00 0.  1.
          2   -1    0    0  501    0  0.00000000000E+00 -0.00000000000E+00 -0.23325475517E+02  0.23325475517E+02  0.00000000000E+00 0. -1.
         25    2    1    2    0    0  0.38203795683E+02 -0.47783851026E+02  0.62280269897E+03  0.63817947384E+03  0.12508801922E+03 0.  0.
          5    1    3    3  502    0 -0.33297408588E+02  0.20359061226E+02  0.14243001107E+03  0.14773959945E+03  0.41800000000E+01 0.  1.
         -5    1    3    3    0  502  0.71501204271E+02 -0.68142912251E+02  0.48037268791E+03  0.49043987439E+03  0.41800000000E+01 0.  1.
        -11    1    1    2    0    0  0.11093452740E+02  0.66998641499E+00 -0.30382605709E+01  0.11521484400E+02  0.00000000000E+00 0. -1.
         11    1    1    2    0    0 -0.49297248423E+02  0.47113864611E+02  0.13074219152E+03  0.14745662272E+03  0.00000000000E+00 0.  1.
</event>
<event>
 7    1  0.2626349E-009  0.1054246E+03  0.7561462E-02  0.1269285E+00
         -1   -1    0    0    0  501 -0.00000000000E+00  0.00000000000E+00  0.69710023809E+02  0.69710023809E+02  0.00000000000E+00 0.  1.
          1   -1    0    0  501    0  0.00000000000E+00 -0.00000000000E+00 -0.17448699636E+03  0.17448699636E+03  0.00000000000E+00 0. -1.
         25    2    1    2    0    0  0.13427479326E+01  0.56924463659E+01 -0.35224409438E+02  0.13009150454E+03  0.12509529813E+03 0.  0.
          5    1    3    3  502    0  0.31406230977E+02 -0.50588815166E+02 -0.66748555703E+01  0.60063347067E+02  0.41800000000E+01 0.  1.
         -5    1    3    3    0  502 -0.30063483045E+02  0.56281261531E+02 -0.28549553867E+02  0.70028157468E+02  0.41800000000E+01 0.  1.
        -11    1    1    2    0    0  0.39932592298E+02  0.12871571612E+02 -0.18421534191E+02  0.45821852924E+02  0.00000000000E+00 0.  1.
         11    1    1    2    0    0 -0.41275340231E+02 -0.18564017978E+02 -0.51131028926E+02  0.68283662714E+02  0.00000000000E+00 0. -1.
</event>
<event>
 7    1  0.2626349E-009  0.1001889E+03  0.7561462E-02  0.1279899E+00
         -1   -1    0    0    0  501 -0.00000000000E+00  0.00000000000E+00  0.10448176911E+02  0.10448176911E+02  0.00000000000E+00 0.  1.
          1   -1    0    0  501    0  0.00000000000E+00 -0.00000000000E+00 -0.13242187365E+04  0.13242187365E+04  0.00000000000E+00 0. -1.
         25    2    1    2    0    0 -0.25042570591E+02 -0.34946431667E+02 -0.76635416485E+03  0.77768550892E+03  0.12509061266E+03 0.  0.
          5    1    3    3  502    0 -0.77159006802E+01  0.29528470001E+02 -0.55814649589E+03  0.55899592927E+03  0.41800000000E+01 0.  1.
         -5    1    3    3    0  502 -0.17326669911E+02 -0.64474901668E+02 -0.20820766896E+03  0.21868957965E+03  0.41800000000E+01 0.  1.
        -11    1    1    2    0    0  0.34263197807E+02 -0.24755158330E+02 -0.23750512038E+03  0.24123736609E+03  0.00000000000E+00 0. -1.
         11    1    1    2    0    0 -0.92206272158E+01  0.59701589997E+02 -0.30991127436E+03  0.31574403841E+03  0.00000000000E+00 0.  1.
</event>
<event>
 7    1  0.2626349E-009  0.1049441E+03  0.7561462E-02  0.1270230E+00
         -1   -1    0    0    0  501 -0.00000000000E+00  0.00000000000E+00  0.25716601394E+02  0.25716601394E+02  0.00000000000E+00 0.  1.
          1   -1    0    0  501    0  0.00000000000E+00 -0.00000000000E+00 -0.56426160958E+03  0.56426160958E+03  0.00000000000E+00 0. -1.
         25    2    1    2    0    0 -0.49925442344E+02 -0.14858933926E+02 -0.26627908905E+03  0.29877323719E+03  0.12509019258E+03 0.  0.
          5    1    3    3  502    0  0.11102045813E+02 -0.39337829591E+02 -0.23758645982E+02  0.47462257817E+02  0.41800000000E+01 0. -1.
         -5    1    3    3    0  502 -0.61027488158E+02  0.24478895666E+02 -0.24252044307E+03  0.25131097937E+03  0.41800000000E+01 0. -1.
        -11    1    1    2    0    0 -0.42716355217E+01 -0.31381772965E+02 -0.72512791762E+02  0.79127539540E+02  0.00000000000E+00 0.  1.
         11    1    1    2    0    0  0.54197077866E+02  0.46240706890E+02 -0.19975312737E+03  0.21207743425E+03  0.00000000000E+00 0. -1.
</event>
<event>
 7    1  0.2626349E-009  0.1294930E+03  0.7561462E-02  0.1228210E+00
          1   -1    0    0  501    0  0.00000000000E+00  0.00000000000E+00  0.22333850889E+03  0.22333850889E+03  0.00000000000E+00 0. -1.
         -1   -1    0    0    0  501 -0.00000000000E+00 -0.00000000000E+00 -0.11726967657E+03  0.11726967657E+03  0.00000000000E+00 0.  1.
         25    2    1    2    0    0 -0.25335922743E+02  0.96007917167E+02 -0.16842001991E+02  0.16059181246E+03  0.12508656226E+03 0.  0.
          5    1    3    3  502    0 -0.54432616209E+02  0.79683458829E+02 -0.53851898057E+02  0.11058870938E+03  0.41800000000E+01 0. -1.
         -5    1    3    3    0  502  0.29096693467E+02  0.16324458338E+02  0.37009896066E+02  0.50003103079E+02  0.41800000000E+01 0. -1.
        -11    1    1    2    0    0  0.16552698998E+02  0.11975728471E+02  0.76105798805E+01  0.21802083448E+02  0.00000000000E+00 0.  1.
         11    1    1    2    0    0  0.87832237445E+01 -0.10798364564E+03  0.11530025443E+03  0.15821428955E+03  0.00000000000E+00 0. -1.
</event>
<event>
 7    1  0.2626349E-009  0.1133002E+03  0.7561462E-02  0.1254578E+00
         -2   -1    0    0    0  501 -0.00000000000E+00  0.00000000000E+00  0.23173048681E+02  0.23173048681E+02  0.00000000000E+00 0.  1.
          2   -1    0    0  501    0  0.00000000000E+00 -0.00000000000E+00 -0.90093892027E+03  0.90093892027E+03  0.00000000000E+00 0. -1.
         25    2    1    2    0    0 -0.49316168360E+02 -0.51820519044E+02 -0.67577155808E+03  0.69096463138E+03  0.12508985754E+03 0.  0.
          5    1    3    3  502    0 -0.39693472908E+02  0.27497526899E+02 -0.42461014233E+03  0.42736744277E+03  0.41800000000E+01 0.  1.
         -5    1    3    3    0  502 -0.96226954515E+01 -0.79318045943E+02 -0.25116141575E+03  0.26359718861E+03  0.41800000000E+01 0.  1.
        -11    1    1    2    0    0  0.61090142443E+02  0.20137836513E+02 -0.62757457533E+02  0.89866770495E+02  0.00000000000E+00 0.  1.
         11    1    1    2    0    0 -0.11773974083E+02  0.31682682530E+02 -0.13923685597E+03  0.14328056707E+03  0.00000000000E+00 0. -1.
</event>
<event>
 7    1  0.2626349E-009  0.1123262E+03  0.7561462E-02  0.1256322E+00
         -2   -1    0    0    0  501 -0.00000000000E+00  0.00000000000E+00  0.72771925430E+03  0.72771925430E+03  0.00000000000E+00 0.  1.
          2   -1    0    0  501    0  0.00000000000E+00 -0.00000000000E+00 -0.26332550339E+02  0.26332550339E+02  0.00000000000E+00 0. -1.
         25    2    1    2    0    0 -0.74465243070E+02 -0.18814204575E+02  0.49127906838E+03  0.51273942539E+03  0.12509016189E+03 0.  0.
          5    1    3    3  502    0 -0.82178357842E+02  0.15517555586E+02  0.16991007190E+03  0.18942275989E+03  0.41800000000E+01 0. -1.
         -5    1    3    3    0  502  0.77131147724E+01 -0.34331760162E+02  0.32136899647E+03  0.32331666550E+03  0.41800000000E+01 0. -1.
        -11    1    1    2    0    0 -0.12405757020E+02  0.13669000829E+02  0.59714843181E+01  0.19401108624E+02  0.00000000000E+00 0. -1.
         11    1    1    2    0    0  0.86871000090E+02  0.51452037468E+01  0.20413615127E+03  0.22191127063E+03  0.00000000000E+00 0.  1.
</event>
<event>
 7    1  0.2626349E-009  0.1837136E+03  0.7561462E-02  0.1164257E+00
          2   -1    0    0  501    0  0.00000000000E+00  0.00000000000E+00  0.41701630848E+03  0.41701630848E+03  0.00000000000E+00 0. -1.
         -2   -1    0    0    0  501 -0.00000000000E+00 -0.00000000000E+00 -0.10695951964E+03  0.10695951964E+03  0.00000000000E+00 0.  1.
         25    2    1    2    0    0  0.56184900890E+02 -0.16004622473E+03  0.23208347591E+03  0.31349792718E+03  0.12508666364E+03 0.  0.
          5    1    3    3  502    0  0.84842783202E+02 -0.10133430452E+03  0.20204870920E+03  0.24147068647E+03  0.41800000000E+01 0. -1.
         -5    1    3    3    0  502 -0.28657882312E+02 -0.58711920213E+02  0.30034766705E+02  0.72027240713E+02  0.41800000000E+01 0. -1.
        -11    1    1    2    0    0 -0.36513060923E+02  0.94947292118E+02  0.96265584991E+02  0.14005447066E+03  0.00000000000E+00 0. -1.
         11    1    1    2    0    0 -0.19671839967E+02  0.65098932613E+02 -0.18292272051E+02  0.70423430277E+02  0.00000000000E+00 0.  1.
</event>
<event>
 7    1  0.2626349E-009  0.2798542E+03  0.7561462E-02  0.1095769E+00
         -2   -1    0    0    0  501 -0.00000000000E+00  0.00000000000E+00  0.75324219277E+02  0.75324219277E+02  0.00000000000E+00 0. -1.
          2   -1    0    0  501    0  0.00000000000E+00 -0.00000000000E+00 -0.11721407470E+04  0.11721407470E+04  0.00000000000E+00 0.  1.
         25    2    1    2    0    0  0.31161259902E+02 -0.27268036040E+03 -0.49433027535E+03  0.57908176909E+03  0.12509065152E+03 0.  0.
          5    1    3    3  502    0  0.41355057399E+02 -0.70430991786E+02 -0.24240394605E+03  0.25582789300E+03  0.41800000000E+01 0. -1.
         -5    1    3    3    0  502 -0.10193797497E+02 -0.20224936861E+03 -0.25192632929E+03  0.32325387608E+03  0.41800000000E+01 0. -1.
        -11    1    1    2    0    0 -0.27389440206E+02  0.14058411960E+03 -0.41487154893E+03  0.43889916636E+03  0.00000000000E+00 0.  1.
         11    1    1    2    0    0 -0.37718196953E+01  0.13209624080E+03 -0.18761470343E+03  0.22948403082E+03  0.00000000000E+00 0. -1.
</event>
<event>
 7    1  0.2626349E-009  0.1040575E+03  0.7561462E-02  0.1271988E+00
          1   -1    0    0  501    0  0.00000000000E+00  0.00000000000E+00  0.63872540614E+03  0.63872540614E+03  0.00000000000E+00 0. -1.
         -1   -1    0    0    0  501 -0.00000000000E+00 -0.00000000000E+00 -0.23083419021E+02  0.23083419021E+02  0.00000000000E+00 0.  1.
         25    2    1    2    0    0  0.22256320450E+02 -0.12673606694E+02  0.21301759197E+03  0.24835512990E+03  0.12509121454E+03 0.  0.
          5    1    3    3  502    0 -0.45289020615E+02 -0.16862757216E+02  0.14249326845E+03  0.15052326040E+03  0.41800000000E+01 0. -1.
         -5    1    3    3    0  502  0.67545341065E+02  0.41891505218E+01  0.70524323519E+02  0.97831869498E+02  0.41800000000E+01 0. -1.
        -11    1    1    2    0    0 -0.54440880750E+02  0.21338671886E+02  0.21100952397E+03  0.21896156654E+03  0.00000000000E+00 0. -1.
         11    1    1    2    0    0  0.32184560300E+02 -0.86650651920E+01  0.19161487118E+03  0.19449212872E+03  0.00000000000E+00 0.  1.
</event>
<event>
 7    1  0.3017687E-009  0.1141589E+03  0.7561462E-02  0.1253056E+00
         -2   -1    0    0    0  501 -0.00000000000E+00  0.00000000000E+00  0.71369607225E+02  0.71369607225E+02  0.00000000000E+00 0.  1.
          2   -1    0    0  501    0  0.00000000000E+00 -0.00000000000E+00 -0.22940347729E+03  0.22940347729E+03  0.00000000000E+00 0. -1.
         25    2    1    2    0    0  0.36410166344E+02  0.19026715774E+02 -0.24788822309E+02  0.13397706808E+03  0.12509057892E+03 0.  0.
          5    1    3    3  502    0  0.49370854385E+02  0.65050479604E+02 -0.26477854957E+02  0.85951121938E+02  0.41800000000E+01 0.  1.
         -5    1    3    3    0  502 -0.12960688041E+02 -0.46023763829E+02  0.16890326478E+01  0.48025946142E+02  0.41800000000E+01 0.  1.
        -11    1    1    2    0    0 -0.49807449894E+02  0.22692255946E+02 -0.58185522653E+02  0.79882886723E+02  0.00000000000E+00 0. -1.
         11    1    1    2    0    0  0.13397283550E+02 -0.41718971720E+02 -0.75059525107E+02  0.86913129716E+02  0.00000000000E+00 0.  1.
</event>
<event>
 7    1  0.2626349E-009  0.1927627E+03  0.7561462E-02  0.1155993E+00
          1   -1    0    0  501    0  0.00000000000E+00  0.00000000000E+00  0.15495673137E+03  0.15495673137E+03  0.00000000000E+00 0. -1.
         -1   -1    0    0    0  501 -0.00000000000E+00 -0.00000000000E+00 -0.25014104195E+03  0.25014104195E+03  0.00000000000E+00 0.  1.
         25    2    1    2    0    0 -0.42120972930E+02 -0.15933348372E+03 -0.45105101764E+02  0.21176360282E+03  0.12509203764E+03 0.  0.
          5    1    3    3  502    0  0.12696396151E+02 -0.14947936893E+03 -0.41918401676E+02  0.15582010464E+03  0.41800000000E+01 0. -1.
         -5    1    3    3    0  502 -0.54817369081E+02 -0.98541147843E+01 -0.31867000884E+01  0.55943498180E+02  0.41800000000E+01 0. -1.
        -11    1    1    2    0    0  0.15251857654E+02 -0.25804437098E+01  0.10152832134E+02  0.18502914689E+02  0.00000000000E+00 0. -1.
         11    1    1    2    0    0  0.26869115275E+02  0.16191392743E+03 -0.60232040954E+02  0.17483125581E+03  0.00000000000E+00 0.  1.
</event>
<event>
 7    1  0.2626349E-009  0.9940936E+02  0.7561462E-02  0.1281543E+00
         -1   -1    0    0    0  501 -0.00000000000E+00  0.00000000000E+00  0.30841836060E+02  0.30841836060E+02  0.00000000000E+00 0.  1.
          1   -1    0    0  501    0  0.00000000000E+00 -0.00000000000E+00 -0.45989257488E+03  0.45989257488E+03  0.00000000000E+00 0. -1.
         25    2    1    2    0    0  0.30721632240E+02  0.20069566585E+02 -0.19554181614E+03  0.23501266347E+03  0.12509094268E+03 0.  0.
          5    1    3    3  502    0 -0.36696429375E+02  0.25604794131E+02 -0.14108852850E+03  0.14807322069E+03  0.41800000000E+01 0.  1.
         -5    1    3    3    0  502  0.67418061615E+02 -0.55352275460E+01 -0.54453287646E+02  0.86939442783E+02  0.41800000000E+01 0.  1.
        -11    1    1    2    0    0 -0.26396903627E+02 -0.49638143301E+02 -0.71379265507E+02  0.90861110140E+02  0.00000000000E+00 0. -1.
         11    1    1    2    0    0 -0.43247286137E+01  0.29568576716E+02 -0.16212965717E+03  0.16486063733E+03  0.00000000000E+00 0.  1.
</event>
<event>
 7    1  0.2626349E-009  0.1085510E+03  0.7561462E-02  0.1263277E+00
         -2   -1    0    0    0  501 -0.00000000000E+00  0.00000000000E+00  0.16462890718E+02  0.16462890718E+02  0.00000000000E+00 0.  1.
          2   -1    0    0  501    0  0.00000000000E+00 -0.00000000000E+00 -0.73154799302E+03  0.73154799302E+03  0.00000000000E+00 0. -1.
         25    2    1    2    0    0 -0.24572478543E+02  0.78921463496E+01 -0.37025833103E+03  0.39167101098E+03  0.12509538947E+03 0.  0.
          5    1    3    3  502    0  0.86128859185E+01  0.62529419717E+02 -0.19963912193E+03  0.20942149254E+03  0.41800000000E+01 0. -1.
         -5    1    3    3    0  502 -0.33185364461E+02 -0.54637273367E+02 -0.17061920910E+03  0.18224951843E+03  0.41800000000E+01 0. -1.
        -11    1    1    2    0    0 -0.15843490597E+02 -0.36817291786E+02 -0.16075182707E+03  0.16567341089E+03  0.00000000000E+00 0. -1.
         11    1    1    2    0    0  0.40415969140E+02  0.28925145437E+02 -0.18407494420E+03  0.19066646187E+03  0.00000000000E+00 0.  1.
</event>
<event>
 7    1  0.2626349E-009  0.1227723E+03  0.7561462E-02  0.1238593E+00
         -2   -1    0    0    0  501 -0.00000000000E+00  0.00000000000E+00  0.33537434851E+02  0.33537434851E+02  0.00000000000E+00 0.  1.
          2   -1    0    0  501    0  0.00000000000E+00 -0.00000000000E+00 -0.78030751757E+03  0.78030751757E+03  0.00000000000E+00 0. -1.
         25    2    1    2    0    0  0.30499176517E+02  0.10688524836E+03 -0.50606545540E+03  0.53301556497E+03  0.12509472918E+03 0.  0.
          5    1    3    3  502    0 -0.46982055072E+01  0.81059101512E+02 -0.46780071279E+03  0.47481325841E+03  0.41800000000E+01 0.  1.
         -5    1    3    3    0  502  0.35197382024E+02  0.25826146852E+02 -0.38264742607E+02  0.58202306564E+02  0.41800000000E+01 0.  1.
        -11    1    1    2    0    0 -0.31304195366E+02 -0.29554856097E+02 -0.20977973890E+02  0.47890683384E+02  0.00000000000E+00 0.  1.
         11    1    1    2    0    0  0.80501884935E+00 -0.77330392267E+02 -0.21972665343E+03  0.23293870407E+03  0.00000000000E+00 0. -1.
</event>
<event>
 7    1  0.2626349E-009  0.1292869E+03  0.7561462E-02  0.1228518E+00
         -2   -1    0    0    0  501 -0.00000000000E+00  0.00000000000E+00  0.24786223264E+03  0.24786223264E+03  0.00000000000E+00 0.  1.
          2   -1    0    0  501    0  0.00000000000E+00 -0.00000000000E+00 -0.13435176574E+03  0.13435176574E+03  0.00000000000E+00 0. -1.
         25    2    1    2    0    0  0.11664129261E+03  0.52028516800E+02  0.13391135089E+03  0.22336564882E+03  0.12509118862E+03 0.  0.
          5    1    3    3  502    0  0.42045820636E+02  0.32709274918E+02  0.13604899582E+03  0.14616617037E+03  0.41800000000E+01 0.  1.
         -5    1    3    3    0  502  0.74595471977E+02  0.19319241881E+02 -0.21376449270E+01  0.77199478445E+02  0.41800000000E+01 0.  1.
        -11    1    1    2    0    0 -0.10801095499E+03 -0.45767726051E+02  0.18281479999E+02  0.11872347559E+03  0.00000000000E+00 0.  1.
         11    1    1    2    0    0 -0.86303376247E+01 -0.62607907492E+01 -0.38682363982E+02  0.40124873976E+02  0.00000000000E+00 0. -1.
</event>
<event>
 7    1  0.2626349E-009  0.8656011E+02  0.7561462E-02  0.1311402E+00
          2   -1    0    0  501    0  0.00000000000E+00  0.00000000000E+00  0.91005289164E+02  0.91005289164E+02  0.00000000000E+00 0. -1.
         -2   -1    0    0    0  501 -0.00000000000E+00 -0.00000000000E+00 -0.15432821237E+03  0.15432821237E+03  0.00000000000E+00 0.  1.
         25    2    1    2    0    0 -0.19863116141E+02  0.24591536958E+02 -0.76071814986E+02  0.14977935098E+03  0.12509055068E+03 0.  0.
          5    1    3    3  502    0  0.17157408335E+02 -0.26326420967E+02 -0.80514968364E+02  0.86530859423E+02  0.41800000000E+01 0. -1.
         -5    1    3    3    0  502 -0.37020524476E+02  0.50917957925E+02  0.44431533790E+01  0.63248491553E+02  0.41800000000E+01 0. -1.
        -11    1    1    2    0    0  0.22431684351E+02 -0.48944150300E+02 -0.17521506594E+02  0.56619020698E+02  0.00000000000E+00 0.  1.
         11    1    1    2    0    0 -0.25685682101E+01  0.24352613342E+02  0.30270398376E+02  0.38935129858E+02  0.00000000000E+00 0. -1.
</event>
<event>
 7    1  0.2626349E-009  0.1367014E+03  0.7561462E-02  0.1217838E+00
          2   -1    0    0  501    0  0.00000000000E+00  0.00000000000E+00  0.11180289345E+04  0.11180289345E+04  0.00000000000E+00 0. -1.
         -2   -1    0    0    0  501 -0.00000000000E+00 -0.00000000000E+00 -0.27659367133E+02  0.27659367133E+02  0.00000000000E+00 0.  1.
         25    2    1    2    0    0 -0.10376050551E+03 -0.85945419987E+02  0.67237540640E+03  0.69705730372E+03  0.12508932733E+03 0.  0.
          5    1    3    3  502    0 -0.45153831049E+02 -0.21512748453E+02  0.51246427038E+03  0.51491627243E+03  0.41800000000E+01 0. -1.
         -5    1    3    3    0  502 -0.58606674460E+02 -0.64432671534E+02  0.15991113603E+03  0.18214103128E+03  0.41800000000E+01 0. -1.
        -11    1    1    2    0    0  0.16168500414E+02  0.23146182364E+02  0.16027674345E+02  0.32466174838E+02  0.00000000000E+00 0.  1.
         11    1    1    2    0    0  0.87592005095E+02  0.62799237623E+02  0.40196648662E+03  0.41616482308E+03  0.00000000000E+00 0. -1.
</event>
<event>
 7    1  0.2695324E-009  0.1141009E+03  0.7561462E-02  0.1253159E+00
         -1   -1    0    0    0  501 -0.00000000000E+00  0.00000000000E+00  0.44194307659E+03  0.44194307659E+03  0.00000000000E+00 0.  1.
          1   -1    0    0  501    0  0.00000000000E+00 -0.00000000000E+00 -0.35570510572E+02  0.35570510572E+02  0.00000000000E+00 0. -1.
         25    2    1    2    0    0 -0.35328494042E+02  0.21317465123E+01  0.32391046537E+03  0.34902504058E+03  0.12509133682E+03 0.  0.
          5    1    3    3  502    0 -0.71850642918E+01  0.62453156416E+02  0.14546183691E+03  0.15852015737E+03  0.41800000000E+01 0.  1.
         -5    1    3    3    0  502 -0.28143429750E+02 -0.60321409903E+02  0.17844862846E+03  0.19050488322E+03  0.41800000000E+01 0.  1.
        -11    1    1    2    0    0 -0.31572369846E+02 -0.14238089869E+00  0.24896269749E+02  0.40207698982E+02  0.00000000000E+00 0.  1.
         11    1    1    2    0    0  0.66900863887E+02 -0.19893656136E+01  0.57565830899E+02  0.88280847591E+02  0.00000000000E+00 0. -1.
</event>
<event>
 7    1  0.2626349E-009  0.1405574E+03  0.7561462E-02  0.1212581E+00
          3   -1    0    0  501    0  0.00000000000E+00  0.00000000000E+00  0.14799869280E+03  0.14799869280E+03  0.00000000000E+00 0. -1.
         -3   -1    0    0    0  501 -0.00000000000E+00 -0.00000000000E+00 -0.18306634238E+03  0.18306634238E+03  0.00000000000E+00 0.  1.
         25    2    1    2    0    0  0.12053652571E+03  0.10822513294E+02  0.59551341234E+01  0.17414751816E+03  0.12508282710E+03 0.  0.
          5    1    3    3  502    0  0.11610890777E+03  0.20752246052E+02  0.50302807683E+02  0.12829567039E+03  0.41800000000E+01 0.  1.
         -5    1    3    3    0  502  0.44276179333E+01 -0.99297327590E+01 -0.44347673560E+02  0.45851847764E+02  0.41800000000E+01 0.  1.
        -11    1    1    2    0    0 -0.19891319700E+02 -0.41672679125E+02 -0.11442451190E+02  0.47573169687E+02  0.00000000000E+00 0.  1.
         11    1    1    2    0    0 -0.10064520601E+03  0.30850165831E+02 -0.29580332514E+02  0.10934434734E+03  0.00000000000E+00 0. -1.
</event>
<event>
 7    1  0.2626349E-009  0.1186902E+03  0.7561462E-02  0.1245274E+00
          1   -1    0    0  501    0  0.00000000000E+00  0.00000000000E+00  0.22107626005E+02  0.22107626005E+02  0.00000000000E+00 0. -1.
         -1   -1    0    0    0  501 -0.00000000000E+00 -0.00000000000E+00 -0.71182403300E+03  0.71182403300E+03  0.00000000000E+00 0.  1.
         25    2    1    2    0    0 -0.29932248711E+02  0.44636259669E+02 -0.47477304084E+03  0.49390954177E+03  0.12509540340E+03 0.  0.
          5    1    3    3  502    0  0.20909277654E+02  0.70990080850E+02 -0.20229075979E+03  0.21544329502E+03  0.41800000000E+01 0.  1.
         -5    1    3    3    0  502 -0.50841526365E+02 -0.26353821181E+02 -0.27248228105E+03  0.27846624675E+03  0.41800000000E+01 0.  1.
        -11    1    1    2    0    0  0.56803341471E+02 -0.53007120695E+02 -0.14250947829E+03  0.16231243283E+03  0.00000000000E+00 0. -1.
         11    1    1    2    0    0 -0.26871092761E+02  0.83708610254E+01 -0.72433887859E+02  0.77709684408E+02  0.00000000000E+00 0.  1.
</event>
<event>
 7    1  0.2626349E-009  0.2099229E+03  0.7561462E-02  0.1141627E+00
         -2   -1    0    0    0  501 -0.00000000000E+00  0.00000000000E+00  0.50706263004E+02  0.50706263004E+02  0.00000000000E+00 0.  1.
          2   -1    0    0  501    0  0.00000000000E+00 -0.00000000000E+00 -0.94006366030E+03  0.94006366030E+03  0.00000000000E+00 0. -1.
         25    2    1    2    0    0 -0.15674802317E+02 -0.18109452583E+03 -0.56387355309E+03  0.60550928553E+03  0.12508870559E+03 0.  0.
          5    1    3    3  502    0  0.41918938771E+02 -0.28770797139E+02 -0.20733204754E+03  0.21351582267E+03  0.41800000000E+01 0.  1.
         -5    1    3    3    0  502 -0.57593741087E+02 -0.15232372869E+03 -0.35654150556E+03  0.39199346285E+03  0.41800000000E+01 0.  1.
        -11    1    1    2    0    0 -0.40158171102E+02  0.55701013778E+02 -0.11646238858E+03  0.13519899998E+03  0.00000000000E+00 0. -1.
         11    1    1    2    0    0  0.55832973419E+02  0.12539351206E+03 -0.20902145562E+03  0.25006163780E+03  0.00000000000E+00 0.  1.
</event>
<event>
 7    1  0.2626349E-009  0.1033526E+03  0.7561462E-02  0.1273400E+00
          1   -1    0    0  501    0  0.00000000000E+00  0.00000000000E+00  0.54552231595E+03  0.54552231595E+03  0.00000000000E+00 0. -1.
         -1   -1    0    0    0  501 -0.00000000000E+00 -0.00000000000E+00 -0.23345482149E+02  0.23345482149E+02  0.00000000000E+00 0.  1.
         25    2    1    2    0    0 -0.11807554692E+02  0.17142040522E+02  0.22988577730E+03  0.26253933886E+03  0.12508463511E+03 0.  0.
          5    1    3    3  502    0  0.32211844056E+02 -0.37563285868E+02  0.55347926186E+02  0.74360397227E+02  0.41800000000E+01 0.  1.
         -5    1    3    3    0  502 -0.44019398747E+02  0.54705326390E+02  0.17453785112E+03  0.18817894163E+03  0.41800000000E+01 0.  1.
        -11    1    1    2    0    0  0.81590495338E+01 -0.51505681535E+02  0.12388009894E+03  0.13440864642E+03  0.00000000000E+00 0.  1.
         11    1    1    2    0    0  0.36485051578E+01  0.34363641013E+02  0.16841095757E+03  0.17191981283E+03  0.00000000000E+00 0. -1.
</event>
<event>
 7    1  0.2626349E-009  0.1127968E+03  0.7561462E-02  0.1255477E+00
         -2   -1    0    0    0  501 -0.00000000000E+00  0.00000000000E+00  0.25996420926E+02  0.25996420926E+02  0.00000000000E+00 0.  1.
          2   -1    0    0  501    0  0.00000000000E+00 -0.00000000000E+00 -0.65569850643E+03  0.65569850643E+03  0.00000000000E+00 0. -1.
         25    2    1    2    0    0 -0.57970819924E+02 -0.46961740752E+00 -0.23815939239E+03  0.27518287572E+03  0.12507950433E+03 0.  0.
          5    1    3    3  502    0 -0.42851601006E+02 -0.59286593721E+02 -0.97891954530E+02  0.12227619174E+03  0.41800000000E+01 0.  1.
         -5    1    3    3    0  502 -0.15119218918E+02  0.58816976313E+02 -0.14026743786E+03  0.15290668399E+03  0.41800000000E+01 0.  1.
        -11    1    1    2    0    0 -0.16714733669E+02  0.12358221537E+01 -0.14559241780E+02  0.22200925639E+02  0.00000000000E+00 0.  1.
         11    1    1    2    0    0  0.74685553593E+02 -0.76620474617E+00 -0.37698345133E+03  0.38431112599E+03  0.00000000000E+00 0. -1.
</event>
<event>
 7    1  0.2626349E-009  0.1081328E+03  0.7561462E-02  0.1264067E+00
         -1   -1    0    0    0  501 -0.00000000000E+00  0.00000000000E+00  0.51062823336E+02  0.51062823336E+02  0.00000000000E+00 0.  1.
          1   -1    0    0  501    0  0.00000000000E+00 -0.00000000000E+00 -0.29815813831E+03  0.29815813831E+03  0.00000000000E+00 0. -1.
         25    2    1    2    0    0  0.34093715814E+00  0.48362971922E+02 -0.17796077658E+03  0.22283420246E+03  0.12508377392E+03 0.  0.
          5    1    3    3  502    0 -0.47099851912E+02  0.40439412590E+02 -0.15939530985E+03  0.17110838478E+03  0.41800000000E+01 0. -1.
         -5    1    3    3    0  502  0.47440789070E+02  0.79235593320E+01 -0.18565466724E+02  0.51725817681E+02  0.41800000000E+01 0. -1.
        -11    1    1    2    0    0 -0.30634146918E+02 -0.64528379433E+02 -0.45172354947E+02  0.84515704820E+02  0.00000000000E+00 0. -1.
         11    1    1    2    0    0  0.30293209760E+02  0.16165407511E+02 -0.23962183450E+02  0.41871054360E+02  0.00000000000E+00 0.  1.
</event>
<event>
 7    1  0.2626349E-009  0.1592537E+03  0.7561462E-02  0.1189542E+00
         -2   -1    0    0    0  501 -0.00000000000E+00  0.00000000000E+00  0.23618670512E+03  0.23618670512E+03  0.00000000000E+00 0.  1.
          2   -1    0    0  501    0  0.00000000000E+00 -0.00000000000E+00 -0.12697576672E+03  0.12697576672E+03  0.00000000000E+00 0. -1.
         25    2    1    2    0    0 -0.46026799375E+02 -0.12651412043E+03  0.48939916118E+02  0.19017671335E+03  0.12509107875E+03 0.  0.
          5    1    3    3  502    0 -0.89402981861E+02 -0.89761580461E+02  0.34569825640E+02  0.13138713688E+03  0.41800000000E+01 0.  1.
         -5    1    3    3    0  502  0.43376182486E+02 -0.36752539966E+02  0.14370090479E+02  0.58789576469E+02  0.41800000000E+01 0.  1.
        -11    1    1    2    0    0  0.28051519009E+02  0.68941018129E+02 -0.15615568224E+02  0.76049968246E+02  0.00000000000E+00 0. -1.
         11    1    1    2    0    0  0.17975280366E+02  0.57573102299E+02  0.75886590509E+02  0.96935790252E+02  0.00000000000E+00 0.  1.
</event>
<event>
 7    1  0.2626349E-009  0.1324515E+03  0.7561462E-02  0.1223863E+00
          1   -1    0    0  501    0  0.00000000000E+00  0.00000000000E+00  0.12354096635E+04  0.12354096635E+04  0.00000000000E+00 0. -1.
         -1   -1    0    0    0  501 -0.00000000000E+00 -0.00000000000E+00 -0.15841884691E+02  0.15841884691E+02  0.00000000000E+00 0.  1.
         25    2    1    2    0    0 -0.69539243243E+02  0.40942562635E+02  0.84872794908E+03  0.86168361217E+03  0.12509003216E+03 0.  0.
          5    1    3    3  502    0 -0.24666914656E+02  0.83096114377E+02  0.46566919740E+03  0.47368628301E+03  0.41800000000E+01 0.  1.
         -5    1    3    3    0  502 -0.44872328587E+02 -0.42153551742E+02  0.38305875168E+03  0.38799732916E+03  0.41800000000E+01 0.  1.
        -11    1    1    2    0    0 -0.18122082598E+02 -0.18560413375E+02  0.51570875042E+02  0.57727410949E+02  0.00000000000E+00 0.  1.
         11    1    1    2    0    0  0.87661325841E+02 -0.22382149260E+02  0.31926895469E+03  0.33184052507E+03  0.00000000000E+00 0. -1.
</event>
<event>
 7    1  0.2626349E-009  0.1018821E+03  0.7561462E-02  0.1276387E+00
          2   -1    0    0  501    0  0.00000000000E+00  0.00000000000E+00  0.72934213893E+02  0.72934213893E+02  0.00000000000E+00 0. -1.
         -2   -1    0    0    0  501 -0.00000000000E+00 -0.00000000000E+00 -0.17669193940E+03  0.17669193940E+03  0.00000000000E+00 0.  1.
         25    2    1    2    0    0 -0.23472899139E+02 -0.34404664851E+01 -0.29229865965E+02  0.13063199251E+03  0.12509004197E+03 0.  0.
          5    1    3    3  502    0 -0.25413744763E+02 -0.60007318478E+02 -0.34101528796E+02  0.73669012210E+02  0.41800000000E+01 0.  1.
         -5    1    3    3    0  502  0.19408456237E+01  0.56566851993E+02  0.48716628308E+01  0.56962980302E+02  0.41800000000E+01 0.  1.
        -11    1    1    2    0    0 -0.29081655724E+02  0.11093608464E+01 -0.16983236229E+01  0.29152318677E+02  0.00000000000E+00 0.  1.
         11    1    1    2    0    0  0.52554554863E+02  0.23311056386E+01 -0.72829535920E+02  0.89841842105E+02  0.00000000000E+00 0. -1.
</event>
<event>
 7    1  0.2626349E-009  0.1649174E+03  0.7561462E-02  0.1183254E+00
          2   -1    0    0  501    0  0.00000000000E+00  0.00000000000E+00  0.66096410321E+03  0.66096410321E+03  0.00000000000E+00 0. -1.
         -2   -1    0    0    0  501 -0.00000000000E+00 -0.00000000000E+00 -0.49421659774E+02  0.49421659774E+02  0.00000000000E+00 0.  1.
         25    2    1    2    0    0 -0.96010319424E+02  0.10622430501E+03  0.28684314564E+03  0.34413395846E+03  0.12509039433E+03 0.  0.
          5    1    3    3  502    0 -0.59724832621E+02  0.11726914557E+03  0.27378858276E+03  0.30380383241E+03  0.41800000000E+01 0.  1.
         -5    1    3    3    0  502 -0.36285486804E+02 -0.11044840559E+02  0.13054562878E+02  0.40330126054E+02  0.41800000000E+01 0.  1.
        -11    1    1    2    0    0  0.10366186204E+03 -0.75231368577E+02  0.19974318772E+03  0.23728228232E+03  0.00000000000E+00 0.  1.
         11    1    1    2    0    0 -0.76515426150E+01 -0.30992936438E+02  0.12495611008E+03  0.12896952221E+03  0.00000000000E+00 0. -1.
</event>
<event>
 7    1  0.2626349E-009  0.8090012E+02  0.7561462E-02  0.1326516E+00
          1   -1    0    0  501    0  0.00000000000E+00  0.00000000000E+00  0.15032690877E+03  0.15032690877E+03  0.00000000000E+00 0. -1.
         -1   -1    0    0    0  501 -0.00000000000E+00 -0.00000000000E+00 -0.11298458619E+03  0.11298458619E+03  0.00000000000E+00 0.  1.
         25    2    1    2    0    0 -0.38635783198E+02  0.46141772505E+02  0.59097163530E+02  0.15087243871E+03  0.12509288994E+03 0.  0.
          5    1    3    3  502    0 -0.47681385838E+02  0.25880578977E+02 -0.27790383685E+02  0.61099073225E+02  0.41800000000E+01 0.  1.
         -5    1    3    3    0  502  0.90456026404E+01  0.20261193528E+02  0.86887547215E+02  0.89773365489E+02  0.41800000000E+01 0.  1.
        -11    1    1    2    0    0 -0.39933563692E+01  0.12037552684E+02 -0.36658073879E+02  0.38789998069E+02  0.00000000000E+00 0.  1.
         11    1    1    2    0    0  0.42629139567E+02 -0.58179325189E+02  0.14903232927E+02  0.73649058184E+02  0.00000000000E+00 0. -1.
</event>
<event>
 7    1  0.2626349E-009  0.2182728E+03  0.7561462E-02  0.1135177E+00
          1   -1    0    0  501    0  0.00000000000E+00  0.00000000000E+00  0.25023764237E+03  0.25023764237E+03  0.00000000000E+00 0. -1.
         -1   -1    0    0    0  501 -0.00000000000E+00 -0.00000000000E+00 -0.21640283621E+03  0.21640283621E+03  0.00000000000E+00 0.  1.
         25    2    1    2    0    0  0.10284662408E+03  0.17769826990E+03  0.24950804991E+02  0.24170821996E+03  0.12508484207E+03 0.  0.
          5    1    3    3  502    0  0.79994781067E+02  0.86060850499E+02  0.70164008038E+02  0.13691638109E+03  0.41800000000E+01 0.  1.
         -5    1    3    3    0  502  0.22851843014E+02  0.91637419404E+02 -0.45213203047E+02  0.10479183887E+03  0.41800000000E+01 0.  1.
        -11    1    1    2    0    0  0.22303349963E+01 -0.82863194724E+02  0.90668245867E+01  0.83387593455E+02  0.00000000000E+00 0. -1.
         11    1    1    2    0    0 -0.10507695908E+03 -0.94835075179E+02 -0.18282341969E+00  0.14154466517E+03  0.00000000000E+00 0.  1.
</event>
<event>
 7    1  0.2626349E-009  0.1401840E+03  0.7561462E-02  0.1213082E+00
         -1   -1    0    0    0  501 -0.00000000000E+00  0.00000000000E+00  0.18636937543E+02  0.18636937543E+02  0.00000000000E+00 0.  1.
          1   -1    0    0  501    0  0.00000000000E+00 -0.00000000000E+00 -0.12060797574E+04  0.12060797574E+04  0.00000000000E+00 0. -1.
         25    2    1    2    0    0 -0.97898378596E+02  0.17071887340E+02 -0.61659226797E+03  0.63695272654E+03  0.12508880468E+03 0.  0.
          5    1    3    3  502    0 -0.32511090276E+02  0.64369925430E+02 -0.20121959568E+03  0.21379255454E+03  0.41800000000E+01 0. -1.
         -5    1    3    3    0  502 -0.65387288319E+02 -0.47298038090E+02 -0.41537267229E+03  0.42316017200E+03  0.41800000000E+01 0. -1.
        -11    1    1    2    0    0  0.78771304332E+02 -0.47057791896E+02 -0.50149815906E+03  0.50982326124E+03  0.00000000000E+00 0. -1.
         11    1    1    2    0    0  0.19127074263E+02  0.29985904556E+02 -0.69352392821E+02  0.77940707156E+02  0.00000000000E+00 0.  1.
</event>
<event>
 7    1  0.2626349E-009  0.9628546E+02  0.7561462E-02  0.1288307E+00
          3   -1    0    0  501    0  0.00000000000E+00  0.00000000000E+00  0.14539230480E+03  0.14539230480E+03  0.00000000000E+00 0. -1.
         -3   -1    0    0    0  501 -0.00000000000E+00 -0.00000000000E+00 -0.96633251077E+02  0.96633251077E+02  0.00000000000E+00 0.  1.
         25    2    1    2    0    0 -0.97981663354E+01  0.45607561231E+02  0.24115650224E+02  0.13566598907E+03  0.12509053642E+03 0.  0.
          5    1    3    3  502    0 -0.43437818950E+02  0.13363202310E+02 -0.36962193434E+02  0.58728999945E+02  0.41800000000E+01 0.  1.
         -5    1    3    3    0  502  0.33639652615E+02  0.32244358921E+02  0.61077843658E+02  0.76936989129E+02  0.41800000000E+01 0.  1.
        -11    1    1    2    0    0  0.25199757548E+02  0.20365696267E+02  0.20802334278E+02  0.38503590434E+02  0.00000000000E+00 0. -1.
         11    1    1    2    0    0 -0.15401591213E+02 -0.65973257497E+02  0.38410692239E+01  0.67855976373E+02  0.00000000000E+00 0.  1.
</event>
<event>
 7    1  0.2626349E-009  0.9160464E+02  0.7561462E-02  0.1299012E+00
          3   -1    0    0  501    0  0.00000000000E+00  0.00000000000E+00  0.28044456476E+03  0.28044456476E+03  0.00000000000E+00 0. -1.
         -3   -1    0    0    0  501 -0.00000000000E+00 -0.00000000000E+00 -0.60118478867E+02  0.60118478867E+02  0.00000000000E+00 0.  1.
         25    2    1    2    0    0  0.53602417227E+02  0.33342518533E+02  0.15951277453E+03  0.21231311365E+03  0.12509032862E+03 0.  0.
          5    1    3    3  502    0  0.11855177423E+02  0.26872171489E+02 -0.14624621388E+02  0.33075833822E+02  0.41800000000E+01 0.  1.
         -5    1    3    3    0  502  0.41747239804E+02  0.64703470442E+01  0.17413739592E+03  0.17923727982E+03  0.41800000000E+01 0.  1.
        -11    1    1    2    0    0  0.23636953945E+02 -0.23318355945E+02  0.80241426953E+01  0.34159013185E+02  0.00000000000E+00 0.  1.
         11    1    1    2    0    0 -0.77239371172E+02 -0.10024162588E+02  0.52789168668E+02  0.94090916795E+02  0.00000000000E+00 0. -1.
</event>
<event>
 7    1  0.2626349E-009  0.1010296E+03  0.7561462E-02  0.1278146E+00
         -1   -1    0    0    0  501 -0.00000000000E+00  0.00000000000E+00  0.18469580241E+02  0.18469580241E+02  0.00000000000E+00 0.  1.
          1   -1    0    0  501    0  0.00000000000E+00 -0.00000000000E+00 -0.75768491879E+03  0.75768491879E+03  0.00000000000E+00 0. -1.
         25    2    1    2    0    0  0.51818494209E+01  0.93553510092E+01 -0.57045509068E+03  0.58410650004E+03  0.12508804399E+03 0.  0.
          5    1    3    3  502    0  0.50545140323E+02  0.42321446198E+02 -0.24108552898E+03  0.24997123975E+03  0.41800000000E+01 0. -1.
         -5    1    3    3    0  502 -0.45363290902E+02 -0.32966095189E+02 -0.32936956170E+03  0.33413526029E+03  0.41800000000E+01 0. -1.
        -11    1    1    2    0    0  0.14858840470E+02  0.31187053700E+02 -0.28844492359E+02  0.45004690845E+02  0.00000000000E+00 0.  1.
         11    1    1    2    0    0 -0.20040689891E+02 -0.40542404709E+02 -0.13991575550E+03  0.14704330814E+03  0.00000000000E+00 0. -1.
</event>
<event>
 7    1  0.2626349E-009  0.1071892E+03  0.7561462E-02  0.1265865E+00
         -1   -1    0    0    0  501 -0.00000000000E+00  0.00000000000E+00  0.17857193840E+03  0.17857193840E+03  0.00000000000E+00 0.  1.
          1   -1    0    0  501    0  0.00000000000E+00 -0.00000000000E+00 -0.25779907697E+03  0.25779907697E+03  0.00000000000E+00 0. -1.
         25    2    1    2    0    0 -0.60619161770E+02  0.68510301427E+02 -0.20305892566E+03  0.25543961377E+03  0.12509246508E+03 0.  0.
          5    1    3    3  502    0 -0.47395352463E+02  0.69905396273E+02 -0.21870611181E+03  0.23448436964E+03  0.41800000000E+01 0. -1.
         -5    1    3    3    0  502 -0.13223809308E+02 -0.13950948464E+01  0.15647186149E+02  0.20955244132E+02  0.41800000000E+01 0. -1.
        -11    1    1    2    0    0  0.74407745670E+02 -0.69809876447E+02  0.66118409926E+02  0.12157950319E+03  0.00000000000E+00 0. -1.
         11    1    1    2    0    0 -0.13788583900E+02  0.12995750200E+01  0.57713377166E+02  0.59351898412E+02  0.00000000000E+00 0.  1.
</event>
<event>
 7    1  0.2626349E-009  0.1156087E+03  0.7561462E-02  0.1250522E+00
          1   -1    0    0  501    0  0.00000000000E+00  0.00000000000E+00  0.23172443163E+03  0.23172443163E+03  0.00000000000E+00 0. -1.
         -1   -1    0    0    0  501 -0.00000000000E+00 -0.00000000000E+00 -0.10064887341E+03  0.10064887341E+03  0.00000000000E+00 0.  1.
         25    2    1    2    0    0 -0.59576929441E+02 -0.53439696288E+02  0.15092940799E+03  0.21173803079E+03  0.12509234919E+03 0.  0.
          5    1    3    3  502    0  0.34938160878E+02 -0.29832615376E+02  0.24998749429E+02  0.52469704580E+02  0.41800000000E+01 0. -1.
         -5    1    3    3    0  502 -0.94515090319E+02 -0.23607080912E+02  0.12593065857E+03  0.15926832621E+03  0.41800000000E+01 0. -1.
        -11    1    1    2    0    0  0.18792273597E+02  0.40733327554E+02 -0.50885411763E+02  0.67835673881E+02  0.00000000000E+00 0.  1.
         11    1    1    2    0    0  0.40784655845E+02  0.12706368734E+02  0.31031561993E+02  0.52799600363E+02  0.00000000000E+00 0. -1.
</event>
<event>
 7    1  0.2626349E-009  0.9793015E+02  0.7561462E-02  0.1284710E+00
         -2   -1    0    0    0  501 -0.00000000000E+00  0.00000000000E+00  0.11498946162E+03  0.11498946162E+03  0.00000000000E+00 0.  1.
          2   -1    0    0  501    0  0.00000000000E+00 -0.00000000000E+00 -0.14088482300E+03  0.14088482300E+03  0.00000000000E+00 0. -1.
         25    2    1    2    0    0 -0.24765921545E+02 -0.49999673963E+02 -0.50247096621E+02  0.14589160591E+03  0.12508505782E+03 0.  0.
          5    1    3    3  502    0  0.57235347812E+01 -0.67766992496E+02  0.16650659373E+02  0.70141578111E+02  0.41800000000E+01 0. -1.
         -5    1    3    3    0  502 -0.30489456326E+02  0.17767318533E+02 -0.66897755994E+02  0.75750027802E+02  0.41800000000E+01 0. -1.
        -11    1    1    2    0    0 -0.25887671114E+02  0.10423756511E+02 -0.17812018066E+02  0.33107313439E+02  0.00000000000E+00 0. -1.
         11    1    1    2    0    0  0.50653592659E+02  0.39575917451E+02  0.42163753314E+02  0.76875365267E+02  0.00000000000E+00 0.  1.
</event>
<event>
 7    1  0.2626349E-009  0.1230389E+03  0.7561462E-02  0.1238166E+00
          1   -1    0    0  501    0  0.00000000000E+00  0.00000000000E+00  0.32414819610E+03  0.32414819610E+03  0.00000000000E+00 0. -1.
         -1   -1    0    0    0  501 -0.00000000000E+00 -0.00000000000E+00 -0.56241793065E+02  0.56241793065E+02  0.00000000000E+00 0.  1.
         25    2    1    2    0    0 -0.62780388818E+02 -0.60079839683E+01  0.21607068998E+03  0.25751097520E+03  0.12509151125E+03 0.  0.
          5    1    3    3  502    0 -0.98647985581E+02  0.96614343752E+01  0.13658924182E+03  0.16881605893E+03  0.41800000000E+01 0.  1.
         -5    1    3    3    0  502  0.35867596763E+02 -0.15669418344E+02  0.79481448165E+02  0.88694916265E+02  0.41800000000E+01 0.  1.
        -11    1    1    2    0    0  0.82488198608E+02  0.18010094350E+02  0.26234063078E+02  0.88413191740E+02  0.00000000000E+00 0.  1.
         11    1    1    2    0    0 -0.19707809790E+02 -0.12002110382E+02  0.25601649969E+02  0.34465822223E+02  0.00000000000E+00 0. -1.
</event>
<event>
 7    1  0.2626349E-009  0.1558597E+03  0.7561462E-02  0.1193452E+00
          2   -1    0    0  501    0  0.00000000000E+00  0.00000000000E+00  0.32846248772E+03  0.32846248772E+03  0.00000000000E+00 0. -1.
         -2   -1    0    0    0  501 -0.00000000000E+00 -0.00000000000E+00 -0.11537808364E+03  0.11537808364E+03  0.00000000000E+00 0.  1.
         25    2    1    2    0    0  0.12906311570E+03  0.42809017768E+02  0.21099520883E+03  0.28045955233E+03  0.12509469417E+03 0.  0.
          5    1    3    3  502    0  0.52806502391E+02 -0.34012850140E+02  0.13247150802E+03  0.14666824301E+03  0.41800000000E+01 0. -1.
         -5    1    3    3    0  502  0.76256613312E+02  0.76821867908E+02  0.78523700805E+02  0.13379130932E+03  0.41800000000E+01 0. -1.
        -11    1    1    2    0    0 -0.12866817788E+02  0.62632619449E+01  0.30852295561E+02  0.34009522072E+02  0.00000000000E+00 0. -1.
         11    1    1    2    0    0 -0.11619629791E+03 -0.49072279713E+02 -0.28763100316E+02  0.12937149696E+03  0.00000000000E+00 0.  1.
</event>
<event>
 7    1  0.4653715E-009  0.1554236E+03  0.7561462E-02  0.1193963E+00
         -2   -1    0    0    0  501 -0.00000000000E+00  0.00000000000E+00  0.90804133466E+02  0.90804133466E+02  0.00000000000E+00 0. -1.
          2   -1    0    0  501    0  0.00000000000E+00 -0.00000000000E+00 -0.29353150460E+03  0.29353150460E+03  0.00000000000E+00 0.  1.
         25    2    1    2    0    0 -0.11713063692E+03  0.16601180901E+02 -0.14042777299E+03  0.22217193861E+03  0.12508087611E+03 0.  0.
          5    1    3    3  502    0 -0.13937414353E+03  0.32737357931E+02 -0.10751252989E+03  0.17909020903E+03  0.41800000000E+01 0.  1.
         -5    1    3    3    0  502  0.22243506610E+02 -0.16136177030E+02 -0.32915243099E+02  0.43081729581E+02  0.41800000000E+01 0.  1.
        -11    1    1    2    0    0  0.18517869621E+02 -0.34916986142E+02  0.71526390393E+01  0.40165503380E+02  0.00000000000E+00 0. -1.
         11    1    1    2    0    0  0.98612767295E+02  0.18315805241E+02 -0.69452237187E+02  0.12199819608E+03  0.00000000000E+00 0.  1.
</event>
<event>
 7    1  0.2626349E-009  0.1470668E+03  0.7561462E-02  0.1204124E+00
         -2   -1    0    0    0  501 -0.00000000000E+00  0.00000000000E+00  0.31125529514E+02  0.31125529514E+02  0.00000000000E+00 0.  1.
          2   -1    0    0  501    0  0.00000000000E+00 -0.00000000000E+00 -0.84092792810E+03  0.84092792810E+03  0.00000000000E+00 0. -1.
         25    2    1    2    0    0  0.76467413758E+02 -0.87858406204E+02 -0.51492482164E+03  0.54254996680E+03  0.12508608887E+03 0.  0.
          5    1    3    3  502    0  0.11072088097E+03 -0.73867494035E+02 -0.38408703657E+03  0.40651672072E+03  0.41800000000E+01 0.  1.
         -5    1    3    3    0  502 -0.34253467213E+02 -0.13990912168E+02 -0.13083778507E+03  0.13603324609E+03  0.41800000000E+01 0.  1.
        -11    1    1    2    0    0 -0.46547382728E+02  0.22183820246E+02 -0.41923421305E+02  0.66455654187E+02  0.00000000000E+00 0.  1.
         11    1    1    2    0    0 -0.29920031029E+02  0.65674585958E+02 -0.25295415564E+03  0.26304783662E+03  0.00000000000E+00 0. -1.
</event>
<event>
 7    1  0.2626349E-009  0.1246501E+03  0.7561462E-02  0.1235617E+00
         -4   -1    0    0    0  501 -0.00000000000E+00  0.00000000000E+00  0.23784517735E+03  0.23784517735E+03  0.00000000000E+00 0.  1.
          4   -1    0    0  501    0  0.00000000000E+00 -0.00000000000E+00 -0.11644611391E+03  0.11644611391E+03  0.00000000000E+00 0. -1.
         25    2    1    2    0    0 -0.73567661501E+02  0.54612562766E+02 -0.28246928952E+02  0.15760715555E+03  0.12508954255E+03 0.  0.
          5    1    3    3  502    0 -0.31533168423E+02  0.88433074397E+02  0.49723354001E+01  0.94111348292E+02  0.41800000000E+01 0. -1.
         -5    1    3    3    0  502 -0.42034493078E+02 -0.33820511631E+02 -0.33219264352E+02  0.63495807258E+02  0.41800000000E+01 0. -1.
        -11    1    1    2    0    0  0.39127704911E+02 -0.54096308128E+02  0.14781312585E+03  0.16219157813E+03  0.00000000000E+00 0.  1.
         11    1    1    2    0    0  0.34439956591E+02 -0.51625463780E+00  0.18328665418E+01  0.34492557582E+02  0.00000000000E+00 0. -1.
</event>
<event>
 7    1  0.2626349E-009  0.1160302E+03  0.7561462E-02  0.1249794E+00
         -3   -1    0    0    0  501 -0.00000000000E+00  0.00000000000E+00  0.91921382295E+02  0.91921382295E+02  0.00000000000E+00 0.  1.
          3   -1    0    0  501    0  0.00000000000E+00 -0.00000000000E+00 -0.20911029169E+03  0.20911029169E+03  0.00000000000E+00 0. -1.
         25    2    1    2    0    0 -0.58970050345E+02  0.61016282830E+02 -0.47566483217E+02  0.15846077487E+03  0.12508714258E+03 0.  0.
          5    1    3    3  502    0 -0.29153849705E+02 -0.14024919026E+02  0.31517487340E+02  0.45359339882E+02  0.41800000000E+01 0.  1.
         -5    1    3    3    0  502 -0.29816200640E+02  0.75041201855E+02 -0.79083970557E+02  0.11310143498E+03  0.41800000000E+01 0.  1.
        -11    1    1    2    0    0 -0.18561380218E+02  0.20054667941E+01  0.31904868214E+01  0.18940061742E+02  0.00000000000E+00 0. -1.
         11    1    1    2    0    0  0.77531430563E+02 -0.63021749624E+02 -0.72812913002E+02  0.12363083738E+03  0.00000000000E+00 0.  1.
</event>
<event>
 7    1  0.2626349E-009  0.9674530E+02  0.7561462E-02  0.1287293E+00
         -1   -1    0    0    0  501 -0.00000000000E+00  0.00000000000E+00  0.15464519113E+03  0.15464519113E+03  0.00000000000E+00 0.  1.
          1   -1    0    0  501    0  0.00000000000E+00 -0.00000000000E+00 -0.11223347466E+03  0.11223347466E+03  0.00000000000E+00 0. -1.
         25    2    1    2    0    0  0.50912143787E+02  0.33182188511E+02 -0.15893213134E+02  0.13997593729E+03  0.12509022654E+03 0.  0.
          5    1    3    3  502    0  0.13873570838E+02  0.75172723217E+02 -0.29766906769E+02  0.82139852826E+02  0.41800000000E+01 0. -1.
         -5    1    3    3    0  502  0.37038572949E+02 -0.41990534706E+02  0.13873693634E+02  0.57836084463E+02  0.41800000000E+01 0. -1.
        -11    1    1    2    0    0 -0.30975020409E+02 -0.20993645292E+02  0.84129111429E+02  0.92075471337E+02  0.00000000000E+00 0.  1.
         11    1    1    2    0    0 -0.19937123377E+02 -0.12188543219E+02 -0.25824181830E+02  0.34827257164E+02  0.00000000000E+00 0. -1.
</event>
<event>
 7    1  0.2626349E-009  0.2185141E+03  0.7561462E-02  0.1134996E+00
         -2   -1    0    0    0  501 -0.00000000000E+00  0.00000000000E+00  0.75812043144E+02  0.75812043144E+02  0.00000000000E+00 0.  1.
          2   -1    0    0  501    0  0.00000000000E+00 -0.00000000000E+00 -0.78785978346E+03  0.78785978346E+03  0.00000000000E+00 0. -1.
         25    2    1    2    0    0  0.14829157907E+03  0.13253429428E+03 -0.52735805356E+03  0.57732979781E+03  0.12508975659E+03 0.  0.
          5    1    3    3  502    0  0.15391508695E+03  0.66528718632E+02 -0.35492116161E+03  0.39255882075E+03  0.41800000000E+01 0.  1.
         -5    1    3    3    0  502 -0.56235078812E+01  0.66005575648E+02 -0.17243689195E+03  0.18477097706E+03  0.41800000000E+01 0.  1.
        -11    1    1    2    0    0 -0.37706336428E+02 -0.59343213792E+02 -0.11931798677E+03  0.13849247921E+03  0.00000000000E+00 0.  1.
         11    1    1    2    0    0 -0.11058524264E+03 -0.73191080487E+02 -0.65371699985E+02  0.14784954958E+03  0.00000000000E+00 0. -1.
</event>
<event>
 7    1  0.2626349E-009  0.9771632E+02  0.7561462E-02  0.1285173E+00
         -1   -1    0    0    0  501 -0.00000000000E+00  0.00000000000E+00  0.24896750811E+03  0.24896750811E+03  0.00000000000E+00 0.  1.
          1   -1    0    0  501    0  0.00000000000E+00 -0.00000000000E+00 -0.67399548462E+02  0.67399548462E+02  0.00000000000E+00 0. -1.
         25    2    1    2    0    0  0.58230237723E+02  0.28104964554E+02  0.10913906816E+03  0.17815795137E+03  0.12509304466E+03 0.  0.
          5    1    3    3  502    0 -0.60829618630E+00  0.21532609286E+02 -0.23921016986E+02  0.32460910963E+02  0.41800000000E+01 0.  1.
         -5    1    3    3    0  502  0.58838533910E+02  0.65723552685E+01  0.13306008514E+03  0.14569704041E+03  0.41800000000E+01 0.  1.
        -11    1    1    2    0    0  0.23761745067E+02 -0.21219319487E+02  0.59041856895E+01  0.32399682973E+02  0.00000000000E+00 0.  1.
         11    1    1    2    0    0 -0.81991982790E+02 -0.68856450668E+01  0.66524705804E+02  0.10580942223E+03  0.00000000000E+00 0. -1.
</event>
<event>
 7    1  0.2626349E-009  0.9290415E+02  0.7561462E-02  0.1295967E+00
         -1   -1    0    0    0  501 -0.00000000000E+00  0.00000000000E+00  0.23188343592E+03  0.23188343592E+03  0.00000000000E+00 0.  1.
          1   -1    0    0  501    0  0.00000000000E+00 -0.00000000000E+00 -0.53851321540E+02  0.53851321540E+02  0.00000000000E+00 0. -1.
         25    2    1    2    0    0  0.28187498903E+02  0.82062637110E+01  0.96280943214E+02  0.16055895024E+03  0.12508908272E+03 0.  0.
          5    1    3    3  502    0  0.16267699008E+02 -0.38901329360E+02  0.10295422575E+03  0.11133281841E+03  0.41800000000E+01 0.  1.
         -5    1    3    3    0  502  0.11919799895E+02  0.47107593071E+02 -0.66732825312E+01  0.49226131823E+02  0.41800000000E+01 0.  1.
        -11    1    1    2    0    0 -0.34103879004E+02  0.36276213680E+02  0.39733494799E+02  0.63700775906E+02  0.00000000000E+00 0. -1.
         11    1    1    2    0    0  0.59163801010E+01 -0.44482477391E+02  0.42017676365E+02  0.61475031317E+02  0.00000000000E+00 0.  1.
</event>
<event>
 7    1  0.2626349E-009  0.1009390E+03  0.7561462E-02  0.1278334E+00
          1   -1    0    0  501    0  0.00000000000E+00  0.00000000000E+00  0.43917489491E+02  0.43917489491E+02  0.00000000000E+00 0. -1.
         -1   -1    0    0    0  501 -0.00000000000E+00 -0.00000000000E+00 -0.29084114511E+03  0.29084114511E+03  0.00000000000E+00 0.  1.
         25    2    1    2    0    0  0.27643483561E+02 -0.11819670349E+02 -0.10371547616E+03  0.16525162295E+03  0.12508929651E+03 0.  0.
          5    1    3    3  502    0  0.54335702392E+02  0.38240256460E+02 -0.32436278064E+02  0.74055859345E+02  0.41800000000E+01 0. -1.
         -5    1    3    3    0  502 -0.26692218832E+02 -0.50059926809E+02 -0.71279198097E+02  0.91195763606E+02  0.41800000000E+01 0. -1.
        -11    1    1    2    0    0 -0.28252951655E+02  0.40692476684E+02 -0.12715862539E+03  0.13646766264E+03  0.00000000000E+00 0.  1.
         11    1    1    2    0    0  0.60946809463E+00 -0.28872806335E+02 -0.16049554064E+02  0.33039349005E+02  0.00000000000E+00 0. -1.
</event>
<event>
 7    1  0.2877006E-009  0.1159109E+03  0.7561462E-02  0.1249999E+00
          1   -1    0    0  501    0  0.00000000000E+00  0.00000000000E+00  0.25134155537E+03  0.25134155537E+03  0.00000000000E+00 0. -1.
         -1   -1    0    0    0  501 -0.00000000000E+00 -0.00000000000E+00 -0.16126992103E+03  0.16126992103E+03  0.00000000000E+00 0.  1.
         25    2    1    2    0    0 -0.83201008786E+02 -0.10958419311E+02 -0.10375887803E+03  0.18290436306E+03  0.12508239860E+03 0.  0.
          5    1    3    3  502    0 -0.93929048889E+02  0.14458194652E+02 -0.11800678803E+03  0.15157433833E+03  0.41800000000E+01 0.  1.
         -5    1    3    3    0  502  0.10728040103E+02 -0.25416613963E+02  0.14247910008E+02  0.31330024727E+02  0.41800000000E+01 0.  1.
        -11    1    1    2    0    0  0.57303725951E+02  0.39997685450E+02  0.66135120036E+02  0.96215310379E+02  0.00000000000E+00 0.  1.
         11    1    1    2    0    0  0.25897282835E+02 -0.29039266139E+02  0.12769539234E+03  0.13349180297E+03  0.00000000000E+00 0. -1.
</event>
<event>
 7    1  0.2626349E-009  0.9385034E+02  0.7561462E-02  0.1293787E+00
          4   -1    0    0  501    0  0.00000000000E+00  0.00000000000E+00  0.17913593481E+03  0.17913593481E+03  0.00000000000E+00 0. -1.
         -4   -1    0    0    0  501 -0.00000000000E+00 -0.00000000000E+00 -0.74535210526E+02  0.74535210526E+02  0.00000000000E+00 0.  1.
         25    2    1    2    0    0  0.38678938696E+02 -0.36328012507E+01  0.50707531755E+02  0.14045763437E+03  0.12509130958E+03 0.  0.
          5    1    3    3  502    0 -0.25120554405E+02  0.32785123097E+02 -0.12607685923E+02  0.43385858231E+02  0.41800000000E+01 0. -1.
         -5    1    3    3    0  502  0.63799493101E+02 -0.36417924348E+02  0.63315217677E+02  0.97071776141E+02  0.41800000000E+01 0. -1.
        -11    1    1    2    0    0 -0.13144261202E+02  0.31907092230E+02 -0.12469707345E+02  0.36692338961E+02  0.00000000000E+00 0.  1.
         11    1    1    2    0    0 -0.25534677494E+02 -0.28274290980E+02  0.66362899876E+02  0.76521172005E+02  0.00000000000E+00 0. -1.
</event>
<event>
 7    1  0.2626349E-009  0.1040427E+03  0.7561462E-02  0.1272017E+00
          3   -1    0    0  501    0  0.00000000000E+00  0.00000000000E+00  0.18516697472E+03  0.18516697472E+03  0.00000000000E+00 0. -1.
         -3   -1    0    0    0  501 -0.00000000000E+00 -0.00000000000E+00 -0.90371396407E+02  0.90371396407E+02  0.00000000000E+00 0.  1.
         25    2    1    2    0    0  0.21138257580E+02  0.20023957496E+02 -0.98434222194E+01  0.12880739326E+03  0.12508663713E+03 0.  0.
          5    1    3    3  502    0 -0.19474183317E+02 -0.41232244428E+02  0.19222443918E+02  0.49662023183E+02  0.41800000000E+01 0.  1.
         -5    1    3    3    0  502  0.40612440897E+02  0.61256201924E+02 -0.29065866137E+02  0.79145370073E+02  0.41800000000E+01 0.  1.
        -11    1    1    2    0    0 -0.59379816243E+01 -0.52493448694E+02  0.23099008851E+02  0.57657488599E+02  0.00000000000E+00 0.  1.
         11    1    1    2    0    0 -0.15200275955E+02  0.32469491199E+02  0.81539991685E+02  0.89073489276E+02  0.00000000000E+00 0. -1.
</event>
<event>
 7    1  0.2626349E-009  0.1180458E+03  0.7561462E-02  0.1246356E+00
         -2   -1    0    0    0  501 -0.00000000000E+00  0.00000000000E+00  0.36743372929E+03  0.36743372929E+03  0.00000000000E+00 0.  1.
          2   -1    0    0  501    0  0.00000000000E+00 -0.00000000000E+00 -0.84794979754E+02  0.84794979754E+02  0.00000000000E+00 0. -1.
         25    2    1    2    0    0  0.75253687767E+02 -0.80388944632E+01  0.52006718158E+00  0.14620678237E+03  0.12509361053E+03 0.  0.
          5    1    3    3  502    0 -0.90499358609E+01 -0.30278890837E+02  0.39375119312E+02  0.50661474419E+02  0.41800000000E+01 0.  1.
         -5    1    3    3    0  502  0.84303623628E+02  0.22239996374E+02 -0.38855052130E+02  0.95545307952E+02  0.41800000000E+01 0.  1.
        -11    1    1    2    0    0 -0.85688768944E+02  0.31463092338E+02  0.19693101667E+03  0.21705832541E+03  0.00000000000E+00 0.  1.
         11    1    1    2    0    0  0.10435081177E+02 -0.23424197875E+02  0.85187665682E+02  0.88963601263E+02  0.00000000000E+00 0. -1.
</event>
<event>
 7    1  0.2626349E-009  0.1200780E+03  0.7561462E-02  0.1242968E+00
         -1   -1    0    0    0  501 -0.00000000000E+00  0.00000000000E+00  0.23211297933E+02  0.23211297933E+02  0.00000000000E+00 0.  1.
          1   -1    0    0  501    0  0.00000000000E+00 -0.00000000000E+00 -0.85916832819E+03  0.85916832819E+03  0.00000000000E+00 0. -1.
         25    2    1    2    0    0  0.63952143935E+02 -0.64583790522E+02 -0.48743993449E+03  0.51137681934E+03  0.12509044291E+03 0.  0.
          5    1    3    3  502    0  0.96763105376E+02 -0.35935262488E+02 -0.26010346065E+03  0.27986733338E+03  0.41800000000E+01 0. -1.
         -5    1    3    3    0  502 -0.32810961441E+02 -0.28648528034E+02 -0.22733647384E+03  0.23150948595E+03  0.41800000000E+01 0. -1.
        -11    1    1    2    0    0 -0.14248056153E+02  0.27866617466E+02 -0.20960684599E+02  0.37668365667E+02  0.00000000000E+00 0.  1.
         11    1    1    2    0    0 -0.49704087782E+02  0.36717173056E+02 -0.32755641117E+03  0.33333444112E+03  0.00000000000E+00 0. -1.
</event>
<event>
 7    1  0.2626349E-009  0.1215107E+03  0.7561462E-02  0.1240625E+00
          2   -1    0    0  501    0  0.00000000000E+00  0.00000000000E+00  0.57798838471E+02  0.57798838471E+02  0.00000000000E+00 0. -1.
         -2   -1    0    0    0  501 -0.00000000000E+00 -0.00000000000E+00 -0.42741572425E+03  0.42741572425E+03  0.00000000000E+00 0.  1.
         25    2    1    2    0    0  0.94300422943E+02 -0.63807309246E+02 -0.20319388698E+03  0.26438090697E+03  0.12508223607E+03 0.  0.
          5    1    3    3  502    0  0.37607680712E+02 -0.60740909889E+02 -0.22631188754E+02  0.75056238163E+02  0.41800000000E+01 0.  1.
         -5    1    3    3    0  502  0.56692742231E+02 -0.30663993569E+01 -0.18056269823E+03  0.18932466880E+03  0.41800000000E+01 0.  1.
        -11    1    1    2    0    0 -0.49035651525E+02  0.25716929317E+02 -0.13680969610E+02  0.57035291736E+02  0.00000000000E+00 0. -1.
         11    1    1    2    0    0 -0.45264771418E+02  0.38090379929E+02 -0.15274202918E+03  0.16379836401E+03  0.00000000000E+00 0.  1.
</event>
<event>
 7    1  0.2626349E-009  0.2658217E+03  0.7561462E-02  0.1103695E+00
          1   -1    0    0  501    0  0.00000000000E+00  0.00000000000E+00  0.17552396041E+04  0.17552396041E+04  0.00000000000E+00 0. -1.
         -1   -1    0    0    0  501 -0.00000000000E+00 -0.00000000000E+00 -0.53752125806E+02  0.53752125806E+02  0.00000000000E+00 0.  1.
         25    2    1    2    0    0 -0.11490611414E+03  0.22523634891E+03  0.12837553781E+04  0.13143861179E+04  0.12509263786E+03 0.  0.
          5    1    3    3  502    0  0.83340719687E+01 -0.13526638369E+01  0.20493443807E+03  0.20515087804E+03  0.41800000000E+01 0.  1.
         -5    1    3    3    0  502 -0.12324018611E+03  0.22658901275E+03  0.10788209401E+04  0.11092352398E+04  0.41800000000E+01 0.  1.
        -11    1    1    2    0    0  0.11859066485E+03 -0.16126455536E+03  0.30197736695E+03  0.36229867893E+03  0.00000000000E+00 0.  1.
         11    1    1    2    0    0 -0.36845507085E+01 -0.63971793554E+02  0.11575473319E+03  0.13230693308E+03  0.00000000000E+00 0. -1.
</event>
<event>
 7    1  0.2626349E-009  0.1142525E+03  0.7561462E-02  0.1252892E+00
          1   -1    0    0  501    0  0.00000000000E+00  0.00000000000E+00  0.12416792925E+02  0.12416792925E+02  0.00000000000E+00 0. -1.
         -1   -1    0    0    0  501 -0.00000000000E+00 -0.00000000000E+00 -0.12780206047E+04  0.12780206047E+04  0.00000000000E+00 0.  1.
         25    2    1    2    0    0 -0.16958779168E+02 -0.33764931249E+02 -0.94084218632E+03  0.94987317762E+03  0.12508942100E+03 0.  0.
          5    1    3    3  502    0 -0.39920482864E+02  0.35215872643E+02 -0.28132381489E+03  0.28634657998E+03  0.41800000000E+01 0. -1.
         -5    1    3    3    0  502  0.22961703696E+02 -0.68980803892E+02 -0.65951837142E+03  0.66352659765E+03  0.41800000000E+01 0. -1.
        -11    1    1    2    0    0 -0.15703082528E+02 -0.28178466057E+02 -0.11380080355E+03  0.11828455368E+03  0.00000000000E+00 0.  1.
         11    1    1    2    0    0  0.32661861696E+02  0.61943397305E+02 -0.21096082188E+03  0.22227966629E+03  0.00000000000E+00 0. -1.
</event>
<event>
 7    1  0.2626349E-009  0.1087253E+03  0.7561462E-02  0.1262949E+00
         -4   -1    0    0    0  501 -0.00000000000E+00  0.00000000000E+00  0.11963788609E+02  0.11963788609E+02  0.00000000000E+00 0.  1.
          4   -1    0    0  501    0  0.00000000000E+00 -0.00000000000E+00 -0.11075836780E+04  0.11075836780E+04  0.00000000000E+00 0. -1.
         25    2    1    2    0    0 -0.16620851988E+02  0.31728104789E+02 -0.67288648321E+03  0.68535249729E+03  0.12509556707E+03 0.  0.
          5    1    3    3  502    0 -0.65510878968E+02 -0.11395320720E+01 -0.45043507269E+03  0.45519468462E+03  0.41800000000E+01 0. -1.
         -5    1    3    3    0  502  0.48890026980E+02  0.32867636861E+02 -0.22245141051E+03  0.23015781266E+03  0.41800000000E+01 0. -1.
        -11    1    1    2    0    0 -0.11085601413E+02 -0.55275593035E+02 -0.32629544249E+03  0.33112988016E+03  0.00000000000E+00 0. -1.
         11    1    1    2    0    0  0.27706453401E+02  0.23547488246E+02 -0.96437963705E+02  0.10306508917E+03  0.00000000000E+00 0.  1.
</event>
<event>
 7    1  0.2626349E-009  0.1248288E+03  0.7561462E-02  0.1235337E+00
          2   -1    0    0  501    0  0.00000000000E+00  0.00000000000E+00  0.10193094104E+03  0.10193094104E+03  0.00000000000E+00 0. -1.
         -2   -1    0    0    0  501 -0.00000000000E+00 -0.00000000000E+00 -0.21616532235E+03  0.21616532235E+03  0.00000000000E+00 0.  1.
         25    2    1    2    0    0  0.82171306749E+02 -0.29326042355E+02 -0.64992363144E+01  0.15264855781E+03  0.12508877534E+03 0.  0.
          5    1    3    3  502    0  0.10566499810E+03  0.10297598158E+02 -0.38088035754E+01  0.10631609350E+03  0.41800000000E+01 0.  1.
         -5    1    3    3    0  502 -0.23493691355E+02 -0.39623640513E+02 -0.26904327391E+01  0.46332464313E+02  0.41800000000E+01 0.  1.
        -11    1    1    2    0    0 -0.43293839136E+02  0.37675411958E+02 -0.11160401633E+03  0.12549601442E+03  0.00000000000E+00 0.  1.
         11    1    1    2    0    0 -0.38877467613E+02 -0.83493696031E+01  0.38688713383E+01  0.39951691156E+02  0.00000000000E+00 0. -1.
</event>
<event>
 7    1  0.2626349E-009  0.2308805E+03  0.7561462E-02  0.1126022E+00
         -1   -1    0    0    0  501 -0.00000000000E+00  0.00000000000E+00  0.29150316105E+03  0.29150316105E+03  0.00000000000E+00 0.  1.
          1   -1    0    0  501    0  0.00000000000E+00 -0.00000000000E+00 -0.18975912694E+03  0.18975912694E+03  0.00000000000E+00 0. -1.
         25    2    1    2    0    0 -0.16299981211E+03 -0.12634815140E+03  0.52036380395E+02  0.24675391304E+03  0.12508762771E+03 0.  0.
          5    1    3    3  502    0 -0.17816508424E+03 -0.12405685886E+03  0.29443021998E+02  0.21912842220E+03  0.41800000000E+01 0.  1.
         -5    1    3    3    0  502  0.15165272130E+02 -0.22912925396E+01  0.22593358397E+02  0.27625490836E+02  0.41800000000E+01 0.  1.
        -11    1    1    2    0    0  0.17552498499E+03  0.10666793221E+03  0.40064573720E+02  0.20926595085E+03  0.00000000000E+00 0. -1.
         11    1    1    2    0    0 -0.12525172877E+02  0.19680219190E+02  0.96430800007E+01  0.25242424108E+02  0.00000000000E+00 0.  1.
</event>
<event>
 7    1  0.2626349E-009  0.1110850E+03  0.7561462E-02  0.1258574E+00
         -2   -1    0    0    0  501 -0.00000000000E+00  0.00000000000E+00  0.31239917424E+02  0.31239917424E+02  0.00000000000E+00 0.  1.
          2   -1    0    0  501    0  0.00000000000E+00 -0.00000000000E+00 -0.70714855245E+03  0.70714855245E+03  0.00000000000E+00 0. -1.
         25    2    1    2    0    0 -0.88069779572E+02 -0.16886054234E+02 -0.48309282456E+03  0.50701873865E+03  0.12509156365E+03 0.  0.
          5    1    3    3  502    0 -0.58958737427E+02  0.44553211303E+01 -0.46035203340E+03  0.46415239918E+03  0.41800000000E+01 0.  1.
         -5    1    3    3    0  502 -0.29111042144E+02 -0.21341375365E+02 -0.22740791165E+02  0.42866339475E+02  0.41800000000E+01 0.  1.
        -11    1    1    2    0    0  0.99971475584E+02 -0.66416195274E+01 -0.16504565889E+03  0.19307634904E+03  0.00000000000E+00 0. -1.
         11    1    1    2    0    0 -0.11901696012E+02  0.23527673762E+02 -0.27770151564E+02  0.38293382176E+02  0.00000000000E+00 0.  1.
</event>
<event>
 7    1  0.2626349E-009  0.1089668E+03  0.7561462E-02  0.1262495E+00
          2   -1    0    0  501    0  0.00000000000E+00  0.00000000000E+00  0.10059087664E+04  0.10059087664E+04  0.00000000000E+00 0. -1.
         -2   -1    0    0    0  501 -0.00000000000E+00 -0.00000000000E+00 -0.19580177027E+02  0.19580177027E+02  0.00000000000E+00 0.  1.
         25    2    1    2    0    0 -0.33446749560E+02 -0.78944057173E+02  0.46201496097E+03  0.48626787581E+03  0.12509106148E+03 0.  0.
          5    1    3    3  502    0 -0.49614237349E+02 -0.22306529506E+02  0.38687366735E+03  0.39070175415E+03  0.41800000000E+01 0. -1.
         -5    1    3    3    0  502  0.16167487788E+02 -0.56637527667E+02  0.75141293615E+02  0.95566121653E+02  0.41800000000E+01 0. -1.
        -11    1    1    2    0    0  0.14789941040E+02  0.83762406411E+02  0.50436084712E+03  0.51148289041E+03  0.00000000000E+00 0. -1.
         11    1    1    2    0    0  0.18656808520E+02 -0.48183492380E+01  0.19952781288E+02  0.27738177205E+02  0.00000000000E+00 0.  1.
</event>
<event>
 7    1  0.2626349E-009  0.2322118E+03  0.7561462E-02  0.1125093E+00
          2   -1    0    0  501    0  0.00000000000E+00  0.00000000000E+00  0.77301647022E+03  0.77301647022E+03  0.00000000000E+00 0.  1.
         -2   -1    0    0    0  501 -0.00000000000E+00 -0.00000000000E+00 -0.80690868090E+02  0.80690868090E+02  0.00000000000E+00 0. -1.
         25    2    1    2    0    0 -0.16054729350E+03  0.14393245339E+03  0.24334312638E+03  0.34836043449E+03  0.12508849097E+03 0.  0.
          5    1    3    3  502    0 -0.16246557837E+03  0.75161739807E+02  0.19105351322E+03  0.26184588711E+03  0.41800000000E+01 0. -1.
         -5    1    3    3    0  502  0.19182848657E+01  0.68770713585E+02  0.52289613162E+02  0.86514547381E+02  0.41800000000E+01 0. -1.
        -11    1    1    2    0    0  0.12733750063E+03 -0.12383839091E+03  0.42260562821E+03  0.45841717150E+03  0.00000000000E+00 0.  1.
         11    1    1    2    0    0  0.33209792869E+02 -0.20094062478E+02  0.26376847544E+02  0.46929732320E+02  0.00000000000E+00 0. -1.
</event>
<event>
 7    1  0.2626349E-009  0.1324424E+03  0.7561462E-02  0.1223876E+00
         -1   -1    0    0    0  501 -0.00000000000E+00  0.00000000000E+00  0.22570375343E+02  0.22570375343E+02  0.00000000000E+00 0.  1.
          1   -1    0    0  501    0  0.00000000000E+00 -0.00000000000E+00 -0.20225093207E+04  0.20225093207E+04  0.00000000000E+00 0. -1.
         25    2    1    2    0    0 -0.10224918674E+03  0.55275289660E+02 -0.17229498782E+04  0.17313907638E+04  0.12508972950E+03 0.  0.
          5    1    3    3  502    0 -0.82224003862E+01  0.42863042885E+02 -0.17070835995E+03  0.17624887197E+03  0.41800000000E+01 0. -1.
         -5    1    3    3    0  502 -0.94026786359E+02  0.12412246776E+02 -0.15522415182E+04  0.15551418918E+04  0.41800000000E+01 0. -1.
        -11    1    1    2    0    0  0.50555348729E+02 -0.54595441759E+02 -0.23677629238E+03  0.24819250226E+03  0.00000000000E+00 0.  1.
         11    1    1    2    0    0  0.51693838016E+02 -0.67984790108E+00 -0.40212774778E+02  0.65496429959E+02  0.00000000000E+00 0. -1.
</event>
<event>
 7    1  0.2626349E-009  0.1350046E+03  0.7561462E-02  0.1220213E+00
         -1   -1    0    0    0  501 -0.00000000000E+00  0.00000000000E+00  0.34798224889E+02  0.34798224889E+02  0.00000000000E+00 0.  1.
          1   -1    0    0  501    0  0.00000000000E+00 -0.00000000000E+00 -0.63012239325E+03  0.63012239325E+03  0.00000000000E+00 0. -1.
         25    2    1    2    0    0 -0.32639675483E+02 -0.98059436999E+02 -0.30633110376E+03  0.34665284196E+03  0.12509374928E+03 0.  0.
          5    1    3    3  502    0  0.39542150376E+02 -0.74624471227E+02 -0.18614746777E+03  0.20445230622E+03  0.41800000000E+01 0.  1.
         -5    1    3    3    0  502 -0.72181825859E+02 -0.23434965771E+02 -0.12018363599E+03  0.14220053574E+03  0.41800000000E+01 0.  1.
        -11    1    1    2    0    0  0.26606711883E+02  0.26222955539E+02 -0.20134764445E+03  0.20478387251E+03  0.00000000000E+00 0. -1.
         11    1    1    2    0    0  0.60329636006E+01  0.71836481459E+02 -0.87645420151E+02  0.11348390367E+03  0.00000000000E+00 0.  1.
</event>
<event>
 7    1  0.2626349E-009  0.1408123E+03  0.7561462E-02  0.1212240E+00
         -2   -1    0    0    0  501 -0.00000000000E+00  0.00000000000E+00  0.53125008742E+02  0.53125008742E+02  0.00000000000E+00 0.  1.
          2   -1    0    0  501    0  0.00000000000E+00 -0.00000000000E+00 -0.41106835717E+03  0.41106835717E+03  0.00000000000E+00 0. -1.
         25    2    1    2    0    0  0.27300770126E+02  0.93004044792E+02 -0.24118005807E+03  0.28846202540E+03  0.12508970898E+03 0.  0.
          5    1    3    3  502    0  0.40481216470E+02 -0.19274168757E+02 -0.64292087561E+02  0.78493104099E+02  0.41800000000E+01 0.  1.
         -5    1    3    3    0  502 -0.13180446344E+02  0.11227821355E+03 -0.17688797050E+03  0.20996892130E+03  0.41800000000E+01 0.  1.
        -11    1    1    2    0    0  0.20074782650E+02 -0.65894537749E+02 -0.34590313160E+02  0.77081624063E+02  0.00000000000E+00 0.  1.
         11    1    1    2    0    0 -0.47375552776E+02 -0.27109507043E+02 -0.82172977199E+02  0.98649716445E+02  0.00000000000E+00 0. -1.
</event>
<event>
 7    1  0.2626349E-009  0.1109839E+03  0.7561462E-02  0.1258759E+00
          2   -1    0    0  501    0  0.00000000000E+00  0.00000000000E+00  0.17978323105E+03  0.17978323105E+03  0.00000000000E+00 0. -1.
         -2   -1    0    0    0  501 -0.00000000000E+00 -0.00000000000E+00 -0.79329779210E+02  0.79329779210E+02  0.00000000000E+00 0.  1.
         25    2    1    2    0    0 -0.24564188412E+02 -0.16781267987E+02  0.10219833639E+03  0.16424459138E+03  0.12508707179E+03 0.  0.
          5    1    3    3  502    0 -0.69337264301E+02 -0.36397501934E+02  0.52258683678E+02  0.94238403996E+02  0.41800000000E+01 0. -1.
         -5    1    3    3    0  502  0.44773075889E+02  0.19616233947E+02  0.49939652714E+02  0.70006187384E+02  0.41800000000E+01 0. -1.
        -11    1    1    2    0    0 -0.33847711582E+02  0.51432399407E+00 -0.46210472357E+01  0.34165570185E+02  0.00000000000E+00 0. -1.
         11    1    1    2    0    0  0.58411899994E+02  0.16266943993E+02  0.28761626816E+01  0.60702848694E+02  0.00000000000E+00 0.  1.
</event>
<event>
 7    1  0.2626349E-009  0.1349371E+03  0.7561462E-02  0.1220308E+00
         -1   -1    0    0    0  501 -0.00000000000E+00  0.00000000000E+00  0.12495975501E+03  0.12495975501E+03  0.00000000000E+00 0.  1.
          1   -1    0    0  501    0  0.00000000000E+00 -0.00000000000E+00 -0.23237751479E+03  0.23237751479E+03  0.00000000000E+00 0. -1.
         25    2    1    2    0    0 -0.23344169308E+02 -0.11770631631E+03 -0.37301382289E+00  0.17334123919E+03  0.12508924384E+03 0.  0.
          5    1    3    3  502    0 -0.20869557251E+02 -0.95722441790E+02  0.55799677416E+02  0.11282464572E+03  0.41800000000E+01 0.  1.
         -5    1    3    3    0  502 -0.24746120568E+01 -0.21983874517E+02 -0.56172691239E+02  0.60516593466E+02  0.41800000000E+01 0.  1.
        -11    1    1    2    0    0  0.15110872236E+02 -0.12022552375E+02 -0.97822952988E+01  0.21646559234E+02  0.00000000000E+00 0.  1.
         11    1    1    2    0    0  0.82332970721E+01  0.12972886868E+03 -0.97262450656E+02  0.16234947138E+03  0.00000000000E+00 0. -1.
</event>
<event>
 7    1  0.2626349E-009  0.1612151E+03  0.7561462E-02  0.1187332E+00
          3   -1    0    0  501    0  0.00000000000E+00  0.00000000000E+00  0.42319543865E+02  0.42319543865E+02  0.00000000000E+00 0. -1.
         -3   -1    0    0    0  501 -0.00000000000E+00 -0.00000000000E+00 -0.80101510126E+03  0.80101510126E+03  0.00000000000E+00 0.  1.
         25    2    1    2    0    0 -0.12923612107E+03 -0.71071950222E+02 -0.42833063526E+03  0.46996628147E+03  0.12509186834E+03 0.  0.
          5    1    3    3  502    0 -0.35929687145E+02 -0.48711220710E+02 -0.31780167836E+03  0.32354150369E+03  0.41800000000E+01 0. -1.
         -5    1    3    3    0  502 -0.93306433923E+02 -0.22360729512E+02 -0.11052895690E+03  0.14642477778E+03  0.41800000000E+01 0. -1.
        -11    1    1    2    0    0  0.96120403541E+02  0.10510104247E+02 -0.24627691232E+03  0.26457874407E+03  0.00000000000E+00 0.  1.
         11    1    1    2    0    0  0.33115717526E+02  0.60561845975E+02 -0.84088009814E+02  0.10878961959E+03  0.00000000000E+00 0. -1.
</event>
<event>
 7    1  0.2626349E-009  0.1115933E+03  0.7561462E-02  0.1257647E+00
          3   -1    0    0  501    0  0.00000000000E+00  0.00000000000E+00  0.29166401038E+03  0.29166401038E+03  0.00000000000E+00 0. -1.
         -3   -1    0    0    0  501 -0.00000000000E+00 -0.00000000000E+00 -0.53061071425E+02  0.53061071425E+02  0.00000000000E+00 0.  1.
         25    2    1    2    0    0 -0.64061881613E+01  0.49546140006E+02  0.18284384438E+03  0.22710297497E+03  0.12509208839E+03 0.  0.
          5    1    3    3  502    0 -0.63553874144E+02  0.33287525150E+02  0.12433959827E+03  0.14361393508E+03  0.41800000000E+01 0. -1.
         -5    1    3    3    0  502  0.57147685983E+02  0.16258614856E+02  0.58504246108E+02  0.83489039897E+02  0.41800000000E+01 0. -1.
        -11    1    1    2    0    0  0.33033507968E+01  0.20942844708E+02  0.40082245495E+02  0.45344252942E+02  0.00000000000E+00 0. -1.
         11    1    1    2    0    0  0.31028373645E+01 -0.70488984714E+02  0.15676849077E+02  0.72277853889E+02  0.00000000000E+00 0.  1.
</event>
<event>
 7    1  0.2626349E-009  0.1007349E+03  0.7561462E-02  0.1278758E+00
          1   -1    0    0  501    0  0.00000000000E+00  0.00000000000E+00  0.87158758185E+03  0.87158758185E+03  0.00000000000E+00 0. -1.
         -1   -1    0    0    0  501 -0.00000000000E+00 -0.00000000000E+00 -0.16522993868E+02  0.16522993868E+02  0.00000000000E+00 0.  1.
         25    2    1    2    0    0  0.19781855666E+02 -0.33113506677E+01  0.70263205328E+03  0.71396189052E+03  0.12508993549E+03 0.  0.
          5    1    3    3  502    0  0.68053858732E+02 -0.24663704174E+02  0.45410991541E+03  0.45986184193E+03  0.41800000000E+01 0.  1.
         -5    1    3    3    0  502 -0.48272003065E+02  0.21352353506E+02  0.24852213787E+03  0.25410004859E+03  0.41800000000E+01 0.  1.
        -11    1    1    2    0    0 -0.40590767662E+02  0.23599573546E+02  0.54209093565E+02  0.71715940460E+02  0.00000000000E+00 0.  1.
         11    1    1    2    0    0  0.20808911996E+02 -0.20288222878E+02  0.98223441138E+02  0.10243274474E+03  0.00000000000E+00 0. -1.
</event>
<event>
 7    1  0.2626349E-009  0.7153786E+02  0.7561462E-02  0.1354940E+00
          3   -1    0    0  501    0  0.00000000000E+00  0.00000000000E+00  0.18661506680E+03  0.18661506680E+03  0.00000000000E+00 0. -1.
         -3   -1    0    0    0  501 -0.00000000000E+00 -0.00000000000E+00 -0.75645233505E+02  0.75645233505E+02  0.00000000000E+00 0.  1.
         25    2    1    2    0    0 -0.38550320159E+02 -0.19240122472E+02  0.77959783743E+02  0.15356283817E+03  0.12508999915E+03 0.  0.
          5    1    3    3  502    0 -0.24422688797E+02  0.19230668490E+02 -0.26634710192E+02  0.41148104764E+02  0.41800000000E+01 0. -1.
         -5    1    3    3    0  502 -0.14127631362E+02 -0.38470790962E+02  0.10459449394E+03  0.11241473341E+03  0.41800000000E+01 0. -1.
        -11    1    1    2    0    0 -0.13875476240E+02  0.10420932563E+02  0.49968382710E+02  0.52895783830E+02  0.00000000000E+00 0. -1.
         11    1    1    2    0    0  0.52425796399E+02  0.88191899097E+01 -0.16958333154E+02  0.55801678309E+02  0.00000000000E+00 0.  1.
</event>
<event>
 7    1  0.2626349E-009  0.1619822E+03  0.7561462E-02  0.1186477E+00
          1   -1    0    0  501    0  0.00000000000E+00  0.00000000000E+00  0.60965538451E+03  0.60965538451E+03  0.00000000000E+00 0. -1.
         -1   -1    0    0    0  501 -0.00000000000E+00 -0.00000000000E+00 -0.52853802119E+02  0.52853802119E+02  0.00000000000E+00 0.  1.
         25    2    1    2    0    0  0.12867927181E+03  0.12640664944E+02  0.40923091102E+03  0.44703054553E+03  0.12509288029E+03 0.  0.
          5    1    3    3  502    0  0.30562064269E+02 -0.52902263945E+02  0.15748294884E+03  0.16897053257E+03  0.41800000000E+01 0.  1.
         -5    1    3    3    0  502  0.98117207541E+02  0.65542928889E+02  0.25174796218E+03  0.27806001295E+03  0.41800000000E+01 0.  1.
        -11    1    1    2    0    0 -0.46059291853E+01 -0.19846753650E+02  0.60211064670E+02  0.63564774229E+02  0.00000000000E+00 0.  1.
         11    1    1    2    0    0 -0.12407334263E+03  0.72060887058E+01  0.87359606704E+02  0.15191386687E+03  0.00000000000E+00 0. -1.
</event>
<event>
 7    1  0.2626349E-009  0.1472631E+03  0.7561462E-02  0.1203877E+00
          2   -1    0    0  501    0  0.00000000000E+00  0.00000000000E+00  0.63306381742E+02  0.63306381742E+02  0.00000000000E+00 0. -1.
         -2   -1    0    0    0  501 -0.00000000000E+00 -0.00000000000E+00 -0.50726026041E+03  0.50726026041E+03  0.00000000000E+00 0.  1.
         25    2    1    2    0    0 -0.35994488621E+02 -0.12436490058E+03 -0.14318137745E+03  0.23002293790E+03  0.12508962148E+03 0.  0.
          5    1    3    3  502    0 -0.98294718493E+00  0.43646801630E+01  0.19011230079E+02  0.19972878791E+02  0.41800000000E+01 0. -1.
         -5    1    3    3    0  502 -0.35011541436E+02 -0.12872958075E+03 -0.16219260753E+03  0.21005005911E+03  0.41800000000E+01 0. -1.
        -11    1    1    2    0    0 -0.27978031217E+02  0.45086870468E+02 -0.14514244739E+03  0.15453778228E+03  0.00000000000E+00 0.  1.
         11    1    1    2    0    0  0.63972519838E+02  0.79278030116E+02 -0.15563005383E+03  0.18600592197E+03  0.00000000000E+00 0. -1.
</event>
<event>
 7    1  0.2626349E-009  0.7651922E+02  0.7561462E-02  0.1339230E+00
          2   -1    0    0  501    0  0.00000000000E+00  0.00000000000E+00  0.47243066868E+03  0.47243066868E+03  0.00000000000E+00 0. -1.
         -2   -1    0    0    0  501 -0.00000000000E+00 -0.00000000000E+00 -0.28180083692E+02  0.28180083692E+02  0.00000000000E+00 0.  1.
         25    2    1    2    0    0 -0.49852898037E+01 -0.30696372179E+02  0.19627632842E+03  0.23481949954E+03  0.12509468369E+03 0.  0.
          5    1    3    3  502    0 -0.10958024164E+02  0.12970829997E+02 -0.12439472650E+02  0.21460046696E+02  0.41800000000E+01 0. -1.
         -5    1    3    3    0  502  0.59727343598E+01 -0.43667202177E+02  0.20871580107E+03  0.21335945284E+03  0.41800000000E+01 0. -1.
        -11    1    1    2    0    0 -0.12518793916E+02 -0.27656694726E+02  0.48467342516E+02  0.57190001354E+02  0.00000000000E+00 0.  1.
         11    1    1    2    0    0  0.17504083720E+02  0.58353066905E+02  0.19950691406E+03  0.20860125148E+03  0.00000000000E+00 0. -1.
</event>
<event>
 7    1  0.2626349E-009  0.1403665E+03  0.7561462E-02  0.1212837E+00
          3   -1    0    0  501    0  0.00000000000E+00  0.00000000000E+00  0.12789411136E+03  0.12789411136E+03  0.00000000000E+00 0.  1.
         -3   -1    0    0    0  501 -0.00000000000E+00 -0.00000000000E+00 -0.21805963914E+03  0.21805963914E+03  0.00000000000E+00 0. -1.
         25    2    1    2    0    0  0.98105660579E+02 -0.75195990250E+02 -0.74845295380E+02  0.19111832759E+03  0.12508093106E+03 0.  0.
          5    1    3    3  502    0  0.68415395827E+02 -0.81542904996E+02  0.39245812516E+01  0.10659637179E+03  0.41800000000E+01 0. -1.
         -5    1    3    3    0  502  0.29690264753E+02  0.63469147454E+01 -0.78769876631E+02  0.84521955801E+02  0.41800000000E+01 0. -1.
        -11    1    1    2    0    0 -0.10928984557E+03  0.74674288987E+02  0.40891297574E+01  0.13242824760E+03  0.00000000000E+00 0.  1.
         11    1    1    2    0    0  0.11184184991E+02  0.52170126347E+00 -0.19409362154E+02  0.22407175310E+02  0.00000000000E+00 0. -1.
</event>
<event>
 7    1  0.2626349E-009  0.7216638E+02  0.7561462E-02  0.1352877E+00
         -1   -1    0    0    0  501 -0.00000000000E+00  0.00000000000E+00  0.15990670983E+03  0.15990670983E+03  0.00000000000E+00 0.  1.
          1   -1    0    0  501    0  0.00000000000E+00 -0.00000000000E+00 -0.89912473145E+02  0.89912473145E+02  0.00000000000E+00 0. -1.
         25    2    1    2    0    0 -0.84255979730E+01 -0.50427723790E+02  0.47835998015E+02  0.14335109915E+03  0.12508920375E+03 0.  0.
          5    1    3    3  502    0 -0.10415160128E+02 -0.30410118671E+01 -0.40969376329E+02  0.42587386753E+02  0.41800000000E+01 0.  1.
         -5    1    3    3    0  502  0.19895621548E+01 -0.47386711923E+02  0.88805374344E+02  0.10076371240E+03  0.41800000000E+01 0.  1.
        -11    1    1    2    0    0 -0.28598084666E+02  0.10054738718E+02  0.38780516195E+02  0.49222724971E+02  0.00000000000E+00 0.  1.
         11    1    1    2    0    0  0.37023682639E+02  0.40372985072E+02 -0.16622277524E+02  0.57245358850E+02  0.00000000000E+00 0. -1.
</event>
<event>
 7    1  0.2626349E-009  0.1310640E+03  0.7561462E-02  0.1225885E+00
         -2   -1    0    0    0  501 -0.00000000000E+00  0.00000000000E+00  0.11628813334E+03  0.11628813334E+03  0.00000000000E+00 0.  1.
          2   -1    0    0  501    0  0.00000000000E+00 -0.00000000000E+00 -0.25914319146E+03  0.25914319146E+03  0.00000000000E+00 0. -1.
         25    2    1    2    0    0 -0.11160911582E+03 -0.33047089100E+02 -0.75772859914E+00  0.17087230452E+03  0.12509222784E+03 0.  0.
          5    1    3    3  502    0 -0.55762139944E+02 -0.16835231222E+02  0.62027102034E+02  0.85191989342E+02  0.41800000000E+01 0. -1.
         -5    1    3    3    0  502 -0.55846975878E+02 -0.16211857878E+02 -0.62784830633E+02  0.85680315173E+02  0.41800000000E+01 0. -1.
        -11    1    1    2    0    0  0.68597314348E+02  0.62900945792E+02 -0.75488147967E+02  0.11983564161E+03  0.00000000000E+00 0.  1.
         11    1    1    2    0    0  0.43011801474E+02 -0.29853856692E+02 -0.66609181555E+02  0.84723378668E+02  0.00000000000E+00 0. -1.
</event>
<event>
 7    1  0.2626349E-009  0.1225364E+03  0.7561462E-02  0.1238970E+00
          1   -1    0    0  501    0  0.00000000000E+00  0.00000000000E+00  0.15379864118E+03  0.15379864118E+03  0.00000000000E+00 0. -1.
         -1   -1    0    0    0  501 -0.00000000000E+00 -0.00000000000E+00 -0.14735054972E+03  0.14735054972E+03  0.00000000000E+00 0.  1.
         25    2    1    2    0    0  0.76921821865E+02  0.93324739645E+01  0.69325632213E+02  0.16265885158E+03  0.12509115463E+03 0.  0.
          5    1    3    3  502    0 -0.41842041080E+01  0.48713076429E+02  0.50585848892E+02  0.70476037681E+02  0.41800000000E+01 0.  1.
         -5    1    3    3    0  502  0.81106025973E+02 -0.39380602464E+02  0.18739783321E+02  0.92182813899E+02  0.41800000000E+01 0.  1.
        -11    1    1    2    0    0 -0.17051306139E+02 -0.36281076275E+02 -0.60768841504E+02  0.72800519466E+02  0.00000000000E+00 0.  1.
         11    1    1    2    0    0 -0.59870515725E+02  0.26948602311E+02 -0.21086992518E+01  0.65689819853E+02  0.00000000000E+00 0. -1.
</event>
<event>
 7    1  0.2626349E-009  0.1240617E+03  0.7561462E-02  0.1236543E+00
         -2   -1    0    0    0  501 -0.00000000000E+00  0.00000000000E+00  0.21918963195E+02  0.21918963195E+02  0.00000000000E+00 0.  1.
          2   -1    0    0  501    0  0.00000000000E+00 -0.00000000000E+00 -0.78477329055E+03  0.78477329055E+03  0.00000000000E+00 0. -1.
         25    2    1    2    0    0  0.33006633947E+02 -0.63780317562E+02 -0.46149600474E+03  0.48351151908E+03  0.12508980733E+03 0.  0.
          5    1    3    3  502    0 -0.13186423367E+00 -0.93025708004E+02 -0.23639744806E+03  0.25407681041E+03  0.41800000000E+01 0. -1.
         -5    1    3    3    0  502  0.33138498180E+02  0.29245390442E+02 -0.22509855668E+03  0.22943470867E+03  0.41800000000E+01 0. -1.
        -11    1    1    2    0    0 -0.53315167801E+02  0.11526229841E+02 -0.97139356731E+02  0.11140653355E+03  0.00000000000E+00 0.  1.
         11    1    1    2    0    0  0.20308533854E+02  0.52254087721E+02 -0.20421896589E+03  0.21177420112E+03  0.00000000000E+00 0. -1.
</event>
<event>
 7    1  0.2626349E-009  0.1328600E+03  0.7561462E-02  0.1223273E+00
         -1   -1    0    0    0  501 -0.00000000000E+00  0.00000000000E+00  0.36742259422E+03  0.36742259422E+03  0.00000000000E+00 0. -1.
          1   -1    0    0  501    0  0.00000000000E+00 -0.00000000000E+00 -0.70411775128E+02  0.70411775128E+02  0.00000000000E+00 0.  1.
         25    2    1    2    0    0  0.30110252079E+02  0.89580722933E+02  0.26049076267E+03  0.30402934003E+03  0.12508824471E+03 0.  0.
          5    1    3    3  502    0  0.12040715576E+02 -0.22683353976E+02  0.82234130419E+01  0.27287548466E+02  0.41800000000E+01 0. -1.
         -5    1    3    3    0  502  0.18069536502E+02  0.11226407691E+03  0.25226734963E+03  0.27674179157E+03  0.41800000000E+01 0. -1.
        -11    1    1    2    0    0 -0.58466615006E+02 -0.71171678644E+02  0.13955387703E+02  0.93158498041E+02  0.00000000000E+00 0. -1.
         11    1    1    2    0    0  0.28356362928E+02 -0.18409044289E+02  0.22564668726E+02  0.40646531277E+02  0.00000000000E+00 0.  1.
</event>
<event>
 7    1  0.2626349E-009  0.2402100E+03  0.7561462E-02  0.1119653E+00
          1   -1    0    0  501    0  0.00000000000E+00  0.00000000000E+00  0.27790170368E+03  0.27790170368E+03  0.00000000000E+00 0. -1.
         -1   -1    0    0    0  501 -0.00000000000E+00 -0.00000000000E+00 -0.24800897440E+03  0.24800897440E+03  0.00000000000E+00 0.  1.
         25    2    1    2    0    0  0.58817144690E+02  0.21138903054E+03  0.10838780876E+03  0.27484428633E+03  0.12508671351E+03 0.  0.
          5    1    3    3  502    0  0.74742543869E+02  0.21629788973E+03  0.81553072713E+02  0.24298065979E+03  0.41800000000E+01 0. -1.
         -5    1    3    3    0  502 -0.15925399178E+02 -0.49088591824E+01  0.26834736051E+02  0.31863626542E+02  0.41800000000E+01 0. -1.
        -11    1    1    2    0    0 -0.41224629976E+02 -0.27342865683E+02  0.17934183083E+01  0.49500694638E+02  0.00000000000E+00 0.  1.
         11    1    1    2    0    0 -0.17592514714E+02 -0.18404616486E+03 -0.80288497792E+02  0.20156569711E+03  0.00000000000E+00 0. -1.
</event>
<event>
 7    1  0.2626349E-009  0.1140544E+03  0.7561462E-02  0.1253241E+00
         -3   -1    0    0    0  501 -0.00000000000E+00  0.00000000000E+00  0.20092986905E+03  0.20092986905E+03  0.00000000000E+00 0.  1.
          3   -1    0    0  501    0  0.00000000000E+00 -0.00000000000E+00 -0.17851167139E+03  0.17851167139E+03  0.00000000000E+00 0. -1.
         25    2    1    2    0    0 -0.94209904057E+02  0.31859863942E+01 -0.11097009248E+03  0.19195610859E+03  0.12508848735E+03 0.  0.
          5    1    3    3  502    0 -0.95037999582E+01 -0.36072224657E+02 -0.88071131838E+02  0.95736744610E+02  0.41800000000E+01 0. -1.
         -5    1    3    3    0  502 -0.84706104099E+02  0.39258211051E+02 -0.22898960645E+02  0.96219363983E+02  0.41800000000E+01 0. -1.
        -11    1    1    2    0    0  0.25603991996E+02  0.95729992429E+01  0.11082455989E+03  0.11414591449E+03  0.00000000000E+00 0.  1.
         11    1    1    2    0    0  0.68605912062E+02 -0.12758985637E+02  0.22563730257E+02  0.73339517366E+02  0.00000000000E+00 0. -1.
</event>
<event>
 7    1  0.2626349E-009  0.1127934E+03  0.7561462E-02  0.1255483E+00
          1   -1    0    0  501    0  0.00000000000E+00  0.00000000000E+00  0.10792396339E+03  0.10792396339E+03  0.00000000000E+00 0. -1.
         -1   -1    0    0    0  501 -0.00000000000E+00 -0.00000000000E+00 -0.25247636686E+03  0.25247636686E+03  0.00000000000E+00 0.  1.
         25    2    1    2    0    0  0.53174221762E+02  0.95992456787E+02 -0.13531504540E+02  0.16694911777E+03  0.12508739621E+03 0.  0.
          5    1    3    3  502    0  0.79796350151E+01  0.25519840551E+02  0.53278394142E+02  0.59757815548E+02  0.41800000000E+01 0. -1.
         -5    1    3    3    0  502  0.45194586747E+02  0.70472616237E+02 -0.66809898682E+02  0.10719130222E+03  0.41800000000E+01 0. -1.
        -11    1    1    2    0    0 -0.20581497735E+02 -0.10292598405E+02 -0.90195230387E+02  0.93084452061E+02  0.00000000000E+00 0.  1.
         11    1    1    2    0    0 -0.32592724026E+02 -0.85699858382E+02 -0.40825668542E+02  0.10036676042E+03  0.00000000000E+00 0. -1.
</event>
<event>
 7    1  0.2626349E-009  0.2209211E+03  0.7561462E-02  0.1133198E+00
         -1   -1    0    0    0  501 -0.00000000000E+00  0.00000000000E+00  0.31228581516E+03  0.31228581516E+03  0.00000000000E+00 0.  1.
          1   -1    0    0  501    0  0.00000000000E+00 -0.00000000000E+00 -0.17854454052E+03  0.17854454052E+03  0.00000000000E+00 0. -1.
         25    2    1    2    0    0  0.12433150280E+03  0.17096477980E+03  0.71924962898E+02  0.25594239274E+03  0.12508409010E+03 0.  0.
          5    1    3    3  502    0  0.66613287586E+02  0.12896463568E+03 -0.11975544480E+02  0.14570550231E+03  0.41800000000E+01 0. -1.
         -5    1    3    3    0  502  0.57718215219E+02  0.42000144121E+02  0.83900507378E+02  0.11023689043E+03  0.41800000000E+01 0. -1.
        -11    1    1    2    0    0 -0.32961340908E+02 -0.11110920275E+03  0.45217792366E+02  0.12440399381E+03  0.00000000000E+00 0. -1.
         11    1    1    2    0    0 -0.91370161896E+02 -0.59855577050E+02  0.16598519378E+02  0.11048396913E+03  0.00000000000E+00 0.  1.
</event>
<event>
 7    1  0.2626349E-009  0.7329444E+02  0.7561462E-02  0.1349235E+00
         -2   -1    0    0    0  501 -0.00000000000E+00  0.00000000000E+00  0.63000516813E+02  0.63000516813E+02  0.00000000000E+00 0.  1.
          2   -1    0    0  501    0  0.00000000000E+00 -0.00000000000E+00 -0.19993886073E+03  0.19993886073E+03  0.00000000000E+00 0. -1.
         25    2    1    2    0    0  0.17500729505E+02  0.10185938408E+02 -0.59733284894E+02  0.14009327971E+03  0.12509209736E+03 0.  0.
          5    1    3    3  502    0 -0.77331935922E+01 -0.18276764181E+02 -0.89401302564E+02  0.91672829629E+02  0.41800000000E+01 0. -1.
         -5    1    3    3    0  502  0.25233923098E+02  0.28462702589E+02  0.29668017670E+02  0.48420450081E+02  0.41800000000E+01 0. -1.
        -11    1    1    2    0    0 -0.36439076735E+01 -0.47808891250E+02 -0.17733485122E+02  0.51121860689E+02  0.00000000000E+00 0.  1.
         11    1    1    2    0    0 -0.13856821832E+02  0.37622952842E+02 -0.59471573906E+02  0.71724237149E+02  0.00000000000E+00 0. -1.
</event>
<event>
 7    1  0.2626349E-009  0.1095291E+03  0.7561462E-02  0.1261444E+00
          1   -1    0    0  501    0  0.00000000000E+00  0.00000000000E+00  0.17396957432E+02  0.17396957432E+02  0.00000000000E+00 0. -1.
         -1   -1    0    0    0  501 -0.00000000000E+00 -0.00000000000E+00 -0.74982885940E+03  0.74982885940E+03  0.00000000000E+00 0.  1.
         25    2    1    2    0    0 -0.22159112643E+02  0.23303842989E+02 -0.35973807455E+03  0.38222142355E+03  0.12509052312E+03 0.  0.
          5    1    3    3  502    0  0.35113747197E+02  0.49588364716E+02 -0.12370629578E+03  0.13788655182E+03  0.41800000000E+01 0.  1.
         -5    1    3    3    0  502 -0.57272859840E+02 -0.26284521728E+02 -0.23603177877E+03  0.24433487173E+03  0.41800000000E+01 0.  1.
        -11    1    1    2    0    0  0.41885623041E+02 -0.47794480623E+02 -0.21454985842E+03  0.22376407116E+03  0.00000000000E+00 0.  1.
         11    1    1    2    0    0 -0.19726510399E+02  0.24490637635E+02 -0.15814396900E+03  0.16124032212E+03  0.00000000000E+00 0. -1.
</event>
<event>
 7    1  0.2626349E-009  0.2557887E+03  0.7561462E-02  0.1109700E+00
         -1   -1    0    0    0  501 -0.00000000000E+00  0.00000000000E+00  0.52736404649E+03  0.52736404649E+03  0.00000000000E+00 0.  1.
          1   -1    0    0  501    0  0.00000000000E+00 -0.00000000000E+00 -0.17340546290E+03  0.17340546290E+03  0.00000000000E+00 0. -1.
         25    2    1    2    0    0  0.26800901195E+02  0.23369328962E+03  0.31235626781E+00  0.26642316472E+03  0.12510141172E+03 0.  0.
          5    1    3    3  502    0 -0.39982584511E+02  0.14653443551E+03  0.24496656930E+02  0.15391070935E+03  0.41800000000E+01 0. -1.
         -5    1    3    3    0  502  0.66783485706E+02  0.87158854111E+02 -0.24184300662E+02  0.11251245536E+03  0.41800000000E+01 0. -1.
        -11    1    1    2    0    0 -0.45819798563E+02 -0.62483732315E+02  0.83151116744E+02  0.11365640748E+03  0.00000000000E+00 0.  1.
         11    1    1    2    0    0  0.19018897368E+02 -0.17120955730E+03  0.27049511058E+03  0.32068993720E+03  0.00000000000E+00 0. -1.
</event>
<event>
 7    1  0.2626349E-009  0.1565132E+03  0.7561462E-02  0.1192691E+00
         -2   -1    0    0    0  501 -0.00000000000E+00  0.00000000000E+00  0.27998867249E+02  0.27998867249E+02  0.00000000000E+00 0.  1.
          2   -1    0    0  501    0  0.00000000000E+00 -0.00000000000E+00 -0.12936083867E+04  0.12936083867E+04  0.00000000000E+00 0. -1.
         25    2    1    2    0    0 -0.10999951903E+03  0.99696331410E+02 -0.51142601825E+03  0.54702996615E+03  0.12508380804E+03 0.  0.
          5    1    3    3  502    0 -0.96974449919E+02  0.58279278667E+02 -0.17930644841E+03  0.21205846623E+03  0.41800000000E+01 0.  1.
         -5    1    3    3    0  502 -0.13025069110E+02  0.41417052743E+02 -0.33211956984E+03  0.33497149992E+03  0.41800000000E+01 0.  1.
        -11    1    1    2    0    0 -0.10400593893E+01 -0.18752929987E+02 -0.19198512492E+02  0.26857717486E+02  0.00000000000E+00 0.  1.
         11    1    1    2    0    0  0.11103957842E+03 -0.80943401423E+02 -0.73498498869E+03  0.74771957030E+03  0.00000000000E+00 0. -1.
</event>
<event>
 7    1  0.2626349E-009  0.1067447E+03  0.7561462E-02  0.1266720E+00
          1   -1    0    0  501    0  0.00000000000E+00  0.00000000000E+00  0.41005198381E+03  0.41005198381E+03  0.00000000000E+00 0. -1.
         -1   -1    0    0    0  501 -0.00000000000E+00 -0.00000000000E+00 -0.33529849286E+02  0.33529849286E+02  0.00000000000E+00 0.  1.
         25    2    1    2    0    0 -0.14064355151E+02 -0.20600516882E+02  0.14817488005E+03  0.19551392775E+03  0.12509082095E+03 0.  0.
          5    1    3    3  502    0 -0.60592343913E+02  0.96102269622E+01  0.38539218923E+02  0.72570878445E+02  0.41800000000E+01 0.  1.
         -5    1    3    3    0  502  0.46527988762E+02 -0.30210743844E+02  0.10963566113E+03  0.12294304931E+03  0.41800000000E+01 0.  1.
        -11    1    1    2    0    0 -0.23848677382E+02 -0.26663843364E+02  0.72190629318E+02  0.80568026643E+02  0.00000000000E+00 0.  1.
         11    1    1    2    0    0  0.37913032532E+02  0.47264360247E+02  0.15615662515E+03  0.16749987869E+03  0.00000000000E+00 0. -1.
</event>
<event>
 7    1  0.2626349E-009  0.1016471E+03  0.7561462E-02  0.1276870E+00
          3   -1    0    0  501    0  0.00000000000E+00  0.00000000000E+00  0.10691240335E+04  0.10691240335E+04  0.00000000000E+00 0. -1.
         -3   -1    0    0    0  501 -0.00000000000E+00 -0.00000000000E+00 -0.13193590554E+02  0.13193590554E+02  0.00000000000E+00 0.  1.
         25    2    1    2    0    0 -0.33700169790E+02  0.92583103552E+01  0.77210108227E+03  0.78294910093E+03  0.12509114937E+03 0.  0.
          5    1    3    3  502    0 -0.75421653871E+02 -0.15395006967E+02  0.37212047774E+03  0.38002178156E+03  0.41800000000E+01 0.  1.
         -5    1    3    3    0  502  0.41721484081E+02  0.24653317322E+02  0.39998060453E+03  0.40292731937E+03  0.41800000000E+01 0.  1.
        -11    1    1    2    0    0 -0.58544742223E+01 -0.31598041230E+02  0.39835452408E+02  0.51181777485E+02  0.00000000000E+00 0.  1.
         11    1    1    2    0    0  0.39554644012E+02  0.22339730874E+02  0.24399390825E+03  0.24818674562E+03  0.00000000000E+00 0. -1.
</event>
<event>
 7    1  0.2626349E-009  0.1147285E+03  0.7561462E-02  0.1252056E+00
          2   -1    0    0  501    0  0.00000000000E+00  0.00000000000E+00  0.43148618777E+03  0.43148618777E+03  0.00000000000E+00 0. -1.
         -2   -1    0    0    0  501 -0.00000000000E+00 -0.00000000000E+00 -0.32583724500E+02  0.32583724500E+02  0.00000000000E+00 0.  1.
         25    2    1    2    0    0  0.44464991082E+02  0.77218509741E+01  0.25739459261E+03  0.28971628534E+03  0.12508711873E+03 0.  0.
          5    1    3    3  502    0 -0.19707779450E+02  0.50057897227E+02  0.13155714693E+03  0.14219333653E+03  0.41800000000E+01 0. -1.
         -5    1    3    3    0  502  0.64172770532E+02 -0.42336046253E+02  0.12583744568E+03  0.14752294881E+03  0.41800000000E+01 0. -1.
        -11    1    1    2    0    0  0.23880095841E+02 -0.17303824335E+02  0.64646946754E+02  0.71055675626E+02  0.00000000000E+00 0. -1.
         11    1    1    2    0    0 -0.68345086922E+02  0.95819733605E+01  0.76860923910E+02  0.10329795131E+03  0.00000000000E+00 0.  1.
</event>
<event>
 7    1  0.2626349E-009  0.2491265E+03  0.7561462E-02  0.1113858E+00
         -2   -1    0    0    0  501 -0.00000000000E+00  0.00000000000E+00  0.36013081405E+03  0.36013081405E+03  0.00000000000E+00 0.  1.
          2   -1    0    0  501    0  0.00000000000E+00 -0.00000000000E+00 -0.21057747462E+03  0.21057747462E+03  0.00000000000E+00 0. -1.
         25    2    1    2    0    0 -0.64133636590E+01  0.23973425206E+03  0.15880180069E+03  0.31365529865E+03  0.12509193268E+03 0.  0.
          5    1    3    3  502    0  0.31750716532E+02  0.11570759236E+03  0.16767813171E+02  0.12122288104E+03  0.41800000000E+01 0.  1.
         -5    1    3    3    0  502 -0.38164080191E+02  0.12402665970E+03  0.14203398752E+03  0.19243241760E+03  0.41800000000E+01 0.  1.
        -11    1    1    2    0    0  0.20919522856E+02 -0.22796997863E+02  0.21203766488E+02  0.37509055725E+02  0.00000000000E+00 0.  1.
         11    1    1    2    0    0 -0.14506159197E+02 -0.21693725420E+03 -0.30452227745E+02  0.21954393430E+03  0.00000000000E+00 0. -1.
</event>
<event>
 7    1  0.2626349E-009  0.9856906E+02  0.7561462E-02  0.1283334E+00
         -1   -1    0    0    0  501 -0.00000000000E+00  0.00000000000E+00  0.11672470114E+04  0.11672470114E+04  0.00000000000E+00 0.  1.
          1   -1    0    0  501    0  0.00000000000E+00 -0.00000000000E+00 -0.17221517729E+02  0.17221517729E+02  0.00000000000E+00 0. -1.
         25    2    1    2    0    0 -0.26796785662E+02  0.11958013728E+02  0.96824837781E+03  0.97673604594E+03  0.12508925009E+03 0.  0.
          5    1    3    3  502    0  0.10265430645E+02 -0.41638094842E+02  0.15521073141E+03  0.16108058093E+03  0.41800000000E+01 0.  1.
         -5    1    3    3    0  502 -0.37062216307E+02  0.53596108570E+02  0.81303764640E+03  0.81565546500E+03  0.41800000000E+01 0.  1.
        -11    1    1    2    0    0 -0.30263550951E+02 -0.91819129749E+01  0.11775484813E+03  0.12192782414E+03  0.00000000000E+00 0.  1.
         11    1    1    2    0    0  0.57060336613E+02 -0.27761007534E+01  0.64022267749E+02  0.85804659067E+02  0.00000000000E+00 0. -1.
</event>
<event>
 7    1  0.2626349E-009  0.2852742E+03  0.7561462E-02  0.1092843E+00
          1   -1    0    0  501    0  0.00000000000E+00  0.00000000000E+00  0.14059150034E+04  0.14059150034E+04  0.00000000000E+00 0. -1.
         -1   -1    0    0    0  501 -0.00000000000E+00 -0.00000000000E+00 -0.61790069588E+02  0.61790069588E+02  0.00000000000E+00 0.  1.
         25    2    1    2    0    0 -0.26049043509E+03  0.44110637334E+02  0.82692346427E+03  0.87706949054E+03  0.12508980923E+03 0.  0.
          5    1    3    3  502    0 -0.45024478401E+02 -0.34737147989E+02  0.24467601227E+03  0.25123235557E+03  0.41800000000E+01 0. -1.
         -5    1    3    3    0  502 -0.21546595669E+03  0.78847785323E+02  0.58224745201E+03  0.62583713497E+03  0.41800000000E+01 0. -1.
        -11    1    1    2    0    0  0.23092615872E+03 -0.73522283530E+02  0.45879534808E+03  0.51886952925E+03  0.00000000000E+00 0.  1.
         11    1    1    2    0    0  0.29564276368E+02  0.29411646196E+02  0.58406121486E+02  0.71766053229E+02  0.00000000000E+00 0. -1.
</event>
<event>
 7    1  0.2626349E-009  0.1072882E+03  0.7561462E-02  0.1265676E+00
         -2   -1    0    0    0  501 -0.00000000000E+00  0.00000000000E+00  0.80024351750E+02  0.80024351750E+02  0.00000000000E+00 0.  1.
          2   -1    0    0  501    0  0.00000000000E+00 -0.00000000000E+00 -0.19917562608E+03  0.19917562608E+03  0.00000000000E+00 0. -1.
         25    2    1    2    0    0 -0.26440485629E+02  0.55303691134E+02 -0.44383945975E+02  0.14618680421E+03  0.12507217728E+03 0.  0.
          5    1    3    3  502    0  0.18286635762E+02 -0.16474532864E+02  0.26023652110E+02  0.36062642023E+02  0.41800000000E+01 0. -1.
         -5    1    3    3    0  502 -0.44727121391E+02  0.71778223998E+02 -0.70407598085E+02  0.11012416218E+03  0.41800000000E+01 0. -1.
        -11    1    1    2    0    0  0.18368942669E+02  0.21174230548E+02 -0.36515437191E+01  0.28268354491E+02  0.00000000000E+00 0.  1.
         11    1    1    2    0    0  0.80715429597E+01 -0.76477921682E+02 -0.71115784631E+02  0.10474481913E+03  0.00000000000E+00 0. -1.
</event>
<event>
 7    1  0.2626349E-009  0.1116012E+03  0.7561462E-02  0.1257633E+00
          2   -1    0    0  501    0  0.00000000000E+00  0.00000000000E+00  0.22529067793E+03  0.22529067793E+03  0.00000000000E+00 0. -1.
         -2   -1    0    0    0  501 -0.00000000000E+00 -0.00000000000E+00 -0.55674713214E+02  0.55674713214E+02  0.00000000000E+00 0.  1.
         25    2    1    2    0    0 -0.19941943976E+02  0.23733195488E+02  0.10612499566E+03  0.16694617957E+03  0.12509023332E+03 0.  0.
          5    1    3    3  502    0  0.41427209627E+02 -0.26523500203E+02  0.43452285761E+02  0.65766886032E+02  0.41800000000E+01 0. -1.
         -5    1    3    3    0  502 -0.61369153603E+02  0.50256695691E+02  0.62672709895E+02  0.10117929354E+03  0.41800000000E+01 0. -1.
        -11    1    1    2    0    0  0.47475112704E+02  0.12311654396E+02  0.37532494768E+02  0.61758815757E+02  0.00000000000E+00 0. -1.
         11    1    1    2    0    0 -0.27533168728E+02 -0.36044849884E+02  0.25958474294E+02  0.52260395818E+02  0.00000000000E+00 0.  1.
</event>
<event>
 7    1  0.2626349E-009  0.9994971E+02  0.7561462E-02  0.1280402E+00
          2   -1    0    0  501    0  0.00000000000E+00  0.00000000000E+00  0.60790648127E+03  0.60790648127E+03  0.00000000000E+00 0.  1.
         -2   -1    0    0    0  501 -0.00000000000E+00 -0.00000000000E+00 -0.30652218017E+02  0.30652218017E+02  0.00000000000E+00 0. -1.
         25    2    1    2    0    0  0.44313328174E+02 -0.64068153064E+02  0.25565826246E+03  0.29508875253E+03  0.12509126835E+03 0.  0.
          5    1    3    3  502    0  0.43965689119E+02 -0.62823829992E+02  0.26967975482E+03  0.28040053137E+03  0.41800000000E+01 0. -1.
         -5    1    3    3    0  502  0.34763905478E+00 -0.12443230723E+01 -0.14021492361E+02  0.14688221160E+02  0.41800000000E+01 0. -1.
        -11    1    1    2    0    0 -0.72052768043E+02  0.49302332581E+02  0.26092130720E+03  0.27514041857E+03  0.00000000000E+00 0.  1.
         11    1    1    2    0    0  0.27739439869E+02  0.14765820483E+02  0.60674693589E+02  0.68329528177E+02  0.00000000000E+00 0. -1.
</event>
<event>
 7    1  0.2626349E-009  0.1866166E+03  0.7561462E-02  0.1161549E+00
         -1   -1    0    0    0  501 -0.00000000000E+00  0.00000000000E+00  0.61937236020E+02  0.61937236020E+02  0.00000000000E+00 0.  1.
          1   -1    0    0  501    0  0.00000000000E+00 -0.00000000000E+00 -0.64221944436E+03  0.64221944436E+03  0.00000000000E+00 0. -1.
         25    2    1    2    0    0  0.12829786629E+03  0.10458438194E+03 -0.33351679425E+03  0.39278373240E+03  0.12508945980E+03 0.  0.
          5    1    3    3  502    0  0.41334277053E+02  0.98293730100E+02 -0.11204950861E+03  0.15473443255E+03  0.41800000000E+01 0. -1.
         -5    1    3    3    0  502  0.86963589237E+02  0.62906518425E+01 -0.22146728563E+03  0.23804929985E+03  0.41800000000E+01 0. -1.
        -11    1    1    2    0    0  0.72120750967E+00 -0.30389203239E+02 -0.10542757502E+02  0.32174113034E+02  0.00000000000E+00 0.  1.
         11    1    1    2    0    0 -0.12901907380E+03 -0.74195178703E+02 -0.23622265659E+03  0.27919883494E+03  0.00000000000E+00 0. -1.
</event>
<event>
 7    1  0.2626349E-009  0.6257158E+02  0.7561462E-02  0.1387346E+00
          3   -1    0    0  501    0  0.00000000000E+00  0.00000000000E+00  0.12378494699E+03  0.12378494699E+03  0.00000000000E+00 0. -1.
         -3   -1    0    0    0  501 -0.00000000000E+00 -0.00000000000E+00 -0.12183511554E+03  0.12183511554E+03  0.00000000000E+00 0.  1.
         25    2    1    2    0    0  0.30151723113E+02 -0.38401993317E+02 -0.17638070847E+02  0.13542473464E+03  0.12507964548E+03 0.  0.
          5    1    3    3  502    0  0.13857902492E+02 -0.32166554079E+02  0.52377424756E+02  0.63147412353E+02  0.41800000000E+01 0.  1.
         -5    1    3    3    0  502  0.16293820621E+02 -0.62354392384E+01 -0.70015495603E+02  0.72277322290E+02  0.41800000000E+01 0.  1.
        -11    1    1    2    0    0 -0.14001835712E+02 -0.12350155428E+02 -0.31356336473E+02  0.36493801931E+02  0.00000000000E+00 0.  1.
         11    1    1    2    0    0 -0.16149887401E+02  0.50752148746E+02  0.50944238767E+02  0.73701525961E+02  0.00000000000E+00 0. -1.
</event>
<event>
 7    1  0.2626349E-009  0.1602728E+03  0.7561462E-02  0.1188389E+00
         -2   -1    0    0    0  501 -0.00000000000E+00  0.00000000000E+00  0.34457979699E+02  0.34457979699E+02  0.00000000000E+00 0.  1.
          2   -1    0    0  501    0  0.00000000000E+00 -0.00000000000E+00 -0.80109561715E+03  0.80109561715E+03  0.00000000000E+00 0. -1.
         25    2    1    2    0    0 -0.33777949970E+01 -0.12111285825E+03 -0.33288155695E+03  0.37568171026E+03  0.12508749951E+03 0.  0.
          5    1    3    3  502    0  0.45499487445E+02 -0.26620612330E+01 -0.80422584615E+02  0.92534071801E+02  0.41800000000E+01 0. -1.
         -5    1    3    3    0  502 -0.48877282442E+02 -0.11845079702E+03 -0.25245897233E+03  0.28314763846E+03  0.41800000000E+01 0. -1.
        -11    1    1    2    0    0 -0.21562277238E+02  0.11966044969E+03 -0.29824224827E+03  0.32207451571E+03  0.00000000000E+00 0.  1.
         11    1    1    2    0    0  0.24940072235E+02  0.14524085590E+01 -0.13551383224E+03  0.13779737088E+03  0.00000000000E+00 0. -1.
</event>
<event>
 7    1  0.3016595E-009  0.1150689E+03  0.7561462E-02  0.1251461E+00
          2   -1    0    0  501    0  0.00000000000E+00  0.00000000000E+00  0.79442792989E+03  0.79442792989E+03  0.00000000000E+00 0. -1.
         -2   -1    0    0    0  501 -0.00000000000E+00 -0.00000000000E+00 -0.20799025046E+02  0.20799025046E+02  0.00000000000E+00 0.  1.
         25    2    1    2    0    0  0.42355488018E+02 -0.42433975810E+02  0.53616689208E+03  0.55381975835E+03  0.12508700534E+03 0.  0.
          5    1    3    3  502    0  0.46386316317E+02 -0.81606532169E+02  0.43802316798E+03  0.44798781738E+03  0.41800000000E+01 0.  1.
         -5    1    3    3    0  502 -0.40308282988E+01  0.39172556359E+02  0.98143724103E+02  0.10583194097E+03  0.41800000000E+01 0.  1.
        -11    1    1    2    0    0  0.19283399089E+02  0.26744118779E+02  0.14806958205E+03  0.15169607279E+03  0.00000000000E+00 0. -1.
         11    1    1    2    0    0 -0.61638887107E+02  0.15689857031E+02  0.89392430709E+02  0.10971112380E+03  0.00000000000E+00 0.  1.
</event>
<event>
 7    1  0.2626349E-009  0.9046068E+02  0.7561462E-02  0.1301740E+00
         -1   -1    0    0    0  501 -0.00000000000E+00  0.00000000000E+00  0.86208309367E+02  0.86208309367E+02  0.00000000000E+00 0.  1.
          1   -1    0    0  501    0  0.00000000000E+00 -0.00000000000E+00 -0.17868380936E+03  0.17868380936E+03  0.00000000000E+00 0. -1.
         25    2    1    2    0    0 -0.28508116761E+02  0.55902173951E+02 -0.30895306456E+02  0.14331387767E+03  0.12508629741E+03 0.  0.
          5    1    3    3  502    0 -0.27275976457E+02 -0.18107455241E+02 -0.56032420562E+02  0.65030480400E+02  0.41800000000E+01 0. -1.
         -5    1    3    3    0  502 -0.12321403040E+01  0.74009629192E+02  0.25137114107E+02  0.78283397272E+02  0.41800000000E+01 0. -1.
        -11    1    1    2    0    0  0.14238438431E+02 -0.57668221645E+02 -0.79095924301E+02  0.98916743566E+02  0.00000000000E+00 0. -1.
         11    1    1    2    0    0  0.14269678329E+02  0.17660476932E+01  0.17515730766E+02  0.22661497487E+02  0.00000000000E+00 0.  1.
</event>
<event>
 7    1  0.2626349E-009  0.1335994E+03  0.7561462E-02  0.1222210E+00
         -2   -1    0    0    0  501 -0.00000000000E+00  0.00000000000E+00  0.71601782081E+02  0.71601782081E+02  0.00000000000E+00 0. -1.
          2   -1    0    0  501    0  0.00000000000E+00 -0.00000000000E+00 -0.39854565644E+03  0.39854565644E+03  0.00000000000E+00 0.  1.
         25    2    1    2    0    0  0.10516405898E+03  0.72347273867E+02 -0.19789396142E+03  0.26665129922E+03  0.12508912052E+03 0.  0.
          5    1    3    3  502    0  0.60257104401E+02  0.52307852696E+02 -0.20190015167E+03  0.21713630219E+03  0.41800000000E+01 0.  1.
         -5    1    3    3    0  502  0.44906954581E+02  0.20039421171E+02  0.40061902517E+01  0.49514997030E+02  0.41800000000E+01 0.  1.
        -11    1    1    2    0    0 -0.98631433265E+02 -0.42515599021E+02 -0.13486652341E+03  0.17240856975E+03  0.00000000000E+00 0.  1.
         11    1    1    2    0    0 -0.65326257166E+01 -0.29831674846E+02  0.58166104690E+01  0.31087569546E+02  0.00000000000E+00 0. -1.
</event>
<event>
 7    1  0.2626349E-009  0.1217372E+03  0.7561462E-02  0.1240258E+00
          1   -1    0    0  501    0  0.00000000000E+00  0.00000000000E+00  0.48427132615E+03  0.48427132615E+03  0.00000000000E+00 0. -1.
         -1   -1    0    0    0  501 -0.00000000000E+00 -0.00000000000E+00 -0.33278804671E+02  0.33278804671E+02  0.00000000000E+00 0.  1.
         25    2    1    2    0    0  0.41267590794E+02 -0.45691343885E+02  0.20060486060E+03  0.24429457519E+03  0.12508723522E+03 0.  0.
          5    1    3    3  502    0 -0.35922524576E+02  0.11505396156E+02  0.29690804358E+02  0.48185248532E+02  0.41800000000E+01 0.  1.
         -5    1    3    3    0  502  0.77190115370E+02 -0.57196740041E+02  0.17091405624E+03  0.19610932666E+03  0.41800000000E+01 0.  1.
        -11    1    1    2    0    0 -0.74672799659E+01 -0.27631313603E+02  0.69833841167E+02  0.75471949317E+02  0.00000000000E+00 0. -1.
         11    1    1    2    0    0 -0.33800310828E+02  0.73322657488E+02  0.18055381971E+03  0.19778360631E+03  0.00000000000E+00 0.  1.
</event>
<event>
 7    1  0.2626349E-009  0.1933764E+03  0.7561462E-02  0.1155451E+00
          2   -1    0    0  501    0  0.00000000000E+00  0.00000000000E+00  0.18246727302E+04  0.18246727302E+04  0.00000000000E+00 0. -1.
         -2   -1    0    0    0  501 -0.00000000000E+00 -0.00000000000E+00 -0.36727917735E+02  0.36727917735E+02  0.00000000000E+00 0.  1.
         25    2    1    2    0    0  0.17851982707E+03 -0.11825136771E+02  0.14652498127E+04  0.14814224111E+04  0.12508470720E+03 0.  0.
          5    1    3    3  502    0 -0.12159927314E+01  0.21629613005E+02  0.39859560188E+03  0.39920576779E+03  0.41800000000E+01 0.  1.
         -5    1    3    3    0  502  0.17973581980E+03 -0.33454749776E+02  0.10666542109E+04  0.10822166434E+04  0.41800000000E+01 0.  1.
        -11    1    1    2    0    0 -0.58523032668E+02  0.19209665305E+02  0.41807631404E+02  0.74443499632E+02  0.00000000000E+00 0.  1.
         11    1    1    2    0    0 -0.11999679440E+03 -0.73845285346E+01  0.28088736828E+03  0.30553473712E+03  0.00000000000E+00 0. -1.
</event>
<event>
 7    1  0.3442635E-009  0.1193451E+03  0.7561462E-02  0.1244181E+00
         -2   -1    0    0    0  501 -0.00000000000E+00  0.00000000000E+00  0.14879124878E+02  0.14879124878E+02  0.00000000000E+00 0.  1.
          2   -1    0    0  501    0  0.00000000000E+00 -0.00000000000E+00 -0.11029189587E+04  0.11029189587E+04  0.00000000000E+00 0. -1.
         25    2    1    2    0    0 -0.56553808143E+02  0.15465652692E+02 -0.75037255155E+03  0.76298294294E+03  0.12508591239E+03 0.  0.
          5    1    3    3  502    0 -0.36545061969E+02  0.69977214294E+02 -0.38913897825E+03  0.39708811223E+03  0.41800000000E+01 0.  1.
         -5    1    3    3    0  502 -0.20008746174E+02 -0.54511561601E+02 -0.36123357329E+03  0.36589483072E+03  0.41800000000E+01 0.  1.
        -11    1    1    2    0    0  0.45191553796E+02 -0.48614040717E+02 -0.15185159084E+03  0.16572418994E+03  0.00000000000E+00 0. -1.
         11    1    1    2    0    0  0.11362254347E+02  0.33148388025E+02 -0.18581569143E+03  0.18909095070E+03  0.00000000000E+00 0.  1.
</event>
<event>
 7    1  0.2626349E-009  0.1185463E+03  0.7561462E-02  0.1245515E+00
          2   -1    0    0  501    0  0.00000000000E+00  0.00000000000E+00  0.66452848216E+03  0.66452848216E+03  0.00000000000E+00 0. -1.
         -2   -1    0    0    0  501 -0.00000000000E+00 -0.00000000000E+00 -0.35058410690E+02  0.35058410690E+02  0.00000000000E+00 0.  1.
         25    2    1    2    0    0 -0.10604837381E+03  0.13730535375E+02  0.35228209019E+03  0.38882542925E+03  0.12509099957E+03 0.  0.
          5    1    3    3  502    0 -0.49416809535E+02  0.15206895955E+02  0.31857982889E+03  0.32277523220E+03  0.41800000000E+01 0. -1.
         -5    1    3    3    0  502 -0.56631564279E+02 -0.14763605798E+01  0.33702261299E+02  0.66050197046E+02  0.41800000000E+01 0. -1.
        -11    1    1    2    0    0  0.25814452824E+02 -0.36781168354E+02  0.16446199447E+03  0.17049043359E+03  0.00000000000E+00 0. -1.
         11    1    1    2    0    0  0.80233920989E+02  0.23050632979E+02  0.11272598681E+03  0.14027103001E+03  0.00000000000E+00 0.  1.
</event>
<event>
 7    1  0.2626349E-009  0.1060705E+03  0.7561462E-02  0.1268025E+00
          1   -1    0    0  501    0  0.00000000000E+00  0.00000000000E+00  0.89328757059E+03  0.89328757059E+03  0.00000000000E+00 0. -1.
         -1   -1    0    0    0  501 -0.00000000000E+00 -0.00000000000E+00 -0.13650059766E+02  0.13650059766E+02  0.00000000000E+00 0.  1.
         25    2    1    2    0    0 -0.13582885869E+02 -0.13510690119E+02  0.48943448110E+03  0.50552925952E+03  0.12508671952E+03 0.  0.
          5    1    3    3  502    0  0.10943411283E+01  0.52040848238E+02  0.29959515139E+03  0.30411210861E+03  0.41800000000E+01 0.  1.
         -5    1    3    3    0  502 -0.14677226997E+02 -0.65551538357E+02  0.18983932971E+03  0.20141715090E+03  0.41800000000E+01 0.  1.
        -11    1    1    2    0    0 -0.20535939589E+02  0.42914910144E+02  0.23669467886E+03  0.24142863402E+03  0.00000000000E+00 0.  1.
         11    1    1    2    0    0  0.34118825458E+02 -0.29404220025E+02  0.15350835086E+03  0.15997973681E+03  0.00000000000E+00 0. -1.
</event>
<event>
 7    1  0.2626349E-009  0.6248501E+02  0.7561462E-02  0.1387690E+00
          2   -1    0    0  501    0  0.00000000000E+00  0.00000000000E+00  0.40036565812E+03  0.40036565812E+03  0.00000000000E+00 0.  1.
         -2   -1    0    0    0  501 -0.00000000000E+00 -0.00000000000E+00 -0.32831650297E+02  0.32831650297E+02  0.00000000000E+00 0. -1.
         25    2    1    2    0    0  0.14522582846E+01  0.34674084126E+02  0.19054043830E+03  0.23055818048E+03  0.12508802817E+03 0.  0.
          5    1    3    3  502    0  0.75600235157E+01  0.43534694064E+02  0.50060451057E+01  0.44664935133E+02  0.41800000000E+01 0.  1.
         -5    1    3    3    0  502 -0.61077652311E+01 -0.88606099380E+01  0.18553439320E+03  0.18589324534E+03  0.41800000000E+01 0.  1.
        -11    1    1    2    0    0  0.23204593002E+02 -0.37628649541E+02  0.17163151419E+03  0.17723358898E+03  0.00000000000E+00 0.  1.
         11    1    1    2    0    0 -0.24656851287E+02  0.29545654150E+01  0.53620553301E+01  0.25405538954E+02  0.00000000000E+00 0. -1.
</event>
<event>
 7    1  0.2782008E-009  0.1260429E+03  0.7561462E-02  0.1233448E+00
          1   -1    0    0  501    0  0.00000000000E+00  0.00000000000E+00  0.97452854860E+03  0.97452854860E+03  0.00000000000E+00 0. -1.
         -1   -1    0    0    0  501 -0.00000000000E+00 -0.00000000000E+00 -0.18069052720E+02  0.18069052720E+02  0.00000000000E+00 0.  1.
         25    2    1    2    0    0 -0.60677977679E+02 -0.27927271204E+02  0.66481906492E+03  0.67977207181E+03  0.12507570140E+03 0.  0.
          5    1    3    3  502    0 -0.36055661210E+02 -0.77892615462E+02  0.40192442107E+03  0.41100849493E+03  0.41800000000E+01 0. -1.
         -5    1    3    3    0  502 -0.24622316469E+02  0.49965344257E+02  0.26289464385E+03  0.26876357688E+03  0.41800000000E+01 0. -1.
        -11    1    1    2    0    0  0.22488959759E+02 -0.32071495876E+02  0.13927267459E+03  0.14467623179E+03  0.00000000000E+00 0.  1.
         11    1    1    2    0    0  0.38189017919E+02  0.59998767080E+02  0.15236775637E+03  0.16814929772E+03  0.00000000000E+00 0. -1.
</event>
<event>
 7    1  0.2626349E-009  0.1024638E+03  0.7561462E-02  0.1275199E+00
          4   -1    0    0  501    0  0.00000000000E+00  0.00000000000E+00  0.84343104690E+02  0.84343104690E+02  0.00000000000E+00 0. -1.
         -4   -1    0    0    0  501 -0.00000000000E+00 -0.00000000000E+00 -0.18921660736E+03  0.18921660736E+03  0.00000000000E+00 0.  1.
         25    2    1    2    0    0  0.15133375579E+02 -0.33759321005E+02 -0.11563478443E+03  0.17432073402E+03  0.12509038384E+03 0.  0.
          5    1    3    3  502    0 -0.21654034146E+02  0.36023249509E+02 -0.11805940144E+02  0.43856861752E+02  0.41800000000E+01 0.  1.
         -5    1    3    3    0  502  0.36787409725E+02 -0.69782570515E+02 -0.10382884429E+03  0.13046387227E+03  0.41800000000E+01 0.  1.
        -11    1    1    2    0    0 -0.26793410541E+02  0.54029998618E+02 -0.17271382274E+02  0.62732991677E+02  0.00000000000E+00 0.  1.
         11    1    1    2    0    0  0.11660034962E+02 -0.20270677613E+02  0.28032664037E+02  0.36505986347E+02  0.00000000000E+00 0. -1.
</event>
<event>
 7    1  0.2626349E-009  0.1671645E+03  0.7561462E-02  0.1180838E+00
         -1   -1    0    0    0  501 -0.00000000000E+00  0.00000000000E+00  0.95080580771E+02  0.95080580771E+02  0.00000000000E+00 0.  1.
          1   -1    0    0  501    0  0.00000000000E+00 -0.00000000000E+00 -0.35037933004E+03  0.35037933004E+03  0.00000000000E+00 0. -1.
         25    2    1    2    0    0 -0.13304922797E+02 -0.13814441312E+03 -0.18410329015E+03  0.26229882791E+03  0.12508298778E+03 0.  0.
          5    1    3    3  502    0 -0.57524170656E+02 -0.67712769580E+02 -0.14546444904E+03  0.17050345365E+03  0.41800000000E+01 0.  1.
         -5    1    3    3    0  502  0.44219247859E+02 -0.70431643540E+02 -0.38638841117E+02  0.91795374261E+02  0.41800000000E+01 0.  1.
        -11    1    1    2    0    0  0.47202785066E+02  0.10292482304E+03 -0.25117998044E+02  0.11598506775E+03  0.00000000000E+00 0.  1.
         11    1    1    2    0    0 -0.33897862269E+02  0.35219590079E+02 -0.46077461069E+02  0.67176015141E+02  0.00000000000E+00 0. -1.
</event>
<event>
 7    1  0.2626349E-009  0.2676083E+03  0.7561462E-02  0.1102656E+00
          2   -1    0    0  501    0  0.00000000000E+00  0.00000000000E+00  0.10106579106E+03  0.10106579106E+03  0.00000000000E+00 0. -1.
         -2   -1    0    0    0  501 -0.00000000000E+00 -0.00000000000E+00 -0.98207273951E+03  0.98207273951E+03  0.00000000000E+00 0.  1.
         25    2    1    2    0    0 -0.25663185592E+03  0.24402963418E+02 -0.69855283758E+03  0.75503786631E+03  0.12510275203E+03 0.  0.
          5    1    3    3  502    0 -0.20904868808E+03 -0.20748656412E+02 -0.60696650804E+03  0.64230652731E+03  0.41800000000E+01 0.  1.
         -5    1    3    3    0  502 -0.47583167831E+02  0.45151619829E+02 -0.91586329540E+02  0.11273133900E+03  0.41800000000E+01 0.  1.
        -11    1    1    2    0    0  0.41052935057E+02  0.65775614259E+01 -0.73806533649E+02  0.84711346350E+02  0.00000000000E+00 0. -1.
         11    1    1    2    0    0  0.21557892086E+03 -0.30980524844E+02 -0.10864757721E+03  0.24338931791E+03  0.00000000000E+00 0.  1.
</event>
<event>
 7    1  0.2626349E-009  0.1404498E+03  0.7561462E-02  0.1212725E+00
         -2   -1    0    0    0  501 -0.00000000000E+00  0.00000000000E+00  0.57503550073E+02  0.57503550073E+02  0.00000000000E+00 0.  1.
          2   -1    0    0  501    0  0.00000000000E+00 -0.00000000000E+00 -0.55182299871E+03  0.55182299871E+03  0.00000000000E+00 0. -1.
         25    2    1    2    0    0 -0.22254077299E+02 -0.13461738885E+03 -0.27441446705E+03  0.33100954557E+03  0.12508770601E+03 0.  0.
          5    1    3    3  502    0 -0.35755723612E+02 -0.78460939498E+02 -0.25612601378E+03  0.27028244140E+03  0.41800000000E+01 0.  1.
         -5    1    3    3    0  502  0.13501646313E+02 -0.56156449352E+02 -0.18288453269E+02  0.60727104162E+02  0.41800000000E+01 0.  1.
        -11    1    1    2    0    0  0.13839053821E+02  0.59961454363E+02 -0.18595638400E+03  0.19587412328E+03  0.00000000000E+00 0. -1.
         11    1    1    2    0    0  0.84150234778E+01  0.74655934487E+02 -0.33948597593E+02  0.82442879940E+02  0.00000000000E+00 0.  1.
</event>
<event>
 7    1  0.2626349E-009  0.1105920E+03  0.7561462E-02  0.1259478E+00
          4   -1    0    0  501    0  0.00000000000E+00  0.00000000000E+00  0.29107168249E+03  0.29107168249E+03  0.00000000000E+00 0. -1.
         -4   -1    0    0    0  501 -0.00000000000E+00 -0.00000000000E+00 -0.62919855656E+02  0.62919855656E+02  0.00000000000E+00 0.  1.
         25    2    1    2    0    0 -0.32161562060E+02 -0.68287488175E+02  0.14161886093E+03  0.20347257168E+03  0.12509052137E+03 0.  0.
          5    1    3    3  502    0 -0.60389173601E+02  0.40846568694E+01  0.95176245502E+02  0.11286951235E+03  0.41800000000E+01 0. -1.
         -5    1    3    3    0  502  0.28227611541E+02 -0.72372145044E+02  0.46442615429E+02  0.90603059328E+02  0.41800000000E+01 0. -1.
        -11    1    1    2    0    0  0.32183944784E+02  0.28674061385E+02 -0.11645480371E+02  0.44650031481E+02  0.00000000000E+00 0.  1.
         11    1    1    2    0    0 -0.22382724078E-01  0.39613426790E+02  0.98178446273E+02  0.10586893499E+03  0.00000000000E+00 0. -1.
</event>
<event>
 7    1  0.2626349E-009  0.1024821E+03  0.7561462E-02  0.1275161E+00
          1   -1    0    0  501    0  0.00000000000E+00  0.00000000000E+00  0.38497906740E+03  0.38497906740E+03  0.00000000000E+00 0. -1.
         -1   -1    0    0    0  501 -0.00000000000E+00 -0.00000000000E+00 -0.43403584079E+02  0.43403584079E+02  0.00000000000E+00 0.  1.
         25    2    1    2    0    0 -0.34575823698E+02 -0.12043424670E+02  0.30024533627E+03  0.32731603532E+03  0.12509193965E+03 0.  0.
          5    1    3    3  502    0 -0.70039113388E+02  0.10092761695E+02  0.25867790943E+03  0.26821460525E+03  0.41800000000E+01 0.  1.
         -5    1    3    3    0  502  0.35463289690E+02 -0.22136186365E+02  0.41567426843E+02  0.59101430074E+02  0.41800000000E+01 0.  1.
        -11    1    1    2    0    0  0.62336214487E+02  0.14532866935E+01  0.30787716827E+02  0.69539910743E+02  0.00000000000E+00 0. -1.
         11    1    1    2    0    0 -0.27760390788E+02  0.10590137977E+02  0.10542430221E+02  0.31526705411E+02  0.00000000000E+00 0.  1.
</event>
<event>
 7    1  0.2626349E-009  0.9663237E+02  0.7561462E-02  0.1287541E+00
          1   -1    0    0  501    0  0.00000000000E+00  0.00000000000E+00  0.20421763100E+03  0.20421763100E+03  0.00000000000E+00 0. -1.
         -1   -1    0    0    0  501 -0.00000000000E+00 -0.00000000000E+00 -0.67923093789E+02  0.67923093789E+02  0.00000000000E+00 0.  1.
         25    2    1    2    0    0  0.30526913389E+02  0.18112140819E+02  0.40677849512E+02  0.13624317989E+03  0.12509026556E+03 0.  0.
          5    1    3    3  502    0 -0.11157707104E+02  0.52164079554E+02 -0.18051103768E+02  0.56470349484E+02  0.41800000000E+01 0.  1.
         -5    1    3    3    0  502  0.41684620493E+02 -0.34051938735E+02  0.58728953280E+02  0.79772830404E+02  0.41800000000E+01 0.  1.
        -11    1    1    2    0    0 -0.12720444563E+02 -0.48723365464E+02  0.85225963290E+02  0.98991115110E+02  0.00000000000E+00 0. -1.
         11    1    1    2    0    0 -0.17806468826E+02  0.30611224645E+02  0.10390724411E+02  0.36906429794E+02  0.00000000000E+00 0.  1.
</event>
<event>
 7    1  0.2626349E-009  0.9303521E+02  0.7561462E-02  0.1295664E+00
          2   -1    0    0  501    0  0.00000000000E+00  0.00000000000E+00  0.37174766945E+03  0.37174766945E+03  0.00000000000E+00 0. -1.
         -2   -1    0    0    0  501 -0.00000000000E+00 -0.00000000000E+00 -0.30053370067E+02  0.30053370067E+02  0.00000000000E+00 0.  1.
         25    2    1    2    0    0 -0.16751244677E+02  0.39049389264E+02  0.16879864013E+03  0.21435021247E+03  0.12509026211E+03 0.  0.
          5    1    3    3  502    0 -0.58283265208E+02  0.43157414095E+02  0.49530548406E+02  0.87921834717E+02  0.41800000000E+01 0.  1.
         -5    1    3    3    0  502  0.41532020531E+02 -0.41080248308E+01  0.11926809172E+03  0.12642837775E+03  0.41800000000E+01 0.  1.
        -11    1    1    2    0    0  0.36756577856E+02 -0.13780739527E+02  0.79764355453E+02  0.88900546671E+02  0.00000000000E+00 0.  1.
         11    1    1    2    0    0 -0.20005333179E+02 -0.25268649737E+02  0.93131303806E+02  0.98550280383E+02  0.00000000000E+00 0. -1.
</event>
<event>
 7    1  0.2626349E-009  0.9217335E+02  0.7561462E-02  0.1297672E+00
          1   -1    0    0  501    0  0.00000000000E+00  0.00000000000E+00  0.96221906410E+02  0.96221906410E+02  0.00000000000E+00 0. -1.
         -1   -1    0    0    0  501 -0.00000000000E+00 -0.00000000000E+00 -0.37367036369E+03  0.37367036369E+03  0.00000000000E+00 0.  1.
         25    2    1    2    0    0  0.58340753857E+02  0.28305429116E+02  0.28978474154E+02  0.14384668641E+03  0.12508907366E+03 0.  0.
          5    1    3    3  502    0  0.40924151214E+02  0.43799904078E+02  0.72581383014E+02  0.94227104965E+02  0.41800000000E+01 0. -1.
         -5    1    3    3    0  502  0.17416602643E+02 -0.15494474962E+02 -0.43602908860E+02  0.49619581448E+02  0.41800000000E+01 0. -1.
        -11    1    1    2    0    0 -0.72709202937E+02 -0.46000151912E+01 -0.27333434003E+03  0.28287709304E+03  0.00000000000E+00 0.  1.
         11    1    1    2    0    0  0.14368449080E+02 -0.23705413925E+02 -0.33092591408E+02  0.43168490644E+02  0.00000000000E+00 0. -1.
</event>
<event>
 7    1  0.2626349E-009  0.7687394E+02  0.7561462E-02  0.1338164E+00
         -2   -1    0    0    0  501 -0.00000000000E+00  0.00000000000E+00  0.60820539483E+02  0.60820539483E+02  0.00000000000E+00 0.  1.
          2   -1    0    0  501    0  0.00000000000E+00 -0.00000000000E+00 -0.22064780036E+03  0.22064780036E+03  0.00000000000E+00 0. -1.
         25    2    1    2    0    0  0.34766066653E+02 -0.16764417085E+02 -0.82122662530E+02  0.15453455525E+03  0.12508825682E+03 0.  0.
          5    1    3    3  502    0  0.74421416212E+01  0.13094177587E+02  0.30781256745E+02  0.34522472759E+02  0.41800000000E+01 0.  1.
         -5    1    3    3    0  502  0.27323925032E+02 -0.29858594673E+02 -0.11290391928E+03  0.12001208249E+03  0.41800000000E+01 0.  1.
        -11    1    1    2    0    0 -0.89866201814E+01  0.52556131943E+02 -0.57502241277E+02  0.78418200050E+02  0.00000000000E+00 0.  1.
         11    1    1    2    0    0 -0.25779446472E+02 -0.35791714858E+02 -0.20202357071E+02  0.48515584549E+02  0.00000000000E+00 0. -1.
</event>
<event>
 7    1  0.2626349E-009  0.1145970E+03  0.7561462E-02  0.1252286E+00
         -2   -1    0    0    0  501 -0.00000000000E+00  0.00000000000E+00  0.27123661244E+02  0.27123661244E+02  0.00000000000E+00 0. -1.
          2   -1    0    0  501    0  0.00000000000E+00 -0.00000000000E+00 -0.49023064190E+03  0.49023064190E+03  0.00000000000E+00 0.  1.
         25    2    1    2    0    0 -0.35245724182E+02 -0.30183083719E+01 -0.24923740358E+03  0.28110193563E+03  0.12509054166E+03 0.  0.
          5    1    3    3  502    0  0.15482722975E+02 -0.54971895005E+02 -0.11007536828E+03  0.12407934177E+03  0.41800000000E+01 0.  1.
         -5    1    3    3    0  502 -0.50728447157E+02  0.51953586633E+02 -0.13916203529E+03  0.15702259386E+03  0.41800000000E+01 0.  1.
        -11    1    1    2    0    0  0.67176290549E+02  0.64490398147E+00 -0.12706647962E+03  0.14373225162E+03  0.00000000000E+00 0. -1.
         11    1    1    2    0    0 -0.31930566367E+02  0.23734043904E+01 -0.86803097462E+02  0.92520115899E+02  0.00000000000E+00 0.  1.
</event>
<event>
 7    1  0.2626349E-009  0.1390726E+03  0.7561462E-02  0.1214582E+00
         -1   -1    0    0    0  501 -0.00000000000E+00  0.00000000000E+00  0.70360420172E+02  0.70360420172E+02  0.00000000000E+00 0.  1.
          1   -1    0    0  501    0  0.00000000000E+00 -0.00000000000E+00 -0.32345617370E+03  0.32345617370E+03  0.00000000000E+00 0. -1.
         25    2    1    2    0    0  0.98940441821E+02 -0.32993966433E+02 -0.14669369113E+03  0.21919118691E+03  0.12509166459E+03 0.  0.
          5    1    3    3  502    0 -0.16460727084E+02 -0.43552795606E+02 -0.37788156785E+02  0.60110055186E+02  0.41800000000E+01 0.  1.
         -5    1    3    3    0  502  0.11540116891E+03  0.10558829173E+02 -0.10890553435E+03  0.15908113172E+03  0.41800000000E+01 0.  1.
        -11    1    1    2    0    0 -0.47769990405E+02 -0.97626017793E+01  0.34956524210E+00  0.48758615369E+02  0.00000000000E+00 0.  1.
         11    1    1    2    0    0 -0.51170451416E+02  0.42756568213E+02 -0.10675162764E+03  0.12586679160E+03  0.00000000000E+00 0. -1.
</event>
<event>
 7    1  0.2626349E-009  0.6180266E+02  0.7561462E-02  0.1390419E+00
         -1   -1    0    0    0  501 -0.00000000000E+00  0.00000000000E+00  0.33585446495E+02  0.33585446495E+02  0.00000000000E+00 0.  1.
          1   -1    0    0  501    0  0.00000000000E+00 -0.00000000000E+00 -0.41128288378E+03  0.41128288378E+03  0.00000000000E+00 0. -1.
         25    2    1    2    0    0  0.77021896451E+01  0.12554560076E+02 -0.29316307838E+03  0.31907462366E+03  0.12508830576E+03 0.  0.
          5    1    3    3  502    0  0.32518268553E+02 -0.41371074154E+00 -0.28853052171E+03  0.29038757429E+03  0.41800000000E+01 0. -1.
         -5    1    3    3    0  502 -0.24816078908E+02  0.12968270818E+02 -0.46325566729E+01  0.28687049372E+02  0.41800000000E+01 0. -1.
        -11    1    1    2    0    0  0.14233016981E+02  0.19207420737E+02  0.82585670647E+01  0.25292443807E+02  0.00000000000E+00 0.  1.
         11    1    1    2    0    0 -0.21935206626E+02 -0.31761980814E+02 -0.92792925966E+02  0.10050126280E+03  0.00000000000E+00 0. -1.
</event>
<event>
 7    1  0.2626349E-009  0.9577435E+02  0.7561462E-02  0.1289442E+00
          1   -1    0    0  501    0  0.00000000000E+00  0.00000000000E+00  0.10604334691E+04  0.10604334691E+04  0.00000000000E+00 0.  1.
         -1   -1    0    0    0  501 -0.00000000000E+00 -0.00000000000E+00 -0.14861163592E+02  0.14861163592E+02  0.00000000000E+00 0. -1.
         25    2    1    2    0    0  0.33378096368E+02 -0.21796147999E+02  0.79863177081E+03  0.80935203125E+03  0.12509530668E+03 0.  0.
          5    1    3    3  502    0  0.75090297354E+02 -0.23120225142E+02  0.34854400615E+03  0.35731427930E+03  0.41800000000E+01 0. -1.
         -5    1    3    3    0  502 -0.41712200986E+02  0.13240771428E+01  0.45008776467E+03  0.45203775196E+03  0.41800000000E+01 0. -1.
        -11    1    1    2    0    0  0.12513524502E+02  0.21682940001E+02  0.14325115228E+02  0.28843493354E+02  0.00000000000E+00 0. -1.
         11    1    1    2    0    0 -0.45891620870E+02  0.11320799795E+00  0.23261541949E+03  0.23709910811E+03  0.00000000000E+00 0.  1.
</event>
<event>
 7    1  0.2626349E-009  0.1263246E+03  0.7561462E-02  0.1233014E+00
         -2   -1    0    0    0  501 -0.00000000000E+00  0.00000000000E+00  0.20552455575E+02  0.20552455575E+02  0.00000000000E+00 0.  1.
          2   -1    0    0  501    0  0.00000000000E+00 -0.00000000000E+00 -0.10176161921E+04  0.10176161921E+04  0.00000000000E+00 0. -1.
         25    2    1    2    0    0  0.90010566891E+02 -0.17285078169E+02 -0.65762822421E+03  0.67566598344E+03  0.12509581855E+03 0.  0.
          5    1    3    3  502    0  0.10730694257E+03 -0.21467099438E+02 -0.33345199044E+03  0.35097481193E+03  0.41800000000E+01 0.  1.
         -5    1    3    3    0  502 -0.17296375677E+02  0.41820212689E+01 -0.32417623377E+03  0.32469117151E+03  0.41800000000E+01 0.  1.
        -11    1    1    2    0    0  0.13617794542E+02  0.16279116831E+02 -0.35228383740E+02  0.41127764270E+02  0.00000000000E+00 0. -1.
         11    1    1    2    0    0 -0.10362836143E+03  0.10059613385E+01 -0.30420712854E+03  0.32137489993E+03  0.00000000000E+00 0.  1.
</event>
<event>
 7    1  0.2626349E-009  0.1100923E+03  0.7561462E-02  0.1260399E+00
          1   -1    0    0  501    0  0.00000000000E+00  0.00000000000E+00  0.12215814244E+03  0.12215814244E+03  0.00000000000E+00 0. -1.
         -1   -1    0    0    0  501 -0.00000000000E+00 -0.00000000000E+00 -0.99368355850E+02  0.99368355850E+02  0.00000000000E+00 0.  1.
         25    2    1    2    0    0 -0.26022542351E+01  0.17295262087E+02  0.12817560124E+02  0.12695373939E+03  0.12508822599E+03 0.  0.
          5    1    3    3  502    0  0.44864970279E+02  0.50894985358E+02  0.56631516918E+01  0.68210767330E+02  0.41800000000E+01 0.  1.
         -5    1    3    3    0  502 -0.47467224514E+02 -0.33599723272E+02  0.71544084325E+01  0.58742972065E+02  0.41800000000E+01 0.  1.
        -11    1    1    2    0    0 -0.34500340683E+02  0.21156074795E+02  0.17278425789E+01  0.40507264138E+02  0.00000000000E+00 0. -1.
         11    1    1    2    0    0  0.37102594918E+02 -0.38451336882E+02  0.82443838858E+01  0.54065494757E+02  0.00000000000E+00 0.  1.
</event>
<event>
 7    1  0.2626349E-009  0.9621380E+02  0.7561462E-02  0.1288465E+00
         -1   -1    0    0    0  501 -0.00000000000E+00  0.00000000000E+00  0.40588460115E+03  0.40588460115E+03  0.00000000000E+00 0.  1.
          1   -1    0    0  501    0  0.00000000000E+00 -0.00000000000E+00 -0.31031173016E+02  0.31031173016E+02  0.00000000000E+00 0. -1.
         25    2    1    2    0    0  0.20669290588E+01 -0.31523495855E+02  0.16916117009E+03  0.21274527052E+03  0.12508815162E+03 0.  0.
          5    1    3    3  502    0 -0.50878602932E+02 -0.15988757711E+02  0.14068491520E+03  0.15051242598E+03  0.41800000000E+01 0. -1.
         -5    1    3    3    0  502  0.52945531991E+02 -0.15534738144E+02  0.28476254891E+02  0.62232844541E+02  0.41800000000E+01 0. -1.
        -11    1    1    2    0    0  0.13344369237E+02  0.54400304998E+02  0.17044662795E+03  0.17941437611E+03  0.00000000000E+00 0. -1.
         11    1    1    2    0    0 -0.15411298296E+02 -0.22876809142E+02  0.35245630093E+02  0.44756127540E+02  0.00000000000E+00 0.  1.
</event>
<event>
 7    1  0.2626349E-009  0.1409118E+03  0.7561462E-02  0.1212107E+00
         -3   -1    0    0    0  501 -0.00000000000E+00  0.00000000000E+00  0.80648764047E+02  0.80648764047E+02  0.00000000000E+00 0.  1.
          3   -1    0    0  501    0  0.00000000000E+00 -0.00000000000E+00 -0.34579957494E+03  0.34579957494E+03  0.00000000000E+00 0. -1.
         25    2    1    2    0    0 -0.67395540531E+02 -0.10687791669E+03 -0.14775419895E+03  0.23117927199E+03  0.12508998573E+03 0.  0.
          5    1    3    3  502    0 -0.44632051353E+02 -0.48369335761E+02 -0.15441493783E+03  0.16790788568E+03  0.41800000000E+01 0.  1.
         -5    1    3    3    0  502 -0.22763489178E+02 -0.58508580932E+02  0.66607388805E+01  0.63271386302E+02  0.41800000000E+01 0.  1.
        -11    1    1    2    0    0 -0.19113178575E+02  0.59304307290E+01 -0.30380274993E+02  0.36379179657E+02  0.00000000000E+00 0.  1.
         11    1    1    2    0    0  0.86508719106E+02  0.10094748596E+03 -0.87016336953E+02  0.15888988734E+03  0.00000000000E+00 0. -1.
</event>
<event>
 7    1  0.2626349E-009  0.8207108E+02  0.7561462E-02  0.1323275E+00
         -2   -1    0    0    0  501 -0.00000000000E+00  0.00000000000E+00  0.24598695739E+02  0.24598695739E+02  0.00000000000E+00 0.  1.
          2   -1    0    0  501    0  0.00000000000E+00 -0.00000000000E+00 -0.52536798314E+03  0.52536798314E+03  0.00000000000E+00 0. -1.
         25    2    1    2    0    0 -0.25133166576E+02  0.23266562596E+02 -0.26041026246E+03  0.29091754605E+03  0.12508598964E+03 0.  0.
          5    1    3    3  502    0 -0.11148670354E+02  0.42795834365E+02 -0.19057919403E+02  0.48336869795E+02  0.41800000000E+01 0. -1.
         -5    1    3    3    0  502 -0.13984496222E+02 -0.19529271769E+02 -0.24135234306E+03  0.24258067625E+03  0.41800000000E+01 0. -1.
        -11    1    1    2    0    0  0.25731579227E+02  0.31441510136E+02 -0.82161962882E+02  0.91658446822E+02  0.00000000000E+00 0.  1.
         11    1    1    2    0    0 -0.59841265075E+00 -0.54708072732E+02 -0.15819706206E+03  0.16739068601E+03  0.00000000000E+00 0. -1.
</event>
<event>
 7    1  0.2626349E-009  0.2952291E+03  0.7561462E-02  0.1087650E+00
         -1   -1    0    0    0  501 -0.00000000000E+00  0.00000000000E+00  0.41537214594E+02  0.41537214594E+02  0.00000000000E+00 0.  1.
          1   -1    0    0  501    0  0.00000000000E+00 -0.00000000000E+00 -0.23018317118E+04  0.23018317118E+04  0.00000000000E+00 0. -1.
         25    2    1    2    0    0 -0.26743406694E+03 -0.10683531633E+03 -0.12595107339E+04  0.12980577531E+04  0.12510746093E+03 0.  0.
          5    1    3    3  502    0 -0.38525636439E+02 -0.98520847084E+01 -0.43600382754E+03  0.43783341383E+03  0.41800000000E+01 0. -1.
         -5    1    3    3    0  502 -0.22890843050E+03 -0.96983231623E+02 -0.82350690632E+03  0.86022433930E+03  0.41800000000E+01 0. -1.
        -11    1    1    2    0    0  0.14070863772E+03  0.10418213173E+03 -0.57695361491E+03  0.60293309003E+03  0.00000000000E+00 0. -1.
         11    1    1    2    0    0  0.12672542922E+03  0.26531846040E+01 -0.42383014848E+03  0.44237808328E+03  0.00000000000E+00 0.  1.
</event>
<event>
 7    1  0.2626349E-009  0.1131728E+03  0.7561462E-02  0.1254805E+00
         -2   -1    0    0    0  501 -0.00000000000E+00  0.00000000000E+00  0.28906735997E+02  0.28906735997E+02  0.00000000000E+00 0.  1.
          2   -1    0    0  501    0  0.00000000000E+00 -0.00000000000E+00 -0.44553875946E+03  0.44553875946E+03  0.00000000000E+00 0. -1.
         25    2    1    2    0    0  0.20538371604E+02 -0.28443519416E+02 -0.22813019439E+03  0.26253035512E+03  0.12509173939E+03 0.  0.
          5    1    3    3  502    0  0.27940986935E+02 -0.76273659669E+02 -0.14236593147E+03  0.16396310790E+03  0.41800000000E+01 0. -1.
         -5    1    3    3    0  502 -0.74026153301E+01  0.47830140252E+02 -0.85764262920E+02  0.98567247220E+02  0.41800000000E+01 0. -1.
        -11    1    1    2    0    0  0.35586532948E+02  0.65511641502E+01 -0.80212323434E+02  0.87996226679E+02  0.00000000000E+00 0. -1.
         11    1    1    2    0    0 -0.56124904552E+02  0.21892355266E+02 -0.10828950564E+03  0.12391891366E+03  0.00000000000E+00 0.  1.
</event>
<event>
 7    1  0.2626349E-009  0.1435702E+03  0.7561462E-02  0.1208604E+00
         -2   -1    0    0    0  501 -0.00000000000E+00  0.00000000000E+00  0.12986995919E+03  0.12986995919E+03  0.00000000000E+00 0.  1.
          2   -1    0    0  501    0  0.00000000000E+00 -0.00000000000E+00 -0.16042326214E+03  0.16042326214E+03  0.00000000000E+00 0. -1.
         25    2    1    2    0    0 -0.91765092906E+02 -0.24573493882E+02 -0.66709514201E+01  0.15721797357E+03  0.12509316825E+03 0.  0.
          5    1    3    3  502    0 -0.10260790906E+02  0.46731468800E+02  0.46660961395E+01  0.48253070985E+02  0.41800000000E+01 0. -1.
         -5    1    3    3    0  502 -0.81504302000E+02 -0.71304962682E+02 -0.11337047560E+02  0.10896490258E+03  0.41800000000E+01 0. -1.
        -11    1    1    2    0    0  0.14693649508E+01  0.39234261754E+02 -0.40331879237E+01  0.39468378907E+02  0.00000000000E+00 0.  1.
         11    1    1    2    0    0  0.90295727955E+02 -0.14660767872E+02 -0.19849163603E+02  0.93606868857E+02  0.00000000000E+00 0. -1.
</event>
<event>
 7    1  0.2626349E-009  0.1138524E+03  0.7561462E-02  0.1253598E+00
         -1   -1    0    0    0  501 -0.00000000000E+00  0.00000000000E+00  0.15084963437E+02  0.15084963437E+02  0.00000000000E+00 0.  1.
          1   -1    0    0  501    0  0.00000000000E+00 -0.00000000000E+00 -0.91565526313E+03  0.91565526313E+03  0.00000000000E+00 0. -1.
         25    2    1    2    0    0  0.12785688331E+02 -0.45051996006E+02 -0.50427504128E+03  0.52166606039E+03  0.12509598367E+03 0.  0.
          5    1    3    3  502    0  0.43140521281E+02 -0.73906226297E+02 -0.40275224470E+03  0.41176459035E+03  0.41800000000E+01 0.  1.
         -5    1    3    3    0  502 -0.30354832950E+02  0.28854230291E+02 -0.10152279659E+03  0.10990147004E+03  0.41800000000E+01 0.  1.
        -11    1    1    2    0    0  0.16162843813E+02 -0.21770607205E+02 -0.78809435942E+02  0.83343410367E+02  0.00000000000E+00 0.  1.
         11    1    1    2    0    0 -0.28948532143E+02  0.66822603210E+02 -0.31748582247E+03  0.32573075581E+03  0.00000000000E+00 0. -1.
</event>
<event>
 7    1  0.2626349E-009  0.7758178E+02  0.7561462E-02  0.1336058E+00
          1   -1    0    0  501    0  0.00000000000E+00  0.00000000000E+00  0.29523236924E+02  0.29523236924E+02  0.00000000000E+00 0. -1.
         -1   -1    0    0    0  501 -0.00000000000E+00 -0.00000000000E+00 -0.44530903624E+03  0.44530903624E+03  0.00000000000E+00 0.  1.
         25    2    1    2    0    0  0.29667168165E+02 -0.25840957099E+02 -0.25003725501E+03  0.28233909182E+03  0.12509531544E+03 0.  0.
          5    1    3    3  502    0  0.33260626341E+02 -0.36446509586E+02 -0.22333683223E+02  0.54322031735E+02  0.41800000000E+01 0. -1.
         -5    1    3    3    0  502 -0.35934581761E+01  0.10605552486E+02 -0.22770357178E+03  0.22801706008E+03  0.41800000000E+01 0. -1.
        -11    1    1    2    0    0  0.89197226641E+01  0.48252025149E+02 -0.11430873744E+03  0.12439576696E+03  0.00000000000E+00 0.  1.
         11    1    1    2    0    0 -0.38586890829E+02 -0.22411068049E+02 -0.51439806872E+02  0.68097414386E+02  0.00000000000E+00 0. -1.
</event>
<event>
 7    1  0.2626349E-009  0.1036100E+03  0.7561462E-02  0.1272883E+00
          4   -1    0    0  501    0  0.00000000000E+00  0.00000000000E+00  0.12958174826E+03  0.12958174826E+03  0.00000000000E+00 0. -1.
         -4   -1    0    0    0  501 -0.00000000000E+00 -0.00000000000E+00 -0.19311622603E+03  0.19311622603E+03  0.00000000000E+00 0.  1.
         25    2    1    2    0    0  0.73256528158E+02 -0.42280119403E+02  0.47846883459E+02  0.15840332719E+03  0.12509261526E+03 0.  0.
          5    1    3    3  502    0  0.27938260614E+02 -0.75063309529E+01 -0.42410235118E+02  0.51507201955E+02  0.41800000000E+01 0. -1.
         -5    1    3    3    0  502  0.45318267544E+02 -0.34773788450E+02  0.90257118578E+02  0.10689612524E+03  0.41800000000E+01 0. -1.
        -11    1    1    2    0    0 -0.39470185349E+02 -0.24089731307E+02 -0.40142491365E+02  0.61234224899E+02  0.00000000000E+00 0. -1.
         11    1    1    2    0    0 -0.33786342808E+02  0.66369850709E+02 -0.71238869863E+02  0.10306042219E+03  0.00000000000E+00 0.  1.
</event>
<event>
 7    1  0.2626349E-009  0.7901668E+02  0.7561462E-02  0.1331865E+00
          2   -1    0    0  501    0  0.00000000000E+00  0.00000000000E+00  0.30164972459E+03  0.30164972459E+03  0.00000000000E+00 0. -1.
         -2   -1    0    0    0  501 -0.00000000000E+00 -0.00000000000E+00 -0.34830399835E+02  0.34830399835E+02  0.00000000000E+00 0.  1.
         25    2    1    2    0    0 -0.39525836368E+02 -0.16802885455E+02  0.15452543399E+03  0.20339592233E+03  0.12508861967E+03 0.  0.
          5    1    3    3  502    0 -0.48805865086E+02  0.16598694693E+02  0.15990931816E+03  0.16806543835E+03  0.41800000000E+01 0. -1.
         -5    1    3    3    0  502  0.92800287176E+01 -0.33401580148E+02 -0.53838841768E+01  0.35330483979E+02  0.41800000000E+01 0. -1.
        -11    1    1    2    0    0  0.54251180116E+02  0.16355414001E+02  0.87544358294E+02  0.10428185259E+03  0.00000000000E+00 0.  1.
         11    1    1    2    0    0 -0.14725343748E+02  0.44747145331E+00  0.24749532475E+02  0.28802349504E+02  0.00000000000E+00 0. -1.
</event>
<event>
 7    1  0.2626349E-009  0.1422205E+03  0.7561462E-02  0.1210372E+00
         -2   -1    0    0    0  501 -0.00000000000E+00  0.00000000000E+00  0.24224850359E+03  0.24224850359E+03  0.00000000000E+00 0.  1.
          2   -1    0    0  501    0  0.00000000000E+00 -0.00000000000E+00 -0.10535824384E+03  0.10535824384E+03  0.00000000000E+00 0. -1.
         25    2    1    2    0    0 -0.13753656599E+02 -0.11620660361E+03  0.75008203621E+02  0.18699409565E+03  0.12508966146E+03 0.  0.
          5    1    3    3  502    0 -0.48955892605E+02 -0.11196926415E+03  0.86170208764E+02  0.14958801026E+03  0.41800000000E+01 0.  1.
         -5    1    3    3    0  502  0.35202236006E+02 -0.42373394664E+01 -0.11162005144E+02  0.37406085393E+02  0.41800000000E+01 0.  1.
        -11    1    1    2    0    0 -0.40690989103E+01  0.10569248005E+03  0.80387705439E+02  0.13285195178E+03  0.00000000000E+00 0.  1.
         11    1    1    2    0    0  0.17822755509E+02  0.10514123561E+02 -0.18505649308E+02  0.27760700001E+02  0.00000000000E+00 0. -1.
</event>
<event>
 7    1  0.2626349E-009  0.1901331E+03  0.7561462E-02  0.1158341E+00
         -2   -1    0    0    0  501 -0.00000000000E+00  0.00000000000E+00  0.22298796580E+04  0.22298796580E+04  0.00000000000E+00 0. -1.
          2   -1    0    0  501    0  0.00000000000E+00 -0.00000000000E+00 -0.16887504053E+02  0.16887504053E+02  0.00000000000E+00 0.  1.
         25    2    1    2    0    0  0.12163152830E+03 -0.10100250690E+03  0.13325600903E+04  0.13477251181E+04  0.12510341569E+03 0.  0.
          5    1    3    3  502    0  0.37450610959E+02 -0.10786858700E+03  0.87346691577E+03  0.88090868180E+03  0.41800000000E+01 0.  1.
         -5    1    3    3    0  502  0.84180917340E+02  0.68660801016E+01  0.45909317452E+03  0.46681643629E+03  0.41800000000E+01 0.  1.
        -11    1    1    2    0    0 -0.12577603676E+03  0.58461992336E+02  0.64233573945E+03  0.65713972498E+03  0.00000000000E+00 0. -1.
         11    1    1    2    0    0  0.41445084568E+01  0.42540514564E+02  0.23809632421E+03  0.24190231898E+03  0.00000000000E+00 0.  1.
</event>
<event>
 7    1  0.2626349E-009  0.1093094E+03  0.7561462E-02  0.1261854E+00
          2   -1    0    0  501    0  0.00000000000E+00  0.00000000000E+00  0.22457241008E+02  0.22457241008E+02  0.00000000000E+00 0. -1.
         -2   -1    0    0    0  501 -0.00000000000E+00 -0.00000000000E+00 -0.59634967053E+03  0.59634967053E+03  0.00000000000E+00 0.  1.
         25    2    1    2    0    0 -0.53719684465E+02  0.48558607515E+01 -0.27863673856E+03  0.31015333758E+03  0.12508907568E+03 0.  0.
          5    1    3    3  502    0 -0.72951199569E+02  0.43834100239E+02 -0.13166654666E+03  0.15683385403E+03  0.41800000000E+01 0.  1.
         -5    1    3    3    0  502  0.19231515104E+02 -0.38978239488E+02 -0.14697019191E+03  0.15331948355E+03  0.41800000000E+01 0.  1.
        -11    1    1    2    0    0 -0.87143750759E+01 -0.23107898597E+02 -0.90903982552E+02  0.94198988075E+02  0.00000000000E+00 0.  1.
         11    1    1    2    0    0  0.62434059541E+02  0.18252037846E+02 -0.20435170840E+03  0.21445458588E+03  0.00000000000E+00 0. -1.
</event>
<event>
 7    1  0.2626349E-009  0.1192566E+03  0.7561462E-02  0.1244328E+00
          1   -1    0    0  501    0  0.00000000000E+00  0.00000000000E+00  0.82777483209E+03  0.82777483209E+03  0.00000000000E+00 0.  1.
         -1   -1    0    0    0  501 -0.00000000000E+00 -0.00000000000E+00 -0.36811476424E+02  0.36811476424E+02  0.00000000000E+00 0. -1.
         25    2    1    2    0    0 -0.63381805831E+02 -0.21886967491E+02  0.70792960667E+03  0.72201706662E+03  0.12509206146E+03 0.  0.
          5    1    3    3  502    0 -0.21971348031E+02  0.52290290896E+02  0.28550036851E+03  0.29110985465E+03  0.41800000000E+01 0. -1.
         -5    1    3    3    0  502 -0.41410457801E+02 -0.74177258386E+02  0.42242923816E+03  0.43090721197E+03  0.41800000000E+01 0. -1.
        -11    1    1    2    0    0  0.62658452268E+02 -0.11062086564E+02  0.88667009287E+02  0.10913427480E+03  0.00000000000E+00 0.  1.
         11    1    1    2    0    0  0.72335356318E+00  0.32949054054E+02 -0.56332602837E+01  0.33434967098E+02  0.00000000000E+00 0. -1.
</event>
<event>
 7    1  0.2626349E-009  0.9478427E+02  0.7561462E-02  0.1291663E+00
          1   -1    0    0  501    0  0.00000000000E+00  0.00000000000E+00  0.90210307883E+02  0.90210307883E+02  0.00000000000E+00 0. -1.
         -1   -1    0    0    0  501 -0.00000000000E+00 -0.00000000000E+00 -0.18643404547E+03  0.18643404547E+03  0.00000000000E+00 0.  1.
         25    2    1    2    0    0 -0.28055035271E+02  0.64045723713E+02 -0.47598643950E+02  0.15100375012E+03  0.12509021510E+03 0.  0.
          5    1    3    3  502    0  0.81552267090E+01  0.29364927823E+02  0.39712739999E+02  0.50233264147E+02  0.41800000000E+01 0. -1.
         -5    1    3    3    0  502 -0.36210261980E+02  0.34680795890E+02 -0.87311383949E+02  0.10077048597E+03  0.41800000000E+01 0. -1.
        -11    1    1    2    0    0  0.33118095349E+02  0.97508206282E+01 -0.37271972322E+02  0.50804396102E+02  0.00000000000E+00 0.  1.
         11    1    1    2    0    0 -0.50630600775E+01 -0.73796544341E+02 -0.11353121313E+02  0.74836207129E+02  0.00000000000E+00 0. -1.
</event>
<event>
 7    1  0.2626349E-009  0.7812526E+02  0.7561462E-02  0.1334457E+00
          2   -1    0    0  501    0  0.00000000000E+00  0.00000000000E+00  0.61316315955E+03  0.61316315955E+03  0.00000000000E+00 0. -1.
         -2   -1    0    0    0  501 -0.00000000000E+00 -0.00000000000E+00 -0.24550488350E+02  0.24550488350E+02  0.00000000000E+00 0.  1.
         25    2    1    2    0    0  0.48739472856E+02 -0.24745959230E+02  0.28839890080E+03  0.31907258337E+03  0.12508192820E+03 0.  0.
          5    1    3    3  502    0  0.90868862131E+01 -0.27366563846E+02  0.12575278915E+01  0.29164260563E+02  0.41800000000E+01 0. -1.
         -5    1    3    3    0  502  0.39652586643E+02  0.26206046169E+01  0.28714137291E+03  0.28990832281E+03  0.41800000000E+01 0. -1.
        -11    1    1    2    0    0 -0.20768727190E+01  0.38462264787E+02  0.46850215505E+02  0.60651479007E+02  0.00000000000E+00 0.  1.
         11    1    1    2    0    0 -0.46662600137E+02 -0.13716305557E+02  0.25336355489E+03  0.25798958552E+03  0.00000000000E+00 0. -1.
</event>
<event>
 7    1  0.2626349E-009  0.1331053E+03  0.7561462E-02  0.1222919E+00
         -2   -1    0    0    0  501 -0.00000000000E+00  0.00000000000E+00  0.72874211299E+02  0.72874211299E+02  0.00000000000E+00 0.  1.
          2   -1    0    0  501    0  0.00000000000E+00 -0.00000000000E+00 -0.36185444602E+03  0.36185444602E+03  0.00000000000E+00 0. -1.
         25    2    1    2    0    0  0.85611374253E+01  0.78724550735E+02 -0.18361363637E+03  0.23586476812E+03  0.12508946165E+03 0.  0.
          5    1    3    3  502    0 -0.19507771472E+02 -0.97607164600E+01  0.74301525359E+01  0.23420168666E+02  0.41800000000E+01 0. -1.
         -5    1    3    3    0  502  0.28068908897E+02  0.88485267195E+02 -0.19104378890E+03  0.21244459945E+03  0.41800000000E+01 0. -1.
        -11    1    1    2    0    0  0.40250782651E+01 -0.11376869764E+03 -0.34739937546E+02  0.11902260743E+03  0.00000000000E+00 0.  1.
         11    1    1    2    0    0 -0.12586215690E+02  0.35044146909E+02 -0.70626660804E+02  0.79841281768E+02  0.00000000000E+00 0. -1.
</event>
<event>
 7    1  0.2626349E-009  0.1332889E+03  0.7561462E-02  0.1222656E+00
          1   -1    0    0  501    0  0.00000000000E+00  0.00000000000E+00  0.85658524913E+03  0.85658524913E+03  0.00000000000E+00 0. -1.
         -1   -1    0    0    0  501 -0.00000000000E+00 -0.00000000000E+00 -0.29946979649E+02  0.29946979649E+02  0.00000000000E+00 0.  1.
         25    2    1    2    0    0  0.46096151638E+02 -0.90865026497E+02  0.60886662989E+03  0.62987906961E+03  0.12509101129E+03 0.  0.
          5    1    3    3  502    0  0.29494808573E+02  0.23484288692E+02  0.80231183338E+02  0.88746666010E+02  0.41800000000E+01 0. -1.
         -5    1    3    3    0  502  0.16601343065E+02 -0.11434931519E+03  0.52863544655E+03  0.54113240360E+03  0.41800000000E+01 0. -1.
        -11    1    1    2    0    0  0.12631288329E+01  0.51283178021E+02  0.17288494428E+03  0.18033514300E+03  0.00000000000E+00 0.  1.
         11    1    1    2    0    0 -0.47359280471E+02  0.39581848476E+02  0.44886695309E+02  0.76318016165E+02  0.00000000000E+00 0. -1.
</event>
<event>
 7    1  0.2626349E-009  0.2434073E+03  0.7561462E-02  0.1117544E+00
          2   -1    0    0  501    0  0.00000000000E+00  0.00000000000E+00  0.78275059119E+03  0.78275059119E+03  0.00000000000E+00 0. -1.
         -2   -1    0    0    0  501 -0.00000000000E+00 -0.00000000000E+00 -0.10432778889E+03  0.10432778889E+03  0.00000000000E+00 0.  1.
         25    2    1    2    0    0 -0.90908388692E+02 -0.21313021500E+03  0.54015681889E+03  0.60092183192E+03  0.12509530529E+03 0.  0.
          5    1    3    3  502    0 -0.12494077167E+02 -0.13826859365E+03  0.40161684930E+03  0.42495631775E+03  0.41800000000E+01 0. -1.
         -5    1    3    3    0  502 -0.78414311525E+02 -0.74861621357E+02  0.13853996959E+03  0.17596551417E+03  0.41800000000E+01 0. -1.
        -11    1    1    2    0    0  0.88415940974E+02  0.13573244158E+03  0.13108922425E+03  0.20838680148E+03  0.00000000000E+00 0. -1.
         11    1    1    2    0    0  0.24924477180E+01  0.77397773419E+02  0.71767591660E+01  0.77769746676E+02  0.00000000000E+00 0.  1.
</event>
<event>
 7    1  0.2626349E-009  0.1064568E+03  0.7561462E-02  0.1267276E+00
          3   -1    0    0  501    0  0.00000000000E+00  0.00000000000E+00  0.42156750099E+02  0.42156750099E+02  0.00000000000E+00 0.  1.
         -3   -1    0    0    0  501 -0.00000000000E+00 -0.00000000000E+00 -0.40898555373E+03  0.40898555373E+03  0.00000000000E+00 0. -1.
         25    2    1    2    0    0 -0.33257864063E+02  0.11292524896E+02 -0.91370557976E+02  0.15883762358E+03  0.12508878910E+03 0.  0.
          5    1    3    3  502    0  0.46008036501E+02  0.18854612637E+02 -0.30022174224E+02  0.58232629903E+02  0.41800000000E+01 0. -1.
         -5    1    3    3    0  502 -0.79265900564E+02 -0.75620877407E+01 -0.61348383752E+02  0.10060499367E+03  0.41800000000E+01 0. -1.
        -11    1    1    2    0    0  0.56040913014E+02  0.34454095527E+01 -0.24569637979E+03  0.25203008912E+03  0.00000000000E+00 0. -1.
         11    1    1    2    0    0 -0.22783048951E+02 -0.14737934449E+02 -0.29761865868E+02  0.40274591137E+02  0.00000000000E+00 0.  1.
</event>
<event>
 7    1  0.2626349E-009  0.2235389E+03  0.7561462E-02  0.1131272E+00
          3   -1    0    0  501    0  0.00000000000E+00  0.00000000000E+00  0.88559200374E+03  0.88559200374E+03  0.00000000000E+00 0. -1.
         -3   -1    0    0    0  501 -0.00000000000E+00 -0.00000000000E+00 -0.58878195942E+02  0.58878195942E+02  0.00000000000E+00 0.  1.
         25    2    1    2    0    0 -0.13594212015E+03  0.14707532705E+03  0.46208550719E+03  0.51892402286E+03  0.12509082175E+03 0.  0.
          5    1    3    3  502    0 -0.11594300200E+03  0.16828830081E+03  0.37643090511E+03  0.42834732475E+03  0.41800000000E+01 0. -1.
         -5    1    3    3    0  502 -0.19999118154E+02 -0.21212973753E+02  0.85654602088E+02  0.90576698114E+02  0.41800000000E+01 0. -1.
        -11    1    1    2    0    0  0.24200738968E+02  0.47959842895E+01  0.83303986832E+02  0.86880558551E+02  0.00000000000E+00 0. -1.
         11    1    1    2    0    0  0.11174138118E+03 -0.15187131134E+03  0.28132431377E+03  0.33866561827E+03  0.00000000000E+00 0.  1.
</event>
<event>
 7    1  0.2626349E-009  0.9542855E+02  0.7561462E-02  0.1290214E+00
         -1   -1    0    0    0  501 -0.00000000000E+00  0.00000000000E+00  0.33453511768E+03  0.33453511768E+03  0.00000000000E+00 0.  1.
          1   -1    0    0  501    0  0.00000000000E+00 -0.00000000000E+00 -0.10651143503E+03  0.10651143503E+03  0.00000000000E+00 0. -1.
         25    2    1    2    0    0  0.29888588080E+02 -0.25058963584E+02  0.29379558218E+03  0.32169127161E+03  0.12509256880E+03 0.  0.
          5    1    3    3  502    0 -0.94572872610E+01  0.35544963709E+02  0.28551630135E+02  0.46749895302E+02  0.41800000000E+01 0. -1.
         -5    1    3    3    0  502  0.39345875341E+02 -0.60603927292E+02  0.26524395204E+03  0.27494137631E+03  0.41800000000E+01 0. -1.
        -11    1    1    2    0    0  0.12619227865E+02  0.35512200552E+02 -0.65513482003E+02  0.75580272718E+02  0.00000000000E+00 0. -1.
         11    1    1    2    0    0 -0.42507815945E+02 -0.10453236969E+02 -0.25841753221E+00  0.43775008386E+02  0.00000000000E+00 0.  1.
</event>
<event>
 7    1  0.2626349E-009  0.9482902E+02  0.7561462E-02  0.1291562E+00
         -1   -1    0    0    0  501 -0.00000000000E+00  0.00000000000E+00  0.27358672345E+02  0.27358672345E+02  0.00000000000E+00 0.  1.
          1   -1    0    0  501    0  0.00000000000E+00 -0.00000000000E+00 -0.34206512866E+03  0.34206512866E+03  0.00000000000E+00 0. -1.
         25    2    1    2    0    0 -0.93341051229E+01  0.29522912947E+02 -0.20597708005E+03  0.24296701407E+03  0.12509070514E+03 0.  0.
          5    1    3    3  502    0  0.23065652103E+01  0.77005176206E+02 -0.10107059360E+03  0.12715287923E+03  0.41800000000E+01 0. -1.
         -5    1    3    3    0  502 -0.11640670333E+02 -0.47482263259E+02 -0.10490648645E+03  0.11581413484E+03  0.41800000000E+01 0. -1.
        -11    1    1    2    0    0  0.32619298149E+02 -0.14283366627E+02 -0.72499319928E+02  0.80772424527E+02  0.00000000000E+00 0. -1.
         11    1    1    2    0    0 -0.23285193027E+02 -0.15239546320E+02 -0.36230056343E+02  0.45684362412E+02  0.00000000000E+00 0.  1.
</event>
<event>
 7    1  0.2626349E-009  0.1802767E+03  0.7561462E-02  0.1167536E+00
          3   -1    0    0  501    0  0.00000000000E+00  0.00000000000E+00  0.11789012942E+04  0.11789012942E+04  0.00000000000E+00 0. -1.
         -3   -1    0    0    0  501 -0.00000000000E+00 -0.00000000000E+00 -0.30037416794E+02  0.30037416794E+02  0.00000000000E+00 0.  1.
         25    2    1    2    0    0 -0.13732536133E+03 -0.49750339254E+02  0.75514056227E+03  0.77924179373E+03  0.12508858138E+03 0.  0.
          5    1    3    3  502    0 -0.12939634586E+03 -0.85669475094E+02  0.61593211963E+03  0.63519486906E+03  0.41800000000E+01 0.  1.
         -5    1    3    3    0  502 -0.79290154715E+01  0.35919135840E+02  0.13920844264E+03  0.14404692468E+03  0.41800000000E+01 0.  1.
        -11    1    1    2    0    0  0.59427943016E+02  0.65898276853E+02  0.25207238670E+03  0.26723538583E+03  0.00000000000E+00 0.  1.
         11    1    1    2    0    0  0.77897418312E+02 -0.16147937599E+02  0.14165092842E+03  0.16246153142E+03  0.00000000000E+00 0. -1.
</event>
<event>
 7    1  0.2626349E-009  0.1321941E+03  0.7561462E-02  0.1224236E+00
          2   -1    0    0  501    0  0.00000000000E+00  0.00000000000E+00  0.48719745468E+03  0.48719745468E+03  0.00000000000E+00 0. -1.
         -2   -1    0    0    0  501 -0.00000000000E+00 -0.00000000000E+00 -0.38951079706E+02  0.38951079706E+02  0.00000000000E+00 0.  1.
         25    2    1    2    0    0 -0.68996641045E+02  0.43065841284E+02  0.19763816311E+03  0.24763649554E+03  0.12509111577E+03 0.  0.
          5    1    3    3  502    0 -0.90776075246E+02 -0.10125689115E+02  0.12647887437E+03  0.15606794507E+03  0.41800000000E+01 0.  1.
         -5    1    3    3    0  502  0.21779434201E+02  0.53191530399E+02  0.71159288744E+02  0.91568550468E+02  0.41800000000E+01 0.  1.
        -11    1    1    2    0    0  0.85802938062E+02 -0.22383964591E+02  0.14829238937E+03  0.17278257666E+03  0.00000000000E+00 0.  1.
         11    1    1    2    0    0 -0.16806297017E+02 -0.20681876693E+02  0.10231582249E+03  0.10572946219E+03  0.00000000000E+00 0. -1.
</event>
<event>
 7    1  0.2626349E-009  0.1594747E+03  0.7561462E-02  0.1189291E+00
         -2   -1    0    0    0  501 -0.00000000000E+00  0.00000000000E+00  0.96099003035E+02  0.96099003035E+02  0.00000000000E+00 0.  1.
          2   -1    0    0  501    0  0.00000000000E+00 -0.00000000000E+00 -0.47260484767E+03  0.47260484767E+03  0.00000000000E+00 0. -1.
         25    2    1    2    0    0  0.97564864045E+02  0.96944423061E+02 -0.26291592110E+02  0.18776385219E+03  0.12508753941E+03 0.  0.
          5    1    3    3  502    0  0.10794335945E+03  0.38111404593E+02  0.14266353457E+02  0.11543504342E+03  0.41800000000E+01 0. -1.
         -5    1    3    3    0  502 -0.10378495405E+02  0.58833018468E+02 -0.40557945567E+02  0.72328808766E+02  0.41800000000E+01 0. -1.
        -11    1    1    2    0    0 -0.10143979306E+03 -0.86296539154E+02 -0.28293041772E+03  0.31270872318E+03  0.00000000000E+00 0.  1.
         11    1    1    2    0    0  0.38749290151E+01 -0.10647883906E+02 -0.67283834814E+02  0.68231275335E+02  0.00000000000E+00 0. -1.
</event>
<event>
 7    1  0.2626349E-009  0.1125822E+03  0.7561462E-02  0.1255861E+00
          2   -1    0    0  501    0  0.00000000000E+00  0.00000000000E+00  0.38349932034E+03  0.38349932034E+03  0.00000000000E+00 0.  1.
         -2   -1    0    0    0  501 -0.00000000000E+00 -0.00000000000E+00 -0.38079578139E+02  0.38079578139E+02  0.00000000000E+00 0. -1.
         25    2    1    2    0    0 -0.51021543934E+02  0.59081218877E+01  0.21808517854E+03  0.25660725044E+03  0.12509209419E+03 0.  0.
          5    1    3    3  502    0 -0.90949415489E+01 -0.57457669184E+02  0.80916470536E+02  0.99744921243E+02  0.41800000000E+01 0. -1.
         -5    1    3    3    0  502 -0.41926602385E+02  0.63365791071E+02  0.13716870800E+03  0.15686232920E+03  0.41800000000E+01 0. -1.
        -11    1    1    2    0    0 -0.40186451044E+01 -0.30284023902E+02  0.87776515531E+02  0.92940778407E+02  0.00000000000E+00 0.  1.
         11    1    1    2    0    0  0.55040189038E+02  0.24375902015E+02  0.39558048136E+02  0.72030869637E+02  0.00000000000E+00 0. -1.
</event>
<event>
 7    1  0.2626349E-009  0.9296613E+02  0.7561462E-02  0.1295824E+00
          2   -1    0    0  501    0  0.00000000000E+00  0.00000000000E+00  0.49878172255E+03  0.49878172255E+03  0.00000000000E+00 0. -1.
         -2   -1    0    0    0  501 -0.00000000000E+00 -0.00000000000E+00 -0.32346212020E+02  0.32346212020E+02  0.00000000000E+00 0.  1.
         25    2    1    2    0    0  0.27190802625E+02 -0.16565829824E+01  0.38402142065E+03  0.40479983877E+03  0.12509346078E+03 0.  0.
          5    1    3    3  502    0  0.21125637708E+02  0.58525542305E+02  0.25068701100E+03  0.25832727606E+03  0.41800000000E+01 0.  1.
         -5    1    3    3    0  502  0.60651649168E+01 -0.60182125287E+02  0.13333440966E+03  0.14647256271E+03  0.41800000000E+01 0.  1.
        -11    1    1    2    0    0 -0.30757807847E+02 -0.22760216023E+02 -0.20650381444E+01  0.38318853839E+02  0.00000000000E+00 0.  1.
         11    1    1    2    0    0  0.35670052224E+01  0.24416799005E+02  0.84479128018E+02  0.88009241961E+02  0.00000000000E+00 0. -1.
</event>
<event>
 7    1  0.2626349E-009  0.1118210E+03  0.7561462E-02  0.1257234E+00
          1   -1    0    0  501    0  0.00000000000E+00  0.00000000000E+00  0.12069383209E+04  0.12069383209E+04  0.00000000000E+00 0. -1.
         -1   -1    0    0    0  501 -0.00000000000E+00 -0.00000000000E+00 -0.12109179768E+02  0.12109179768E+02  0.00000000000E+00 0.  1.
         25    2    1    2    0    0 -0.37404207741E+02 -0.10498685461E+02  0.86034260828E+03  0.87025643663E+03  0.12509022632E+03 0.  0.
          5    1    3    3  502    0 -0.81154961193E+02  0.76289961859E+01  0.61037699538E+03  0.61580993675E+03  0.41800000000E+01 0. -1.
         -5    1    3    3    0  502  0.43750753452E+02 -0.18127681647E+02  0.24996561290E+03  0.25444649988E+03  0.41800000000E+01 0. -1.
        -11    1    1    2    0    0 -0.28152978916E+02  0.58814742172E+01  0.59865299574E+02  0.66415631096E+02  0.00000000000E+00 0.  1.
         11    1    1    2    0    0  0.65557186657E+02  0.46172112442E+01  0.27462123333E+03  0.28237543299E+03  0.00000000000E+00 0. -1.
</event>
<event>
 7    1  0.2626349E-009  0.1431688E+03  0.7561462E-02  0.1209128E+00
          1   -1    0    0  501    0  0.00000000000E+00  0.00000000000E+00  0.12593566371E+04  0.12593566371E+04  0.00000000000E+00 0. -1.
         -1   -1    0    0    0  501 -0.00000000000E+00 -0.00000000000E+00 -0.17621924605E+02  0.17621924605E+02  0.00000000000E+00 0.  1.
         25    2    1    2    0    0 -0.90446718731E+02 -0.45013430489E+02  0.73387248931E+03  0.75128115750E+03  0.12509088374E+03 0.  0.
          5    1    3    3  502    0  0.27869731705E+02 -0.25367796044E+02  0.24366236537E+03  0.24659494666E+03  0.41800000000E+01 0.  1.
         -5    1    3    3    0  502 -0.11831645044E+03 -0.19645634445E+02  0.49021012395E+03  0.50468621084E+03  0.41800000000E+01 0.  1.
        -11    1    1    2    0    0  0.71452745364E+02 -0.81882895193E+01  0.36603763296E+03  0.37303631411E+03  0.00000000000E+00 0. -1.
         11    1    1    2    0    0  0.18993973367E+02  0.53201720008E+02  0.14182459026E+03  0.15266109012E+03  0.00000000000E+00 0.  1.
</event>
<event>
 7    1  0.2626349E-009  0.1086793E+03  0.7561462E-02  0.1263035E+00
         -2   -1    0    0    0  501 -0.00000000000E+00  0.00000000000E+00  0.57432477842E+02  0.57432477842E+02  0.00000000000E+00 0.  1.
          2   -1    0    0  501    0  0.00000000000E+00 -0.00000000000E+00 -0.63738615336E+03  0.63738615336E+03  0.00000000000E+00 0. -1.
         25    2    1    2    0    0 -0.11781853930E+02 -0.88012954780E+02 -0.54013596035E+03  0.56149780619E+03  0.12509132023E+03 0.  0.
          5    1    3    3  502    0 -0.36865115137E+02 -0.57277991979E+02 -0.10954828728E+03  0.12906628035E+03  0.41800000000E+01 0. -1.
         -5    1    3    3    0  502  0.25083261207E+02 -0.30734962801E+02 -0.43058767307E+03  0.43243152583E+03  0.41800000000E+01 0. -1.
        -11    1    1    2    0    0 -0.13044517853E+02  0.82844168998E+02  0.25952254197E+01  0.83905011638E+02  0.00000000000E+00 0.  1.
         11    1    1    2    0    0  0.24826371783E+02  0.51687857817E+01 -0.42412940588E+02  0.49415813376E+02  0.00000000000E+00 0. -1.
</event>
<event>
 7    1  0.2626349E-009  0.1083816E+03  0.7561462E-02  0.1263597E+00
         -2   -1    0    0    0  501 -0.00000000000E+00  0.00000000000E+00  0.27882278563E+03  0.27882278563E+03  0.00000000000E+00 0.  1.
          2   -1    0    0  501    0  0.00000000000E+00 -0.00000000000E+00 -0.45662138143E+02  0.45662138143E+02  0.00000000000E+00 0. -1.
         25    2    1    2    0    0 -0.80601044392E+01 -0.15526585360E+02  0.16367566928E+03  0.20674414301E+03  0.12508947126E+03 0.  0.
          5    1    3    3  502    0  0.52901146352E+02 -0.27083919606E+02  0.52744566134E+02  0.79570922096E+02  0.41800000000E+01 0. -1.
         -5    1    3    3    0  502 -0.60961250791E+02  0.11557334246E+02  0.11093110315E+03  0.12717322092E+03  0.41800000000E+01 0. -1.
        -11    1    1    2    0    0 -0.29406911930E+02 -0.25867626539E+02  0.30602446335E+02  0.49703222166E+02  0.00000000000E+00 0.  1.
         11    1    1    2    0    0  0.37467016369E+02  0.41394211899E+02  0.38882531864E+02  0.68037558588E+02  0.00000000000E+00 0. -1.
</event>
<event>
 7    1  0.2626349E-009  0.2039249E+03  0.7561462E-02  0.1146469E+00
         -1   -1    0    0    0  501 -0.00000000000E+00  0.00000000000E+00  0.51349960077E+02  0.51349960077E+02  0.00000000000E+00 0.  1.
          1   -1    0    0  501    0  0.00000000000E+00 -0.00000000000E+00 -0.10756051257E+04  0.10756051257E+04  0.00000000000E+00 0. -1.
         25    2    1    2    0    0 -0.76379017912E+02  0.15650915720E+03 -0.25576844798E+03  0.33375857649E+03  0.12509363586E+03 0.  0.
          5    1    3    3  502    0  0.33178848770E+02  0.29712429326E+02 -0.74230943273E+02  0.86668159097E+02  0.41800000000E+01 0. -1.
         -5    1    3    3    0  502 -0.10955786668E+03  0.12679672787E+03 -0.18153750471E+03  0.24709041739E+03  0.41800000000E+01 0. -1.
        -11    1    1    2    0    0 -0.18882781255E+02 -0.11881338626E+02 -0.65626464876E+02  0.69314922835E+02  0.00000000000E+00 0.  1.
         11    1    1    2    0    0  0.95261799167E+02 -0.14462781857E+03 -0.70286025281E+03  0.72388158650E+03  0.00000000000E+00 0. -1.
</event>
<event>
 7    1  0.2626349E-009  0.8281423E+02  0.7561462E-02  0.1321250E+00
          2   -1    0    0  501    0  0.00000000000E+00  0.00000000000E+00  0.63101663601E+03  0.63101663601E+03  0.00000000000E+00 0.  1.
         -2   -1    0    0    0  501 -0.00000000000E+00 -0.00000000000E+00 -0.22433403371E+02  0.22433403371E+02  0.00000000000E+00 0. -1.
         25    2    1    2    0    0 -0.28958451609E+02 -0.44243367829E+02  0.34197635943E+03  0.36795537986E+03  0.12508902288E+03 0.  0.
          5    1    3    3  502    0 -0.41231754090E+02 -0.25140685710E+02  0.34220761709E+02  0.59335019636E+02  0.41800000000E+01 0. -1.
         -5    1    3    3    0  502  0.12273302481E+02 -0.19102682119E+02  0.30775559772E+03  0.30862036023E+03  0.41800000000E+01 0. -1.
        -11    1    1    2    0    0  0.39717753604E+02 -0.81811016577E+01  0.17281031707E+03  0.17750446772E+03  0.00000000000E+00 0.  1.
         11    1    1    2    0    0 -0.10759301995E+02  0.52424469487E+02  0.93796556135E+02  0.10799019179E+03  0.00000000000E+00 0. -1.
</event>
<event>
 7    1  0.2626349E-009  0.9352244E+02  0.7561462E-02  0.1294539E+00
          1   -1    0    0  501    0  0.00000000000E+00  0.00000000000E+00  0.20986008697E+02  0.20986008697E+02  0.00000000000E+00 0. -1.
         -1   -1    0    0    0  501 -0.00000000000E+00 -0.00000000000E+00 -0.79505117912E+03  0.79505117912E+03  0.00000000000E+00 0.  1.
         25    2    1    2    0    0 -0.68818531456E+02 -0.66056900431E+00 -0.47771313449E+03  0.49859184161E+03  0.12509020357E+03 0.  0.
          5    1    3    3  502    0 -0.63142148821E+02  0.69462048313E+01 -0.48284296360E+03  0.48702154020E+03  0.41800000000E+01 0. -1.
         -5    1    3    3    0  502 -0.56763826346E+01 -0.76067738356E+01  0.51298291098E+01  0.11570301409E+02  0.41800000000E+01 0. -1.
        -11    1    1    2    0    0  0.87875254743E+02  0.15023539948E+02 -0.24773158978E+03  0.26328446161E+03  0.00000000000E+00 0.  1.
         11    1    1    2    0    0 -0.19056723287E+02 -0.14362970943E+02 -0.48620446149E+02  0.54160884598E+02  0.00000000000E+00 0. -1.
</event>
<event>
 7    1  0.2626349E-009  0.1067597E+03  0.7561462E-02  0.1266691E+00
          1   -1    0    0  501    0  0.00000000000E+00  0.00000000000E+00  0.30558789764E+03  0.30558789764E+03  0.00000000000E+00 0. -1.
         -1   -1    0    0    0  501 -0.00000000000E+00 -0.00000000000E+00 -0.63503726822E+02  0.63503726822E+02  0.00000000000E+00 0.  1.
         25    2    1    2    0    0 -0.13601294919E+02  0.80295307353E+02  0.18436445048E+03  0.23721221269E+03  0.12508817547E+03 0.  0.
          5    1    3    3  502    0 -0.40450333408E+02  0.28688299776E+02  0.66953018759E+01  0.50215012537E+02  0.41800000000E+01 0.  1.
         -5    1    3    3    0  502  0.26849038489E+02  0.51607007577E+02  0.17766914861E+03  0.18699720015E+03  0.41800000000E+01 0.  1.
        -11    1    1    2    0    0  0.37332852801E+02 -0.70462131542E+02  0.67418081784E+02  0.10442150943E+03  0.00000000000E+00 0. -1.
         11    1    1    2    0    0 -0.23731557881E+02 -0.98331758113E+01 -0.96983614528E+01  0.27457902339E+02  0.00000000000E+00 0.  1.
</event>
<event>
 7    1  0.2626349E-009  0.2699036E+03  0.7561462E-02  0.1101335E+00
         -2   -1    0    0    0  501 -0.00000000000E+00  0.00000000000E+00  0.10362451663E+03  0.10362451663E+03  0.00000000000E+00 0.  1.
          2   -1    0    0  501    0  0.00000000000E+00 -0.00000000000E+00 -0.78136929588E+03  0.78136929588E+03  0.00000000000E+00 0. -1.
         25    2    1    2    0    0 -0.70754563675E+02 -0.24532560939E+03 -0.44222065978E+03  0.52573602450E+03  0.12509353546E+03 0.  0.
          5    1    3    3  502    0  0.26559273466E+02 -0.10869853531E+02 -0.30950529888E+02  0.42414106417E+02  0.41800000000E+01 0.  1.
         -5    1    3    3    0  502 -0.97313837141E+02 -0.23445575586E+03 -0.41127012989E+03  0.48332191808E+03  0.41800000000E+01 0.  1.
        -11    1    1    2    0    0  0.22723049916E+02  0.13038647669E+03 -0.63316571979E+02  0.14671727434E+03  0.00000000000E+00 0.  1.
         11    1    1    2    0    0  0.48031513759E+02  0.11493913269E+03 -0.17220754749E+03  0.21254051367E+03  0.00000000000E+00 0. -1.
</event>
<event>
 7    1  0.2626349E-009  0.8505089E+02  0.7561462E-02  0.1315299E+00
          2   -1    0    0  501    0  0.00000000000E+00  0.00000000000E+00  0.43187284922E+03  0.43187284922E+03  0.00000000000E+00 0. -1.
         -2   -1    0    0    0  501 -0.00000000000E+00 -0.00000000000E+00 -0.41828880401E+02  0.41828880401E+02  0.00000000000E+00 0.  1.
         25    2    1    2    0    0 -0.35014925178E+02  0.43248187776E+02  0.32015855144E+03  0.34820287680E+03  0.12508914670E+03 0.  0.
          5    1    3    3  502    0 -0.16071094202E+02 -0.39880562750E+01 -0.59770849157E+01  0.18093717302E+02  0.41800000000E+01 0.  1.
         -5    1    3    3    0  502 -0.18943830976E+02  0.47236244051E+02  0.32613563636E+03  0.33010915950E+03  0.41800000000E+01 0.  1.
        -11    1    1    2    0    0 -0.14494410868E+02  0.18059546812E+02  0.56584471202E+01  0.23838062028E+02  0.00000000000E+00 0.  1.
         11    1    1    2    0    0  0.49509336046E+02 -0.61307734587E+02  0.64226970262E+02  0.10166079079E+03  0.00000000000E+00 0. -1.
</event>
<event>
 7    1  0.2626349E-009  0.1089927E+03  0.7561462E-02  0.1262447E+00
         -4   -1    0    0    0  501 -0.00000000000E+00  0.00000000000E+00  0.21099152180E+03  0.21099152180E+03  0.00000000000E+00 0.  1.
          4   -1    0    0  501    0  0.00000000000E+00 -0.00000000000E+00 -0.10293997697E+03  0.10293997697E+03  0.00000000000E+00 0. -1.
         25    2    1    2    0    0  0.26568224451E+01 -0.51899072665E+02 -0.32423485879E+02  0.13927766041E+03  0.12508561790E+03 0.  0.
          5    1    3    3  502    0  0.28425052651E+02 -0.76601926519E+02 -0.53367506100E+02  0.97680099672E+02  0.41800000000E+01 0. -1.
         -5    1    3    3    0  502 -0.25768230206E+02  0.24702853854E+02  0.20944020222E+02  0.41597560740E+02  0.41800000000E+01 0. -1.
        -11    1    1    2    0    0  0.39390438521E+02  0.40870793824E+02  0.10138403133E+03  0.11619272888E+03  0.00000000000E+00 0.  1.
         11    1    1    2    0    0 -0.42047260966E+02  0.11028278841E+02  0.39090999382E+02  0.58461109480E+02  0.00000000000E+00 0. -1.
</event>
<event>
 7    1  0.2626349E-009  0.1507433E+03  0.7561462E-02  0.1199563E+00
         -2   -1    0    0    0  501 -0.00000000000E+00  0.00000000000E+00  0.24330060393E+02  0.24330060393E+02  0.00000000000E+00 0.  1.
          2   -1    0    0  501    0  0.00000000000E+00 -0.00000000000E+00 -0.11102780083E+04  0.11102780083E+04  0.00000000000E+00 0. -1.
         25    2    1    2    0    0 -0.41863892558E+02 -0.10765684362E+03 -0.75287025988E+03  0.77188345853E+03  0.12509142200E+03 0.  0.
          5    1    3    3  502    0 -0.52578698582E+02 -0.84099860379E+00 -0.13879991100E+03  0.14848607516E+03  0.41800000000E+01 0.  1.
         -5    1    3    3    0  502  0.10714806024E+02 -0.10681584501E+03 -0.61407034888E+03  0.62339738336E+03  0.41800000000E+01 0.  1.
        -11    1    1    2    0    0  0.47436511022E+02  0.16873959442E+02 -0.15138420109E+03  0.15953723523E+03  0.00000000000E+00 0. -1.
         11    1    1    2    0    0 -0.55726184646E+01  0.90782884177E+02 -0.18169348690E+03  0.20318737489E+03  0.00000000000E+00 0.  1.
</event>
<event>
 7    1  0.2626349E-009  0.8070866E+02  0.7561462E-02  0.1327052E+00
         -2   -1    0    0    0  501 -0.00000000000E+00  0.00000000000E+00  0.85309478035E+02  0.85309478035E+02  0.00000000000E+00 0. -1.
          2   -1    0    0  501    0  0.00000000000E+00 -0.00000000000E+00 -0.17605251776E+03  0.17605251776E+03  0.00000000000E+00 0.  1.
         25    2    1    2    0    0  0.51755614464E+02  0.19171592524E+02 -0.54982005852E+02  0.14736579658E+03  0.12508982152E+03 0.  0.
          5    1    3    3  502    0 -0.86461453198E+01  0.80954982147E+01  0.35656236809E+02  0.37803869426E+02  0.41800000000E+01 0.  1.
         -5    1    3    3    0  502  0.60401759784E+02  0.11076094309E+02 -0.90638242661E+02  0.10956192716E+03  0.41800000000E+01 0.  1.
        -11    1    1    2    0    0 -0.59539652830E+02  0.70478650484E+01 -0.54352721067E+02  0.80925032890E+02  0.00000000000E+00 0.  1.
         11    1    1    2    0    0  0.77840383665E+01 -0.26219457572E+02  0.18591687198E+02  0.33071166317E+02  0.00000000000E+00 0. -1.
</event>
<event>
 7    1  0.2626349E-009  0.9186047E+02  0.7561462E-02  0.1298408E+00
          2   -1    0    0  501    0  0.00000000000E+00  0.00000000000E+00  0.22835669587E+03  0.22835669587E+03  0.00000000000E+00 0. -1.
         -2   -1    0    0    0  501 -0.00000000000E+00 -0.00000000000E+00 -0.75371352297E+02  0.75371352297E+02  0.00000000000E+00 0.  1.
         25    2    1    2    0    0  0.59647435065E+02  0.30763357288E+02  0.59287787542E+02  0.15384722301E+03  0.12509886336E+03 0.  0.
          5    1    3    3  502    0 -0.28252701846E+01  0.11804560690E+02  0.83207243060E+02  0.84191730606E+02  0.41800000000E+01 0. -1.
         -5    1    3    3    0  502  0.62472705250E+02  0.18958796598E+02 -0.23919455519E+02  0.69655492403E+02  0.41800000000E+01 0. -1.
        -11    1    1    2    0    0 -0.13874048707E+02  0.27838281490E+02  0.61361566668E+02  0.68794629208E+02  0.00000000000E+00 0. -1.
         11    1    1    2    0    0 -0.45773386358E+02 -0.58601638778E+02  0.32335989367E+02  0.81086195955E+02  0.00000000000E+00 0.  1.
</event>
<event>
 7    1  0.2626349E-009  0.2473692E+03  0.7561462E-02  0.1114979E+00
         -1   -1    0    0    0  501 -0.00000000000E+00  0.00000000000E+00  0.86124171705E+02  0.86124171705E+02  0.00000000000E+00 0.  1.
          1   -1    0    0  501    0  0.00000000000E+00 -0.00000000000E+00 -0.10368319405E+04  0.10368319405E+04  0.00000000000E+00 0. -1.
         25    2    1    2    0    0  0.23236749206E+03 -0.32256641223E+02 -0.76109621210E+03  0.80619400920E+03  0.12508474780E+03 0.  0.
          5    1    3    3  502    0  0.13437440296E+03 -0.55346078694E+02 -0.28953177230E+03  0.32398424062E+03  0.41800000000E+01 0. -1.
         -5    1    3    3    0  502  0.97993089100E+02  0.23089437471E+02 -0.47156443980E+03  0.48220976858E+03  0.41800000000E+01 0. -1.
        -11    1    1    2    0    0 -0.14260046248E+03 -0.21113119994E+02 -0.77975780942E+02  0.16389288620E+03  0.00000000000E+00 0.  1.
         11    1    1    2    0    0 -0.89767029586E+02  0.53369761217E+02 -0.11163577570E+03  0.15286921675E+03  0.00000000000E+00 0. -1.
</event>
<event>
 7    1  0.2626349E-009  0.4296340E+03  0.7561462E-02  0.1033976E+00
         -1   -1    0    0    0  501 -0.00000000000E+00  0.00000000000E+00  0.26089056732E+03  0.26089056732E+03  0.00000000000E+00 0.  1.
          1   -1    0    0  501    0  0.00000000000E+00 -0.00000000000E+00 -0.76628866844E+03  0.76628866844E+03  0.00000000000E+00 0. -1.
         25    2    1    2    0    0  0.30682234944E+03  0.29725591134E+03 -0.16854413292E+03  0.47598235615E+03  0.12510414732E+03 0.  0.
          5    1    3    3  502    0  0.15512950662E+03  0.19375281998E+03 -0.15308230279E+03  0.29164530324E+03  0.41800000000E+01 0. -1.
         -5    1    3    3    0  502  0.15169284282E+03  0.10350309136E+03 -0.15461830137E+02  0.18433705291E+03  0.41800000000E+01 0. -1.
        -11    1    1    2    0    0 -0.23920966627E+03 -0.23795438888E+03 -0.21627343874E+03  0.40077145099E+03  0.00000000000E+00 0.  1.
         11    1    1    2    0    0 -0.67612683178E+02 -0.59301522457E+02 -0.12058052946E+03  0.15042542862E+03  0.00000000000E+00 0. -1.
</event>
<event>
 7    1  0.2626349E-009  0.1063900E+03  0.7561462E-02  0.1267405E+00
         -2   -1    0    0    0  501 -0.00000000000E+00  0.00000000000E+00  0.11725698691E+02  0.11725698691E+02  0.00000000000E+00 0.  1.
          2   -1    0    0  501    0  0.00000000000E+00 -0.00000000000E+00 -0.12962087882E+04  0.12962087882E+04  0.00000000000E+00 0. -1.
         25    2    1    2    0    0 -0.38302839035E+01 -0.56775357266E+02 -0.69842824314E+03  0.71182093710E+03  0.12509565701E+03 0.  0.
          5    1    3    3  502    0  0.25261075571E+02 -0.67830895138E+02 -0.65046460775E+03  0.65449280410E+03  0.41800000000E+01 0. -1.
         -5    1    3    3    0  502 -0.29091359474E+02  0.11055537871E+02 -0.47963635391E+02  0.57328133003E+02  0.41800000000E+01 0. -1.
        -11    1    1    2    0    0 -0.34869778941E+02  0.60674629750E+02 -0.36050860106E+03  0.36723802039E+03  0.00000000000E+00 0.  1.
         11    1    1    2    0    0  0.38700062845E+02 -0.38992724843E+01 -0.22554624530E+03  0.22887552940E+03  0.00000000000E+00 0. -1.
</event>
<event>
 7    1  0.2626349E-009  0.2346028E+03  0.7561462E-02  0.1123441E+00
         -1   -1    0    0    0  501 -0.00000000000E+00  0.00000000000E+00  0.86688489866E+02  0.86688489866E+02  0.00000000000E+00 0.  1.
          1   -1    0    0  501    0  0.00000000000E+00 -0.00000000000E+00 -0.13288508351E+04  0.13288508351E+04  0.00000000000E+00 0. -1.
         25    2    1    2    0    0  0.13790108245E+03 -0.18272129986E+03 -0.16076750211E+03  0.30642317746E+03  0.12508074187E+03 0.  0.
          5    1    3    3  502    0  0.39782523106E+01 -0.40639589135E+00  0.17465106736E+02  0.18398206498E+02  0.41800000000E+01 0. -1.
         -5    1    3    3    0  502  0.13392283014E+03 -0.18231490397E+03 -0.17823260884E+03  0.28802497096E+03  0.41800000000E+01 0. -1.
        -11    1    1    2    0    0 -0.72261839744E+02  0.14358778031E+03 -0.86025279009E+03  0.87514232385E+03  0.00000000000E+00 0. -1.
         11    1    1    2    0    0 -0.65639242709E+02  0.39133519553E+02 -0.22114205307E+03  0.23397382369E+03  0.00000000000E+00 0.  1.
</event>
<event>
 7    1  0.2626349E-009  0.2550824E+03  0.7561462E-02  0.1110134E+00
         -1   -1    0    0    0  501 -0.00000000000E+00  0.00000000000E+00  0.30007053506E+03  0.30007053506E+03  0.00000000000E+00 0.  1.
          1   -1    0    0  501    0  0.00000000000E+00 -0.00000000000E+00 -0.28251957703E+03  0.28251957703E+03  0.00000000000E+00 0. -1.
         25    2    1    2    0    0  0.11565212858E+03  0.20995851026E+03 -0.11529279961E+03  0.29394148619E+03  0.12510466332E+03 0.  0.
          5    1    3    3  502    0 -0.58451211857E+01  0.11726265548E+03 -0.52152050432E+02  0.12853794995E+03  0.41800000000E+01 0.  1.
         -5    1    3    3    0  502  0.12149724977E+03  0.92695854781E+02 -0.63140749177E+02  0.16540353624E+03  0.41800000000E+01 0.  1.
        -11    1    1    2    0    0 -0.80584028973E+02 -0.15275385320E+03  0.13840279751E+03  0.22132071695E+03  0.00000000000E+00 0.  1.
         11    1    1    2    0    0 -0.35068099610E+02 -0.57204657064E+02 -0.55590398653E+01  0.67327908956E+02  0.00000000000E+00 0. -1.
</event>
<event>
 7    1  0.2626349E-009  0.3637582E+03  0.7561462E-02  0.1057106E+00
         -2   -1    0    0    0  501 -0.00000000000E+00  0.00000000000E+00  0.20710118838E+03  0.20710118838E+03  0.00000000000E+00 0.  1.
          2   -1    0    0  501    0  0.00000000000E+00 -0.00000000000E+00 -0.67223715587E+03  0.67223715587E+03  0.00000000000E+00 0. -1.
         25    2    1    2    0    0 -0.20404052643E+03 -0.29135970298E+03 -0.26316266843E+03  0.45980960295E+03  0.12508904012E+03 0.  0.
          5    1    3    3  502    0 -0.59667832815E+02 -0.13931337972E+03 -0.17708313742E+03  0.23311880662E+03  0.41800000000E+01 0. -1.
         -5    1    3    3    0  502 -0.14437269362E+03 -0.15204632327E+03 -0.86079531009E+02  0.22669079633E+03  0.41800000000E+01 0. -1.
        -11    1    1    2    0    0  0.12708380131E+03  0.10598161362E+03 -0.72399725259E+02  0.18062146937E+03  0.00000000000E+00 0.  1.
         11    1    1    2    0    0  0.76956725122E+02  0.18537808937E+03 -0.12957357380E+03  0.23890727194E+03  0.00000000000E+00 0. -1.
</event>
<event>
 7    1  0.3473494E-009  0.1339132E+03  0.7561462E-02  0.1221762E+00
          2   -1    0    0  501    0  0.00000000000E+00  0.00000000000E+00  0.88855835914E+03  0.88855835914E+03  0.00000000000E+00 0. -1.
         -2   -1    0    0    0  501 -0.00000000000E+00 -0.00000000000E+00 -0.27184660717E+02  0.27184660717E+02  0.00000000000E+00 0.  1.
         25    2    1    2    0    0  0.63537002570E+02  0.81217658952E+02  0.34267624157E+03  0.37909057052E+03  0.12509754315E+03 0.  0.
          5    1    3    3  502    0  0.77299748193E+02  0.29312860037E+02  0.96718303932E+02  0.12730435008E+03  0.41800000000E+01 0.  1.
         -5    1    3    3    0  502 -0.13762745622E+02  0.51904798915E+02  0.24595793764E+03  0.25178622044E+03  0.41800000000E+01 0.  1.
        -11    1    1    2    0    0 -0.35424878626E+02  0.91184762665E+01  0.81457136090E+02  0.89293525270E+02  0.00000000000E+00 0.  1.
         11    1    1    2    0    0 -0.28112123945E+02 -0.90336135219E+02  0.43724032077E+03  0.44735892407E+03  0.00000000000E+00 0. -1.
</event>
<event>
 7    1  0.2626349E-009  0.1576179E+03  0.7561462E-02  0.1191413E+00
          2   -1    0    0  501    0  0.00000000000E+00  0.00000000000E+00  0.18143776313E+03  0.18143776313E+03  0.00000000000E+00 0. -1.
         -2   -1    0    0    0  501 -0.00000000000E+00 -0.00000000000E+00 -0.14071085790E+03  0.14071085790E+03  0.00000000000E+00 0.  1.
         25    2    1    2    0    0  0.11541437014E+03 -0.18545378397E+02  0.18803682977E+02  0.17223432044E+03  0.12508666895E+03 0.  0.
          5    1    3    3  502    0  0.41426940218E+02 -0.68413751004E+02  0.21317603609E+02  0.82876687469E+02  0.41800000000E+01 0. -1.
         -5    1    3    3    0  502  0.73987429926E+02  0.49868372606E+02 -0.25139206318E+01  0.89357632972E+02  0.41800000000E+01 0. -1.
        -11    1    1    2    0    0 -0.10872615864E+03 -0.16655863773E+02  0.45373324471E+01  0.11008806819E+03  0.00000000000E+00 0. -1.
         11    1    1    2    0    0 -0.66882115023E+01  0.35201242170E+02  0.17385889799E+02  0.39826232404E+02  0.00000000000E+00 0.  1.
</event>
<event>
 7    1  0.2626349E-009  0.1522762E+03  0.7561462E-02  0.1197704E+00
         -1   -1    0    0    0  501 -0.00000000000E+00  0.00000000000E+00  0.65185003451E+02  0.65185003451E+02  0.00000000000E+00 0.  1.
          1   -1    0    0  501    0  0.00000000000E+00 -0.00000000000E+00 -0.47387145365E+03  0.47387145365E+03  0.00000000000E+00 0. -1.
         25    2    1    2    0    0 -0.12618175824E+03  0.35118464918E+01 -0.30417429873E+03  0.35228291379E+03  0.12508828147E+03 0.  0.
          5    1    3    3  502    0 -0.10662134429E+03  0.49617758500E+02 -0.15329504416E+03  0.19325339837E+03  0.41800000000E+01 0. -1.
         -5    1    3    3    0  502 -0.19560413951E+02 -0.46105912008E+02 -0.15087925457E+03  0.15902951542E+03  0.41800000000E+01 0. -1.
        -11    1    1    2    0    0  0.82791914119E+01 -0.16042376267E+02  0.11082585987E+02  0.21183166875E+02  0.00000000000E+00 0.  1.
         11    1    1    2    0    0  0.11790256683E+03  0.12530529775E+02 -0.11559473746E+03  0.16559037644E+03  0.00000000000E+00 0. -1.
</event>
<event>
 7    1  0.2626349E-009  0.1722560E+03  0.7561462E-02  0.1175515E+00
          2   -1    0    0  501    0  0.00000000000E+00  0.00000000000E+00  0.64624092674E+03  0.64624092674E+03  0.00000000000E+00 0. -1.
         -2   -1    0    0    0  501 -0.00000000000E+00 -0.00000000000E+00 -0.52786154073E+02  0.52786154073E+02  0.00000000000E+00 0.  1.
         25    2    1    2    0    0 -0.93424556108E+02  0.11566457833E+03  0.35531255800E+03  0.40497137390E+03  0.12509339485E+03 0.  0.
          5    1    3    3  502    0 -0.68678155777E+02  0.13103875268E+03  0.34203402848E+03  0.37268296557E+03  0.41800000000E+01 0.  1.
         -5    1    3    3    0  502 -0.24746400332E+02 -0.15374174342E+02  0.13278529518E+02  0.32288408326E+02  0.41800000000E+01 0.  1.
        -11    1    1    2    0    0 -0.95011064114E+00 -0.54731265076E+02  0.11505299401E+03  0.12741116716E+03  0.00000000000E+00 0. -1.
         11    1    1    2    0    0  0.94374666750E+02 -0.60933313257E+02  0.12308922065E+03  0.16664453975E+03  0.00000000000E+00 0.  1.
</event>
<event>
 7    1  0.2626349E-009  0.1102161E+03  0.7561462E-02  0.1260170E+00
          1   -1    0    0  501    0  0.00000000000E+00  0.00000000000E+00  0.23181245421E+03  0.23181245421E+03  0.00000000000E+00 0. -1.
         -1   -1    0    0    0  501 -0.00000000000E+00 -0.00000000000E+00 -0.56742774739E+02  0.56742774739E+02  0.00000000000E+00 0.  1.
         25    2    1    2    0    0 -0.27005387675E+02  0.67279337924E+01  0.13186529386E+03  0.18387628392E+03  0.12508987172E+03 0.  0.
          5    1    3    3  502    0  0.26249599781E+02  0.50538841763E+02  0.75806720138E+02  0.94907045226E+02  0.41800000000E+01 0.  1.
         -5    1    3    3    0  502 -0.53254987456E+02 -0.43810907971E+02  0.56058573726E+02  0.88969238697E+02  0.41800000000E+01 0.  1.
        -11    1    1    2    0    0 -0.31314584111E+02  0.11156560926E+02  0.77889017895E+01  0.34142920508E+02  0.00000000000E+00 0.  1.
         11    1    1    2    0    0  0.58319971786E+02 -0.17884494718E+02  0.35415483815E+02  0.70536024514E+02  0.00000000000E+00 0. -1.
</event>
<event>
 7    1  0.2626349E-009  0.1150900E+03  0.7561462E-02  0.1251424E+00
         -2   -1    0    0    0  501 -0.00000000000E+00  0.00000000000E+00  0.76191215081E+02  0.76191215081E+02  0.00000000000E+00 0.  1.
          2   -1    0    0  501    0  0.00000000000E+00 -0.00000000000E+00 -0.30052971723E+03  0.30052971723E+03  0.00000000000E+00 0. -1.
         25    2    1    2    0    0  0.31769300590E+02 -0.48627051309E+02 -0.22866288819E+03  0.26703603451E+03  0.12509056205E+03 0.  0.
          5    1    3    3  502    0  0.52441131147E+02  0.21125656441E+02 -0.56277514353E+02  0.79881140564E+02  0.41800000000E+01 0.  1.
         -5    1    3    3    0  502 -0.20671830556E+02 -0.69752707750E+02 -0.17238537384E+03  0.18715489395E+03  0.41800000000E+01 0.  1.
        -11    1    1    2    0    0  0.20725985055E+01  0.63584210129E+02  0.23736462938E+02  0.67901893310E+02  0.00000000000E+00 0.  1.
         11    1    1    2    0    0 -0.33841899096E+02 -0.14957158820E+02 -0.19412076896E+02  0.41783004485E+02  0.00000000000E+00 0. -1.
</event>
<event>
 7    1  0.2626349E-009  0.1161444E+03  0.7561462E-02  0.1249597E+00
          1   -1    0    0  501    0  0.00000000000E+00  0.00000000000E+00  0.36779727240E+02  0.36779727240E+02  0.00000000000E+00 0. -1.
         -1   -1    0    0    0  501 -0.00000000000E+00 -0.00000000000E+00 -0.43922100566E+03  0.43922100566E+03  0.00000000000E+00 0.  1.
         25    2    1    2    0    0  0.42230008959E+02  0.42333604031E+02 -0.16994174875E+03  0.21932168634E+03  0.12508515677E+03 0.  0.
          5    1    3    3  502    0 -0.41016987949E+01 -0.34754950777E+02 -0.97770465506E+02  0.10392914347E+03  0.41800000000E+01 0.  1.
         -5    1    3    3    0  502  0.46331707754E+02  0.77088554808E+02 -0.72171283249E+02  0.11539254288E+03  0.41800000000E+01 0.  1.
        -11    1    1    2    0    0  0.22460661102E+02 -0.35428511665E+02 -0.69534775763E+02  0.81208040096E+02  0.00000000000E+00 0. -1.
         11    1    1    2    0    0 -0.64690670061E+02 -0.69050923661E+01 -0.16296475390E+03  0.17547100646E+03  0.00000000000E+00 0.  1.
</event>
<event>
 7    1  0.2626349E-009  0.4310442E+02  0.7561462E-02  0.1486535E+00
         -4   -1    0    0    0  501 -0.00000000000E+00  0.00000000000E+00  0.16455091908E+03  0.16455091908E+03  0.00000000000E+00 0.  1.
          4   -1    0    0  501    0  0.00000000000E+00 -0.00000000000E+00 -0.73681210555E+02  0.73681210555E+02  0.00000000000E+00 0. -1.
         25    2    1    2    0    0 -0.14823425399E+02 -0.49578329244E+01  0.38034871026E+02  0.13167765313E+03  0.12509212154E+03 0.  0.
          5    1    3    3  502    0 -0.18224172246E+02  0.21879435366E+02 -0.39830909371E+02  0.49140654120E+02  0.41800000000E+01 0. -1.
         -5    1    3    3    0  502  0.34007468476E+01 -0.26837268290E+02  0.77865780397E+02  0.82536999008E+02  0.41800000000E+01 0. -1.
        -11    1    1    2    0    0  0.42244739877E+01 -0.10497260361E+02 -0.24497113702E+02  0.26984203440E+02  0.00000000000E+00 0. -1.
         11    1    1    2    0    0  0.10598951411E+02  0.15455093286E+02  0.77331951205E+02  0.79570273072E+02  0.00000000000E+00 0.  1.
</event>
<event>
 7    1  0.2626349E-009  0.8004131E+02  0.7561462E-02  0.1328934E+00
          2   -1    0    0  501    0  0.00000000000E+00  0.00000000000E+00  0.34124073366E+03  0.34124073366E+03  0.00000000000E+00 0. -1.
         -2   -1    0    0    0  501 -0.00000000000E+00 -0.00000000000E+00 -0.62904433565E+02  0.62904433565E+02  0.00000000000E+00 0.  1.
         25    2    1    2    0    0  0.40931811919E+02  0.34078882887E+02  0.26423958676E+03  0.29716430300E+03  0.12508908937E+03 0.  0.
          5    1    3    3  502    0  0.29671016009E+02  0.25015908862E+02  0.72093276223E+01  0.39693975513E+02  0.41800000000E+01 0.  1.
         -5    1    3    3    0  502  0.11260795910E+02  0.90629740242E+01  0.25703025914E+03  0.25747032748E+03  0.41800000000E+01 0.  1.
        -11    1    1    2    0    0  0.22420865721E+02  0.14033585072E+02  0.48892537731E+01  0.26898727333E+02  0.00000000000E+00 0.  1.
         11    1    1    2    0    0 -0.63352677641E+02 -0.48112467959E+02  0.92074595568E+01  0.80082136890E+02  0.00000000000E+00 0. -1.
</event>
<event>
 7    1  0.2626349E-009  0.1881636E+03  0.7561462E-02  0.1160128E+00
          1   -1    0    0  501    0  0.00000000000E+00  0.00000000000E+00  0.11133733372E+04  0.11133733372E+04  0.00000000000E+00 0. -1.
         -1   -1    0    0    0  501 -0.00000000000E+00 -0.00000000000E+00 -0.47641634264E+02  0.47641634264E+02  0.00000000000E+00 0.  1.
         25    2    1    2    0    0  0.12659171248E+03  0.10689190513E+03  0.25697713392E+03  0.33035894581E+03  0.12509374354E+03 0.  0.
          5    1    3    3  502    0  0.66441231084E+02  0.10892368896E+03  0.99916011910E+02  0.16210949707E+03  0.41800000000E+01 0.  1.
         -5    1    3    3    0  502  0.60150481391E+02 -0.20317838263E+01  0.15706112201E+03  0.16824944875E+03  0.41800000000E+01 0.  1.
        -11    1    1    2    0    0 -0.74123348574E+02 -0.56842790167E+01  0.27564098029E+03  0.28548998555E+03  0.00000000000E+00 0.  1.
         11    1    1    2    0    0 -0.52468363901E+02 -0.10120762611E+03  0.53311358870E+03  0.54516604007E+03  0.00000000000E+00 0. -1.
</event>
<event>
 7    1  0.2626349E-009  0.1673934E+03  0.7561462E-02  0.1180594E+00
         -1   -1    0    0    0  501 -0.00000000000E+00  0.00000000000E+00  0.10939539190E+04  0.10939539190E+04  0.00000000000E+00 0.  1.
          1   -1    0    0  501    0  0.00000000000E+00 -0.00000000000E+00 -0.28075560390E+02  0.28075560390E+02  0.00000000000E+00 0. -1.
         25    2    1    2    0    0  0.94922029361E+02 -0.85876094857E+02  0.72453374470E+03  0.74631203661E+03  0.12509042109E+03 0.  0.
          5    1    3    3  502    0  0.12349878102E+03 -0.52915303514E+02  0.57393551814E+03  0.58946707256E+03  0.41800000000E+01 0.  1.
         -5    1    3    3    0  502 -0.28576751659E+02 -0.32960791343E+02  0.15059822656E+03  0.15684496404E+03  0.41800000000E+01 0.  1.
        -11    1    1    2    0    0 -0.69421136991E+02  0.10415143626E+03  0.26088581212E+03  0.28935829503E+03  0.00000000000E+00 0.  1.
         11    1    1    2    0    0 -0.25500892370E+02 -0.18275341403E+02  0.80458801765E+02  0.86359147729E+02  0.00000000000E+00 0. -1.
</event>
<event>
 7    1  0.2626349E-009  0.1391957E+03  0.7561462E-02  0.1214415E+00
          2   -1    0    0  501    0  0.00000000000E+00  0.00000000000E+00  0.14315507035E+03  0.14315507035E+03  0.00000000000E+00 0.  1.
         -2   -1    0    0    0  501 -0.00000000000E+00 -0.00000000000E+00 -0.17328920244E+03  0.17328920244E+03  0.00000000000E+00 0. -1.
         25    2    1    2    0    0 -0.26664657954E+02 -0.10727402110E+03 -0.43727603584E+02  0.17256371160E+03  0.12508961452E+03 0.  0.
          5    1    3    3  502    0 -0.34987375787E+02  0.15783186793E+02 -0.28981790221E+02  0.48276723317E+02  0.41800000000E+01 0. -1.
         -5    1    3    3    0  502  0.83227178328E+01 -0.12305720789E+03 -0.14745813362E+02  0.12428698829E+03  0.41800000000E+01 0. -1.
        -11    1    1    2    0    0  0.32421157661E+01  0.81427392849E+02 -0.31067017863E+02  0.87212907415E+02  0.00000000000E+00 0. -1.
         11    1    1    2    0    0  0.23422542188E+02  0.25846628248E+02  0.44660489353E+02  0.56667653768E+02  0.00000000000E+00 0.  1.
</event>
<event>
 7    1  0.2626349E-009  0.2784830E+03  0.7561462E-02  0.1096520E+00
          2   -1    0    0  501    0  0.00000000000E+00  0.00000000000E+00  0.16179101418E+04  0.16179101418E+04  0.00000000000E+00 0. -1.
         -2   -1    0    0    0  501 -0.00000000000E+00 -0.00000000000E+00 -0.49975108158E+02  0.49975108158E+02  0.00000000000E+00 0.  1.
         25    2    1    2    0    0  0.90874420446E+02 -0.24512158982E+03  0.83695331236E+03  0.88570941196E+03  0.12509021255E+03 0.  0.
          5    1    3    3  502    0  0.23268467497E+00  0.12992295989E+02  0.72415780114E+02  0.73691054455E+02  0.41800000000E+01 0. -1.
         -5    1    3    3    0  502  0.90641735771E+02 -0.25811388581E+03  0.76453753225E+03  0.81201835751E+03  0.41800000000E+01 0. -1.
        -11    1    1    2    0    0 -0.97551488168E+02  0.18425372524E+03  0.63477451834E+03  0.66813502920E+03  0.00000000000E+00 0.  1.
         11    1    1    2    0    0  0.66770677214E+01  0.60867864581E+02  0.96207202902E+02  0.11404080876E+03  0.00000000000E+00 0. -1.
</event>
<event>
 7    1  0.2626349E-009  0.1162401E+03  0.7561462E-02  0.1249432E+00
         -1   -1    0    0    0  501 -0.00000000000E+00  0.00000000000E+00  0.23801042646E+02  0.23801042646E+02  0.00000000000E+00 0. -1.
          1   -1    0    0  501    0  0.00000000000E+00 -0.00000000000E+00 -0.58202880085E+03  0.58202880085E+03  0.00000000000E+00 0.  1.
         25    2    1    2    0    0 -0.40110773279E+02 -0.20857033493E+02 -0.33662481393E+03  0.36194516684E+03  0.12507657041E+03 0.  0.
          5    1    3    3  502    0  0.40773286655E+02 -0.28763631184E+02 -0.15590223702E+03  0.16374610619E+03  0.41800000000E+01 0. -1.
         -5    1    3    3    0  502 -0.80884059934E+02  0.79065976904E+01 -0.18072257691E+03  0.19819906066E+03  0.41800000000E+01 0. -1.
        -11    1    1    2    0    0  0.33293141367E+02  0.56045101844E+02 -0.12775930623E+03  0.14342917078E+03  0.00000000000E+00 0.  1.
         11    1    1    2    0    0  0.68176319118E+01 -0.35188068351E+02 -0.93843638039E+02  0.10045550587E+03  0.00000000000E+00 0. -1.
</event>
<event>
 7    1  0.2897898E-009  0.1448419E+03  0.7561462E-02  0.1206958E+00
         -3   -1    0    0    0  501 -0.00000000000E+00  0.00000000000E+00  0.57173053854E+02  0.57173053854E+02  0.00000000000E+00 0.  1.
          3   -1    0    0  501    0  0.00000000000E+00 -0.00000000000E+00 -0.40336193868E+03  0.40336193868E+03  0.00000000000E+00 0. -1.
         25    2    1    2    0    0 -0.88077249129E+02 -0.43562420653E+02 -0.12596292545E+03  0.20290324423E+03  0.12509109330E+03 0.  0.
          5    1    3    3  502    0 -0.11293409013E+03 -0.60993313158E+02 -0.10220204294E+03  0.16412502230E+03  0.41800000000E+01 0. -1.
         -5    1    3    3    0  502  0.24856841005E+02  0.17430892505E+02 -0.23760882511E+02  0.38778221929E+02  0.41800000000E+01 0. -1.
        -11    1    1    2    0    0  0.56793608236E+02 -0.19642439053E+02 -0.12912172446E+03  0.14242106261E+03  0.00000000000E+00 0. -1.
         11    1    1    2    0    0  0.31283640893E+02  0.63204859706E+02 -0.91104234917E+02  0.11521068569E+03  0.00000000000E+00 0.  1.
</event>
<event>
 7    1  0.2626349E-009  0.1267475E+03  0.7561462E-02  0.1232363E+00
          2   -1    0    0  501    0  0.00000000000E+00  0.00000000000E+00  0.26078049057E+02  0.26078049057E+02  0.00000000000E+00 0. -1.
         -2   -1    0    0    0  501 -0.00000000000E+00 -0.00000000000E+00 -0.72867984675E+03  0.72867984675E+03  0.00000000000E+00 0.  1.
         25    2    1    2    0    0  0.15986884879E+02  0.65098510424E+02 -0.24031363987E+03  0.27909240678E+03  0.12509408246E+03 0.  0.
          5    1    3    3  502    0  0.56964184621E+02 -0.83069822758E+01 -0.10066193210E+03  0.11603543104E+03  0.41800000000E+01 0.  1.
         -5    1    3    3    0  502 -0.40977299742E+02  0.73405492699E+02 -0.13965170777E+03  0.16305697574E+03  0.41800000000E+01 0.  1.
        -11    1    1    2    0    0 -0.35375539470E+02  0.77545682154E+01 -0.13155001860E+03  0.13644401605E+03  0.00000000000E+00 0. -1.
         11    1    1    2    0    0  0.19388654592E+02 -0.72853078639E+02 -0.33073813922E+03  0.33922147298E+03  0.00000000000E+00 0.  1.
</event>
<event>
 7    1  0.2626349E-009  0.1258430E+03  0.7561462E-02  0.1233758E+00
         -1   -1    0    0    0  501 -0.00000000000E+00  0.00000000000E+00  0.44548836113E+02  0.44548836113E+02  0.00000000000E+00 0.  1.
          1   -1    0    0  501    0  0.00000000000E+00 -0.00000000000E+00 -0.69003765762E+03  0.69003765762E+03  0.00000000000E+00 0. -1.
         25    2    1    2    0    0 -0.10482915503E+03 -0.46939347523E+02 -0.49980962454E+03  0.52787169376E+03  0.12508561150E+03 0.  0.
          5    1    3    3  502    0 -0.97409609288E+01 -0.39084890965E+02 -0.33461886196E+03  0.33706048448E+03  0.41800000000E+01 0. -1.
         -5    1    3    3    0  502 -0.95088194103E+02 -0.78544565577E+01 -0.16519076258E+03  0.19081120928E+03  0.41800000000E+01 0. -1.
        -11    1    1    2    0    0  0.32527806803E+02  0.77167799306E+01  0.61917605625E+01  0.33999188325E+02  0.00000000000E+00 0.  1.
         11    1    1    2    0    0  0.72301348229E+02  0.39222567593E+02 -0.15187095753E+03  0.17271561164E+03  0.00000000000E+00 0. -1.
</event>
<event>
 7    1  0.2626349E-009  0.7049466E+02  0.7561462E-02  0.1358419E+00
          1   -1    0    0  501    0  0.00000000000E+00  0.00000000000E+00  0.17667845106E+03  0.17667845106E+03  0.00000000000E+00 0. -1.
         -1   -1    0    0    0  501 -0.00000000000E+00 -0.00000000000E+00 -0.11253544596E+03  0.11253544596E+03  0.00000000000E+00 0.  1.
         25    2    1    2    0    0  0.97363624461E+01 -0.12847302061E+02  0.12280713976E+03  0.17603832752E+03  0.12509216305E+03 0.  0.
          5    1    3    3  502    0  0.44577459382E+02  0.72642255886E+01 -0.14324131100E+01  0.45381087092E+02  0.41800000000E+01 0.  1.
         -5    1    3    3    0  502 -0.34841096935E+02 -0.20111527649E+02  0.12423955287E+03  0.13065724043E+03  0.41800000000E+01 0.  1.
        -11    1    1    2    0    0  0.16850613889E+02  0.21416997781E+02 -0.75700644269E+02  0.80456314389E+02  0.00000000000E+00 0.  1.
         11    1    1    2    0    0 -0.26586976335E+02 -0.85696957199E+01  0.17036509611E+02  0.32719255112E+02  0.00000000000E+00 0. -1.
</event>
<event>
 7    1  0.2626349E-009  0.1255817E+03  0.7561462E-02  0.1234163E+00
          1   -1    0    0  501    0  0.00000000000E+00  0.00000000000E+00  0.21755397251E+02  0.21755397251E+02  0.00000000000E+00 0. -1.
         -1   -1    0    0    0  501 -0.00000000000E+00 -0.00000000000E+00 -0.11651723173E+04  0.11651723173E+04  0.00000000000E+00 0.  1.
         25    2    1    2    0    0  0.99718084271E+02  0.25647695805E+02 -0.80094507117E+03  0.81716624278E+03  0.12508461406E+03 0.  0.
          5    1    3    3  502    0 -0.11915921936E+02  0.25043971336E+02 -0.45099148094E+02  0.53109276540E+02  0.41800000000E+01 0. -1.
         -5    1    3    3    0  502  0.11163400621E+03  0.60372446930E+00 -0.75584592308E+03  0.76405696624E+03  0.41800000000E+01 0. -1.
        -11    1    1    2    0    0 -0.86312047575E+02 -0.36929534201E+02 -0.33918096373E+03  0.35193363893E+03  0.00000000000E+00 0.  1.
         11    1    1    2    0    0 -0.13406036696E+02  0.11281838395E+02 -0.32908851006E+01  0.17827832796E+02  0.00000000000E+00 0. -1.
</event>
<event>
 7    1  0.2626349E-009  0.1569685E+03  0.7561462E-02  0.1192162E+00
          2   -1    0    0  501    0  0.00000000000E+00  0.00000000000E+00  0.70351943815E+03  0.70351943815E+03  0.00000000000E+00 0.  1.
         -2   -1    0    0    0  501 -0.00000000000E+00 -0.00000000000E+00 -0.57992441680E+02  0.57992441680E+02  0.00000000000E+00 0. -1.
         25    2    1    2    0    0 -0.11104959293E+03 -0.10924761545E+03  0.43013637743E+03  0.47427131461E+03  0.12509565581E+03 0.  0.
          5    1    3    3  502    0 -0.79412151419E+02 -0.92360298025E+02  0.41918246176E+03  0.43654108981E+03  0.41800000000E+01 0.  1.
         -5    1    3    3    0  502 -0.31637441513E+02 -0.16887317425E+02  0.10953915674E+02  0.37730224806E+02  0.41800000000E+01 0.  1.
        -11    1    1    2    0    0  0.63652340535E+02  0.57460337732E+02  0.19672007559E+03  0.21459752797E+03  0.00000000000E+00 0.  1.
         11    1    1    2    0    0  0.47397252397E+02  0.51787277718E+02  0.18670543441E+02  0.72643037248E+02  0.00000000000E+00 0. -1.
</event>
<event>
 7    1  0.2626349E-009  0.7882239E+02  0.7561462E-02  0.1332427E+00
         -3   -1    0    0    0  501 -0.00000000000E+00  0.00000000000E+00  0.27895035471E+03  0.27895035471E+03  0.00000000000E+00 0.  1.
          3   -1    0    0  501    0  0.00000000000E+00 -0.00000000000E+00 -0.65869639865E+02  0.65869639865E+02  0.00000000000E+00 0. -1.
         25    2    1    2    0    0  0.32257214281E+02  0.16626336160E+02  0.21169561669E+03  0.24855627923E+03  0.12509287305E+03 0.  0.
          5    1    3    3  502    0  0.55052874280E+02  0.53011781480E+02  0.17819007690E+03  0.19393360680E+03  0.41800000000E+01 0.  1.
         -5    1    3    3    0  502 -0.22795659998E+02 -0.36385445320E+02  0.33505539795E+02  0.54622672425E+02  0.41800000000E+01 0.  1.
        -11    1    1    2    0    0 -0.23603433096E+02 -0.61800820054E+01  0.44672094551E+02  0.50900997034E+02  0.00000000000E+00 0.  1.
         11    1    1    2    0    0 -0.86537811858E+01 -0.10446254155E+02 -0.43286996405E+02  0.45362718309E+02  0.00000000000E+00 0. -1.
</event>
<event>
 7    1  0.2626349E-009  0.2399430E+03  0.7561462E-02  0.1119831E+00
         -2   -1    0    0    0  501 -0.00000000000E+00  0.00000000000E+00  0.55947238825E+03  0.55947238825E+03  0.00000000000E+00 0.  1.
          2   -1    0    0  501    0  0.00000000000E+00 -0.00000000000E+00 -0.13952346478E+03  0.13952346478E+03  0.00000000000E+00 0. -1.
         25    2    1    2    0    0  0.22659604473E+03  0.13099272709E+02  0.63857768986E+02  0.26691297696E+03  0.12508942472E+03 0.  0.
          5    1    3    3  502    0  0.19702642917E+03  0.34237119348E+02  0.80544448241E+01  0.20018476619E+03  0.41800000000E+01 0. -1.
         -5    1    3    3    0  502  0.29569615554E+02 -0.21137846639E+02  0.55803324162E+02  0.66728210767E+02  0.41800000000E+01 0. -1.
        -11    1    1    2    0    0 -0.93192691733E+02 -0.48774425859E+02  0.17758223994E+03  0.20639591651E+03  0.00000000000E+00 0. -1.
         11    1    1    2    0    0 -0.13340335299E+03  0.35675153150E+02  0.17850891455E+03  0.22568695956E+03  0.00000000000E+00 0.  1.
</event>
<event>
 7    1  0.2626349E-009  0.3291530E+03  0.7561462E-02  0.1071512E+00
          2   -1    0    0  501    0  0.00000000000E+00  0.00000000000E+00  0.12297765985E+04  0.12297765985E+04  0.00000000000E+00 0. -1.
         -2   -1    0    0    0  501 -0.00000000000E+00 -0.00000000000E+00 -0.10404414400E+03  0.10404414400E+03  0.00000000000E+00 0.  1.
         25    2    1    2    0    0 -0.75310748671E+01 -0.31533014603E+03  0.33425441405E+03  0.47630177364E+03  0.12509016020E+03 0.  0.
          5    1    3    3  502    0  0.46284798337E+02 -0.23275183089E+03  0.26509044283E+03  0.35581752714E+03  0.41800000000E+01 0. -1.
         -5    1    3    3    0  502 -0.53815873204E+02 -0.82578315143E+02  0.69163971217E+02  0.12048424650E+03  0.41800000000E+01 0. -1.
        -11    1    1    2    0    0  0.31133827994E+02  0.26374913275E+03  0.56907915041E+03  0.62799999977E+03  0.00000000000E+00 0.  1.
         11    1    1    2    0    0 -0.23602753126E+02  0.51581013279E+02  0.22239889006E+03  0.22951896912E+03  0.00000000000E+00 0. -1.
</event>
<event>
 7    1  0.2626349E-009  0.1139158E+03  0.7561462E-02  0.1253486E+00
          1   -1    0    0  501    0  0.00000000000E+00  0.00000000000E+00  0.10211432428E+03  0.10211432428E+03  0.00000000000E+00 0. -1.
         -1   -1    0    0    0  501 -0.00000000000E+00 -0.00000000000E+00 -0.12946883722E+03  0.12946883722E+03  0.00000000000E+00 0.  1.
         25    2    1    2    0    0 -0.16049896215E+02  0.32143158922E+02 -0.14042446254E+01  0.13015962411E+03  0.12509505991E+03 0.  0.
          5    1    3    3  502    0 -0.58863610355E+02  0.55388105815E+02  0.35635161525E+01  0.81011961692E+02  0.41800000000E+01 0.  1.
         -5    1    3    3    0  502  0.42813714140E+02 -0.23244946893E+02 -0.49677607778E+01  0.49147662423E+02  0.41800000000E+01 0.  1.
        -11    1    1    2    0    0 -0.22898641843E+02 -0.50121376242E+02 -0.13057552976E+02  0.56630379165E+02  0.00000000000E+00 0.  1.
         11    1    1    2    0    0  0.38948538058E+02  0.17978217320E+02 -0.12892715340E+02  0.44793158224E+02  0.00000000000E+00 0. -1.
</event>
<event>
 7    1  0.2626349E-009  0.1180090E+03  0.7561462E-02  0.1246418E+00
          2   -1    0    0  501    0  0.00000000000E+00  0.00000000000E+00  0.20401632494E+03  0.20401632494E+03  0.00000000000E+00 0.  1.
         -2   -1    0    0    0  501 -0.00000000000E+00 -0.00000000000E+00 -0.72165257325E+02  0.72165257325E+02  0.00000000000E+00 0. -1.
         25    2    1    2    0    0  0.49158832206E+02  0.27893390928E+02  0.73210764154E+02  0.15557054625E+03  0.12509095423E+03 0.  0.
          5    1    3    3  502    0 -0.76268089749E+01  0.63431853985E+02  0.12851077687E+02  0.65302304040E+02  0.41800000000E+01 0. -1.
         -5    1    3    3    0  502  0.56785641181E+02 -0.35538463058E+02  0.60359686467E+02  0.90268242207E+02  0.41800000000E+01 0. -1.
        -11    1    1    2    0    0 -0.43134041154E+02  0.26185086683E+02  0.22229156809E+02  0.55139275325E+02  0.00000000000E+00 0. -1.
         11    1    1    2    0    0 -0.60247910512E+01 -0.54078477610E+02  0.36411146652E+02  0.65471760694E+02  0.00000000000E+00 0.  1.
</event>
<event>
 7    1  0.2626349E-009  0.9433125E+02  0.7561462E-02  0.1292689E+00
         -2   -1    0    0    0  501 -0.00000000000E+00  0.00000000000E+00  0.15199127960E+03  0.15199127960E+03  0.00000000000E+00 0.  1.
          2   -1    0    0  501    0  0.00000000000E+00 -0.00000000000E+00 -0.87571142366E+02  0.87571142366E+02  0.00000000000E+00 0. -1.
         25    2    1    2    0    0  0.16794466160E+02  0.34317129256E+02  0.28952426165E+02  0.13396014312E+03  0.12508939807E+03 0.  0.
          5    1    3    3  502    0  0.26903642364E+02 -0.21294872372E+02  0.60067979716E+02  0.69303045741E+02  0.41800000000E+01 0.  1.
         -5    1    3    3    0  502 -0.10109176203E+02  0.55612001628E+02 -0.31115553551E+02  0.64657097378E+02  0.41800000000E+01 0.  1.
        -11    1    1    2    0    0 -0.35088585095E+02  0.19803085186E+02  0.25300297900E+02  0.47576002991E+02  0.00000000000E+00 0.  1.
         11    1    1    2    0    0  0.18294118934E+02 -0.54120214442E+02  0.10167413166E+02  0.58026275852E+02  0.00000000000E+00 0. -1.
</event>
<event>
 7    1  0.2626349E-009  0.1156684E+03  0.7561462E-02  0.1250419E+00
          1   -1    0    0  501    0  0.00000000000E+00  0.00000000000E+00  0.78064544387E+03  0.78064544387E+03  0.00000000000E+00 0. -1.
         -1   -1    0    0    0  501 -0.00000000000E+00 -0.00000000000E+00 -0.18501633650E+02  0.18501633650E+02  0.00000000000E+00 0.  1.
         25    2    1    2    0    0 -0.44409333034E+02 -0.24163499512E+02  0.38937506910E+03  0.41208837344E+03  0.12509124477E+03 0.  0.
          5    1    3    3  502    0 -0.87345250836E+02 -0.24585380526E+02  0.24025273917E+03  0.25685109472E+03  0.41800000000E+01 0.  1.
         -5    1    3    3    0  502  0.42935917802E+02  0.42188101401E+00  0.14912232993E+03  0.15523727872E+03  0.41800000000E+01 0.  1.
        -11    1    1    2    0    0 -0.24770980934E+02  0.26522256315E+01  0.45568132539E+02  0.51933520007E+02  0.00000000000E+00 0.  1.
         11    1    1    2    0    0  0.69180313968E+02  0.21511273881E+02  0.32720060859E+03  0.33512518408E+03  0.00000000000E+00 0. -1.
</event>
<event>
 7    1  0.2626349E-009  0.9734999E+02  0.7561462E-02  0.1285969E+00
          1   -1    0    0  501    0  0.00000000000E+00  0.00000000000E+00  0.17830463156E+03  0.17830463156E+03  0.00000000000E+00 0. -1.
         -1   -1    0    0    0  501 -0.00000000000E+00 -0.00000000000E+00 -0.20057927428E+03  0.20057927428E+03  0.00000000000E+00 0.  1.
         25    2    1    2    0    0  0.61080676521E+02  0.17194900509E+02 -0.15318374639E+03  0.20769305213E+03  0.12507849575E+03 0.  0.
          5    1    3    3  502    0  0.44854062704E+01 -0.20361039410E+02 -0.13580270546E+03  0.13745740433E+03  0.41800000000E+01 0.  1.
         -5    1    3    3    0  502  0.56595270250E+02  0.37555939919E+02 -0.17381040927E+02  0.70235647798E+02  0.41800000000E+01 0.  1.
        -11    1    1    2    0    0  0.11093452497E+02  0.20983129032E+02  0.54159324017E+02  0.59131960650E+02  0.00000000000E+00 0. -1.
         11    1    1    2    0    0 -0.72174129018E+02 -0.38178029541E+02  0.76749779647E+02  0.11205889307E+03  0.00000000000E+00 0.  1.
</event>
<event>
 7    1  0.2626349E-009  0.1227290E+03  0.7561462E-02  0.1238662E+00
          1   -1    0    0  501    0  0.00000000000E+00  0.00000000000E+00  0.52678157003E+03  0.52678157003E+03  0.00000000000E+00 0. -1.
         -1   -1    0    0    0  501 -0.00000000000E+00 -0.00000000000E+00 -0.40779007331E+02  0.40779007331E+02  0.00000000000E+00 0.  1.
         25    2    1    2    0    0  0.51096511420E+02 -0.80601576477E+02  0.25097376863E+03  0.29621400918E+03  0.12508972413E+03 0.  0.
          5    1    3    3  502    0  0.58740057179E+02 -0.90148866272E+02  0.10748289023E+03  0.15214222458E+03  0.41800000000E+01 0.  1.
         -5    1    3    3    0  502 -0.76435457590E+01  0.95472897950E+01  0.14349087840E+03  0.14407178460E+03  0.41800000000E+01 0.  1.
        -11    1    1    2    0    0  0.20605126354E+02  0.32609405672E+02  0.12902358653E+03  0.13466636719E+03  0.00000000000E+00 0.  1.
         11    1    1    2    0    0 -0.71701637774E+02  0.47992170805E+02  0.10600520754E+03  0.13668020099E+03  0.00000000000E+00 0. -1.
</event>
<event>
 7    1  0.2626349E-009  0.1373462E+03  0.7561462E-02  0.1216945E+00
         -2   -1    0    0    0  501 -0.00000000000E+00  0.00000000000E+00  0.38619187238E+03  0.38619187238E+03  0.00000000000E+00 0.  1.
          2   -1    0    0  501    0  0.00000000000E+00 -0.00000000000E+00 -0.90264906387E+02  0.90264906387E+02  0.00000000000E+00 0. -1.
         25    2    1    2    0    0 -0.10841618196E+03 -0.62425237515E+02  0.45653659154E+02  0.18270914260E+03  0.12508954955E+03 0.  0.
          5    1    3    3  502    0 -0.72866035436E+02 -0.31477144894E+02 -0.36840847729E+02  0.87607021592E+02  0.41800000000E+01 0. -1.
         -5    1    3    3    0  502 -0.35550146527E+02 -0.30948092621E+02  0.82494506883E+02  0.95102121011E+02  0.41800000000E+01 0. -1.
        -11    1    1    2    0    0  0.67568382943E+02 -0.63838104422E+01  0.15579202240E+03  0.16993349774E+03  0.00000000000E+00 0.  1.
         11    1    1    2    0    0  0.40847799020E+02  0.68809047957E+02  0.94481284440E+02  0.12381413843E+03  0.00000000000E+00 0. -1.
</event>
<event>
 7    1  0.2626349E-009  0.6413435E+02  0.7561462E-02  0.1381258E+00
          2   -1    0    0  501    0  0.00000000000E+00  0.00000000000E+00  0.14633973693E+03  0.14633973693E+03  0.00000000000E+00 0. -1.
         -2   -1    0    0    0  501 -0.00000000000E+00 -0.00000000000E+00 -0.82103177597E+02  0.82103177597E+02  0.00000000000E+00 0.  1.
         25    2    1    2    0    0  0.51132487280E+01  0.35101352348E+01  0.15892681342E+02  0.12624580577E+03  0.12508780833E+03 0.  0.
          5    1    3    3  502    0 -0.30952495973E+02  0.56896594148E+01 -0.45146348004E+02  0.55191433840E+02  0.41800000000E+01 0.  1.
         -5    1    3    3    0  502  0.36065744701E+02 -0.21795241800E+01  0.61039029346E+02  0.71054371927E+02  0.41800000000E+01 0.  1.
        -11    1    1    2    0    0 -0.92577352378E+01 -0.30997610856E+02  0.62964114259E+02  0.70788680062E+02  0.00000000000E+00 0. -1.
         11    1    1    2    0    0  0.41444865098E+01  0.27487475622E+02 -0.14620236270E+02  0.31408428695E+02  0.00000000000E+00 0.  1.
</event>
<event>
 7    1  0.2626349E-009  0.8017860E+02  0.7561462E-02  0.1328545E+00
          1   -1    0    0  501    0  0.00000000000E+00  0.00000000000E+00  0.29138926933E+03  0.29138926933E+03  0.00000000000E+00 0. -1.
         -1   -1    0    0    0  501 -0.00000000000E+00 -0.00000000000E+00 -0.51316977748E+02  0.51316977748E+02  0.00000000000E+00 0.  1.
         25    2    1    2    0    0 -0.25518052997E+01 -0.30848914020E+02  0.67412783145E+02  0.14543075098E+03  0.12508977893E+03 0.  0.
          5    1    3    3  502    0 -0.21179197957E+02  0.24408877556E+02  0.79333704466E+02  0.85765149064E+02  0.41800000000E+01 0. -1.
         -5    1    3    3    0  502  0.18627392657E+02 -0.55257791576E+02 -0.11920921321E+02  0.59665601918E+02  0.41800000000E+01 0. -1.
        -11    1    1    2    0    0  0.31143197694E+02  0.66355662960E+01  0.14950955488E+02  0.35177557799E+02  0.00000000000E+00 0.  1.
         11    1    1    2    0    0 -0.28591392394E+02  0.24213347724E+02  0.15770855295E+03  0.16209793830E+03  0.00000000000E+00 0. -1.
</event>
<event>
 7    1  0.2626349E-009  0.1378120E+03  0.7561462E-02  0.1216304E+00
         -1   -1    0    0    0  501 -0.00000000000E+00  0.00000000000E+00  0.43236471854E+02  0.43236471854E+02  0.00000000000E+00 0.  1.
          1   -1    0    0  501    0  0.00000000000E+00 -0.00000000000E+00 -0.49208966245E+03  0.49208966245E+03  0.00000000000E+00 0. -1.
         25    2    1    2    0    0 -0.61586367816E+02  0.58446840708E+02 -0.15989982673E+03  0.22005520576E+03  0.12508966825E+03 0.  0.
          5    1    3    3  502    0  0.37491892935E+02  0.57559674431E+01 -0.31542850593E+02  0.49509564940E+02  0.41800000000E+01 0. -1.
         -5    1    3    3    0  502 -0.99078260751E+02  0.52690873264E+02 -0.12835697614E+03  0.17054564082E+03  0.41800000000E+01 0. -1.
        -11    1    1    2    0    0  0.18711418505E+02 -0.76420333126E+02 -0.16256159810E+03  0.18060027042E+03  0.00000000000E+00 0.  1.
         11    1    1    2    0    0  0.42874949310E+02  0.17973492418E+02 -0.12639176576E+03  0.13467065812E+03  0.00000000000E+00 0. -1.
</event>
<event>
 7    1  0.2626349E-009  0.2855509E+03  0.7561462E-02  0.1092695E+00
         -2   -1    0    0    0  501 -0.00000000000E+00  0.00000000000E+00  0.22329496701E+03  0.22329496701E+03  0.00000000000E+00 0.  1.
          2   -1    0    0  501    0  0.00000000000E+00 -0.00000000000E+00 -0.41450014157E+03  0.41450014157E+03  0.00000000000E+00 0. -1.
         25    2    1    2    0    0  0.19028476846E+03  0.20315618801E+03 -0.37764973974E+02  0.30749674543E+03  0.12508926953E+03 0.  0.
          5    1    3    3  502    0  0.38997312672E+02  0.45351752271E+02  0.43668174579E+02  0.74175155549E+02  0.41800000000E+01 0. -1.
         -5    1    3    3    0  502  0.15128745579E+03  0.15780443574E+03 -0.81433148553E+02  0.23332158988E+03  0.41800000000E+01 0. -1.
        -11    1    1    2    0    0 -0.73533090512E+02 -0.14382213309E+03 -0.85171900705E+02  0.18260934817E+03  0.00000000000E+00 0.  1.
         11    1    1    2    0    0 -0.11675167795E+03 -0.59334054920E+02 -0.68268299881E+02  0.14768901498E+03  0.00000000000E+00 0. -1.
</event>
<event>
 7    1  0.2626349E-009  0.1658802E+03  0.7561462E-02  0.1182214E+00
          2   -1    0    0  501    0  0.00000000000E+00  0.00000000000E+00  0.27439895183E+04  0.27439895183E+04  0.00000000000E+00 0.  1.
         -2   -1    0    0    0  501 -0.00000000000E+00 -0.00000000000E+00 -0.23349547130E+02  0.23349547130E+02  0.00000000000E+00 0. -1.
         25    2    1    2    0    0 -0.82694335122E+02  0.13264980694E+03  0.23479360608E+04  0.23564562690E+04  0.12509227650E+03 0.  0.
          5    1    3    3  502    0 -0.35709123144E+02  0.82667373460E+02  0.19864839652E+04  0.19885283635E+04  0.41800000000E+01 0. -1.
         -5    1    3    3    0  502 -0.46985211979E+02  0.49982433480E+02  0.36145209562E+03  0.36792790547E+03  0.41800000000E+01 0. -1.
        -11    1    1    2    0    0  0.49747733732E+02 -0.16900915669E+02  0.11896876994E+03  0.13005401256E+03  0.00000000000E+00 0.  1.
         11    1    1    2    0    0  0.32946601390E+02 -0.11574889127E+03  0.25373514039E+03  0.28082878386E+03  0.00000000000E+00 0. -1.
</event>
<event>
 7    1  0.4160254E-009  0.1049821E+03  0.7561462E-02  0.1270155E+00
          2   -1    0    0  501    0  0.00000000000E+00  0.00000000000E+00  0.38100370609E+03  0.38100370609E+03  0.00000000000E+00 0. -1.
         -2   -1    0    0    0  501 -0.00000000000E+00 -0.00000000000E+00 -0.59205587900E+02  0.59205587900E+02  0.00000000000E+00 0.  1.
         25    2    1    2    0    0  0.66427529514E+02 -0.38343891481E+02  0.72060663463E+02  0.16347233585E+03  0.12509034606E+03 0.  0.
          5    1    3    3  502    0  0.66865319769E+02 -0.67921957259E+02  0.87842590137E+02  0.12968483453E+03  0.41800000000E+01 0. -1.
         -5    1    3    3    0  502 -0.43779025543E+00  0.29578065779E+02 -0.15781926674E+02  0.33787501314E+02  0.41800000000E+01 0. -1.
        -11    1    1    2    0    0 -0.20256193210E+02  0.32291704525E+02  0.21432060068E+02  0.43731004371E+02  0.00000000000E+00 0.  1.
         11    1    1    2    0    0 -0.46171336303E+02  0.60521869557E+01  0.22830539466E+03  0.23300595377E+03  0.00000000000E+00 0. -1.
</event>
<event>
 7    1  0.2626349E-009  0.1026476E+03  0.7561462E-02  0.1274825E+00
         -1   -1    0    0    0  501 -0.00000000000E+00  0.00000000000E+00  0.28510952105E+02  0.28510952105E+02  0.00000000000E+00 0.  1.
          1   -1    0    0  501    0  0.00000000000E+00 -0.00000000000E+00 -0.54047410382E+03  0.54047410382E+03  0.00000000000E+00 0. -1.
         25    2    1    2    0    0  0.57165294877E+02  0.16092792498E+02 -0.28292639473E+03  0.31499314720E+03  0.12508592663E+03 0.  0.
          5    1    3    3  502    0  0.49850984535E+02 -0.47749312712E+02 -0.18772345212E+03  0.20005670296E+03  0.41800000000E+01 0. -1.
         -5    1    3    3    0  502  0.73143103417E+01  0.63842105210E+02 -0.95202942613E+02  0.11493644424E+03  0.41800000000E+01 0. -1.
        -11    1    1    2    0    0 -0.57124061253E+02 -0.14930433867E+01 -0.23213673074E+03  0.23906662107E+03  0.00000000000E+00 0. -1.
         11    1    1    2    0    0 -0.41233623326E-01 -0.14599749111E+02  0.30999737503E+01  0.14925287655E+02  0.00000000000E+00 0.  1.
</event>
<event>
 7    1  0.2626349E-009  0.1083355E+03  0.7561462E-02  0.1263684E+00
         -2   -1    0    0    0  501 -0.00000000000E+00  0.00000000000E+00  0.92788282246E+01  0.92788282246E+01  0.00000000000E+00 0.  1.
          2   -1    0    0  501    0  0.00000000000E+00 -0.00000000000E+00 -0.19184741835E+04  0.19184741835E+04  0.00000000000E+00 0. -1.
         25    2    1    2    0    0 -0.70893674098E+01  0.52845985629E+02 -0.14577021853E+04  0.14640308688E+04  0.12509103267E+03 0.  0.
          5    1    3    3  502    0  0.95287547140E+01 -0.28397298705E+02 -0.86638297327E+03  0.86691068312E+03  0.41800000000E+01 0. -1.
         -5    1    3    3    0  502 -0.16618122124E+02  0.81243284335E+02 -0.59131921207E+03  0.59712018572E+03  0.41800000000E+01 0. -1.
        -11    1    1    2    0    0  0.43165580677E+02 -0.49711807730E+01 -0.14287678873E+03  0.14933772715E+03  0.00000000000E+00 0. -1.
         11    1    1    2    0    0 -0.36076213267E+02 -0.47874804856E+02 -0.30861638118E+03  0.31438441570E+03  0.00000000000E+00 0.  1.
</event>
<event>
 7    1  0.2626349E-009  0.1002315E+03  0.7561462E-02  0.1279810E+00
         -1   -1    0    0    0  501 -0.00000000000E+00  0.00000000000E+00  0.18348770636E+02  0.18348770636E+02  0.00000000000E+00 0.  1.
          1   -1    0    0  501    0  0.00000000000E+00 -0.00000000000E+00 -0.13901722600E+04  0.13901722600E+04  0.00000000000E+00 0. -1.
         25    2    1    2    0    0  0.36220809437E+02  0.22598116873E+01 -0.12871768827E+04  0.12937498176E+04  0.12508880666E+03 0.  0.
          5    1    3    3  502    0 -0.42610545472E+02 -0.19712951665E+02 -0.55645289404E+03  0.55844565961E+03  0.41800000000E+01 0.  1.
         -5    1    3    3    0  502  0.78831354909E+02  0.21972763352E+02 -0.73072398863E+03  0.73530415802E+03  0.41800000000E+01 0.  1.
        -11    1    1    2    0    0 -0.81710470654E+01 -0.30503559509E+02 -0.15957805524E+02  0.35381982844E+02  0.00000000000E+00 0.  1.
         11    1    1    2    0    0 -0.28049762372E+02  0.28243747822E+02 -0.68688801197E+02  0.79389230189E+02  0.00000000000E+00 0. -1.
</event>
<event>
 7    1  0.2626349E-009  0.1170792E+03  0.7561462E-02  0.1247995E+00
         -2   -1    0    0    0  501 -0.00000000000E+00  0.00000000000E+00  0.39617384363E+03  0.39617384363E+03  0.00000000000E+00 0.  1.
          2   -1    0    0  501    0  0.00000000000E+00 -0.00000000000E+00 -0.51547391779E+02  0.51547391779E+02  0.00000000000E+00 0. -1.
         25    2    1    2    0    0  0.71611406068E+02 -0.51272910660E+01  0.91610130585E+02  0.17086304642E+03  0.12508909630E+03 0.  0.
          5    1    3    3  502    0  0.69172706624E+02 -0.57476394855E+02  0.45225461198E+02  0.10075323344E+03  0.41800000000E+01 0.  1.
         -5    1    3    3    0  502  0.24386994435E+01  0.52349103789E+02  0.46384669388E+02  0.70109812984E+02  0.41800000000E+01 0.  1.
        -11    1    1    2    0    0 -0.23874869185E+02  0.29503359289E+02  0.32643275320E+02  0.50060373666E+02  0.00000000000E+00 0. -1.
         11    1    1    2    0    0 -0.47736536882E+02 -0.24376068223E+02  0.22037304595E+03  0.22679781532E+03  0.00000000000E+00 0.  1.
</event>
<event>
 7    1  0.2626349E-009  0.1418557E+03  0.7561462E-02  0.1210854E+00
         -2   -1    0    0    0  501 -0.00000000000E+00  0.00000000000E+00  0.48918900179E+02  0.48918900179E+02  0.00000000000E+00 0.  1.
          2   -1    0    0  501    0  0.00000000000E+00 -0.00000000000E+00 -0.49813497032E+03  0.49813497032E+03  0.00000000000E+00 0. -1.
         25    2    1    2    0    0 -0.10382400491E+03  0.24501529063E+02 -0.29216552310E+03  0.33524334909E+03  0.12509061235E+03 0.  0.
          5    1    3    3  502    0 -0.12732100501E+03  0.38071026137E+02 -0.20940736640E+03  0.24805031516E+03  0.41800000000E+01 0. -1.
         -5    1    3    3    0  502  0.23497000106E+02 -0.13569497074E+02 -0.82758156702E+02  0.87193033928E+02  0.41800000000E+01 0. -1.
        -11    1    1    2    0    0  0.13551248148E+02 -0.29940455334E+02 -0.99082278808E+02  0.10439044576E+03  0.00000000000E+00 0. -1.
         11    1    1    2    0    0  0.90272756757E+02  0.54389262703E+01 -0.57968268231E+02  0.10742007565E+03  0.00000000000E+00 0.  1.
</event>
<event>
 7    1  0.2626349E-009  0.6852759E+02  0.7561462E-02  0.1365173E+00
          1   -1    0    0  501    0  0.00000000000E+00  0.00000000000E+00  0.10631678611E+03  0.10631678611E+03  0.00000000000E+00 0. -1.
         -1   -1    0    0    0  501 -0.00000000000E+00 -0.00000000000E+00 -0.14586098361E+03  0.14586098361E+03  0.00000000000E+00 0.  1.
         25    2    1    2    0    0 -0.46039657743E+02 -0.33072394501E+02 -0.34957790883E+02  0.14171131546E+03  0.12508643581E+03 0.  0.
          5    1    3    3  502    0  0.32651764788E+01  0.90166980273E+01 -0.68020680268E+02  0.68820400790E+02  0.41800000000E+01 0.  1.
         -5    1    3    3    0  502 -0.49304834222E+02 -0.42089092529E+02  0.33062889384E+02  0.72890914674E+02  0.41800000000E+01 0.  1.
        -11    1    1    2    0    0  0.27078970343E+02  0.32979443201E+02  0.42181178210E+02  0.60001384183E+02  0.00000000000E+00 0. -1.
         11    1    1    2    0    0  0.18960687400E+02  0.92951300266E-01 -0.46767584833E+02  0.50465070075E+02  0.00000000000E+00 0.  1.
</event>
<event>
 7    1  0.2626349E-009  0.1382051E+03  0.7561462E-02  0.1215765E+00
         -2   -1    0    0    0  501 -0.00000000000E+00  0.00000000000E+00  0.33384058275E+02  0.33384058275E+02  0.00000000000E+00 0.  1.
          2   -1    0    0  501    0  0.00000000000E+00 -0.00000000000E+00 -0.68273914994E+03  0.68273914994E+03  0.00000000000E+00 0. -1.
         25    2    1    2    0    0 -0.80489804701E+02  0.44154359869E+02 -0.23441383004E+03  0.28111525419E+03  0.12509087204E+03 0.  0.
          5    1    3    3  502    0 -0.29975796007E+01 -0.35977298547E+02 -0.25866820284E+02  0.44608477735E+02  0.41800000000E+01 0.  1.
         -5    1    3    3    0  502 -0.77492225100E+02  0.80131658416E+02 -0.20854700976E+03  0.23650677646E+03  0.41800000000E+01 0.  1.
        -11    1    1    2    0    0  0.67074390038E+02 -0.71512413412E+02 -0.34620782661E+03  0.35982337094E+03  0.00000000000E+00 0. -1.
         11    1    1    2    0    0  0.13415414662E+02  0.27358053543E+02 -0.68733435014E+02  0.75184583081E+02  0.00000000000E+00 0.  1.
</event>
<event>
 7    1  0.2626349E-009  0.9393215E+02  0.7561462E-02  0.1293599E+00
          1   -1    0    0  501    0  0.00000000000E+00  0.00000000000E+00  0.40751455256E+02  0.40751455256E+02  0.00000000000E+00 0. -1.
         -1   -1    0    0    0  501 -0.00000000000E+00 -0.00000000000E+00 -0.35978597452E+03  0.35978597452E+03  0.00000000000E+00 0.  1.
         25    2    1    2    0    0  0.42869506456E+02  0.26038259924E+02 -0.21512304927E+03  0.25385013113E+03  0.12508468006E+03 0.  0.
          5    1    3    3  502    0  0.16994451490E+02 -0.48240054830E+02 -0.11888573641E+03  0.12948824268E+03  0.41800000000E+01 0. -1.
         -5    1    3    3    0  502  0.25875054966E+02  0.74278314754E+02 -0.96237312864E+02  0.12436188845E+03  0.41800000000E+01 0. -1.
        -11    1    1    2    0    0 -0.32606004861E+02 -0.32251624851E+01 -0.11481508800E+03  0.11939873391E+03  0.00000000000E+00 0.  1.
         11    1    1    2    0    0 -0.10263501595E+02 -0.22813097439E+02  0.10903618006E+02  0.27288564736E+02  0.00000000000E+00 0. -1.
</event>
<event>
 7    1  0.2626349E-009  0.1087100E+03  0.7561462E-02  0.1262978E+00
          2   -1    0    0  501    0  0.00000000000E+00  0.00000000000E+00  0.16781712014E+03  0.16781712014E+03  0.00000000000E+00 0. -1.
         -2   -1    0    0    0  501 -0.00000000000E+00 -0.00000000000E+00 -0.12810739392E+03  0.12810739392E+03  0.00000000000E+00 0.  1.
         25    2    1    2    0    0 -0.47164619599E+02  0.25094114676E+02 -0.56358053826E+02  0.14723341013E+03  0.12508889197E+03 0.  0.
          5    1    3    3  502    0 -0.39562101535E+02 -0.34471981677E+02 -0.67927994012E+02  0.85936966255E+02  0.41800000000E+01 0.  1.
         -5    1    3    3    0  502 -0.76025180642E+01  0.59566096354E+02  0.11569940186E+02  0.61296443874E+02  0.41800000000E+01 0.  1.
        -11    1    1    2    0    0  0.14487367478E+01 -0.51680609316E+02  0.18706276169E+02  0.54980987492E+02  0.00000000000E+00 0.  1.
         11    1    1    2    0    0  0.45715882851E+02  0.26586494640E+02  0.77361503871E+02  0.93710116441E+02  0.00000000000E+00 0. -1.
</event>
<event>
 7    1  0.2626349E-009  0.1033112E+03  0.7561462E-02  0.1273483E+00
         -4   -1    0    0    0  501 -0.00000000000E+00  0.00000000000E+00  0.31667898387E+02  0.31667898387E+02  0.00000000000E+00 0.  1.
          4   -1    0    0  501    0  0.00000000000E+00 -0.00000000000E+00 -0.39620424096E+03  0.39620424096E+03  0.00000000000E+00 0. -1.
         25    2    1    2    0    0 -0.70189593518E+01 -0.12257156887E+02 -0.20841157119E+03  0.24348327961E+03  0.12509684551E+03 0.  0.
          5    1    3    3  502    0 -0.25185747822E+02  0.52250286198E+02 -0.10854693674E+03  0.12314351050E+03  0.41800000000E+01 0. -1.
         -5    1    3    3    0  502  0.18166788470E+02 -0.64507443084E+02 -0.99864634445E+02  0.12033976911E+03  0.41800000000E+01 0. -1.
        -11    1    1    2    0    0  0.40363817563E+02  0.22789220948E+02 -0.34351256478E+02  0.57693978727E+02  0.00000000000E+00 0. -1.
         11    1    1    2    0    0 -0.33344858212E+02 -0.10532064061E+02 -0.12177351490E+03  0.12669488101E+03  0.00000000000E+00 0.  1.
</event>
<event>
 7    1  0.2626349E-009  0.9454033E+02  0.7561462E-02  0.1292215E+00
          3   -1    0    0  501    0  0.00000000000E+00  0.00000000000E+00  0.12013622282E+02  0.12013622282E+02  0.00000000000E+00 0. -1.
         -3   -1    0    0    0  501 -0.00000000000E+00 -0.00000000000E+00 -0.21397612641E+04  0.21397612641E+04  0.00000000000E+00 0.  1.
         25    2    1    2    0    0 -0.12202968215E+02  0.11901218776E+02 -0.19178165297E+04  0.19219672954E+04  0.12508993371E+03 0.  0.
          5    1    3    3  502    0 -0.53624399153E+02  0.53571497473E-01 -0.16325257910E+04  0.16334116167E+04  0.41800000000E+01 0. -1.
         -5    1    3    3    0  502  0.41421430938E+02  0.11847647279E+02 -0.28529073870E+03  0.28855567864E+03  0.41800000000E+01 0. -1.
        -11    1    1    2    0    0  0.73822010908E+01 -0.51546007728E+02 -0.13857750234E+03  0.14803787340E+03  0.00000000000E+00 0.  1.
         11    1    1    2    0    0  0.48207671243E+01  0.39644788951E+02 -0.71353609762E+02  0.81769717578E+02  0.00000000000E+00 0. -1.
</event>
<event>
 7    1  0.2626349E-009  0.1036076E+03  0.7561462E-02  0.1272888E+00
          2   -1    0    0  501    0  0.00000000000E+00  0.00000000000E+00  0.89486287644E+03  0.89486287644E+03  0.00000000000E+00 0.  1.
         -2   -1    0    0    0  501 -0.00000000000E+00 -0.00000000000E+00 -0.13969029946E+02  0.13969029946E+02  0.00000000000E+00 0. -1.
         25    2    1    2    0    0  0.33594704488E+02  0.21156546596E+02  0.50448965076E+03  0.52128197498E+03  0.12509550785E+03 0.  0.
          5    1    3    3  502    0 -0.23371239434E+02  0.47418379471E+02  0.11358700191E+03  0.12535628005E+03  0.41800000000E+01 0.  1.
         -5    1    3    3    0  502  0.56965943922E+02 -0.26261832875E+02  0.39090264885E+03  0.39592569493E+03  0.41800000000E+01 0.  1.
        -11    1    1    2    0    0  0.19456151281E+02  0.17107313591E+02  0.13363767033E+03  0.13612578350E+03  0.00000000000E+00 0.  1.
         11    1    1    2    0    0 -0.53050855769E+02 -0.38263860188E+02  0.24276652540E+03  0.25142414791E+03  0.00000000000E+00 0. -1.
</event>
<event>
 7    1  0.2626349E-009  0.1016003E+03  0.7561462E-02  0.1276966E+00
          2   -1    0    0  501    0  0.00000000000E+00  0.00000000000E+00  0.35721604500E+02  0.35721604500E+02  0.00000000000E+00 0. -1.
         -2   -1    0    0    0  501 -0.00000000000E+00 -0.00000000000E+00 -0.44911220647E+03  0.44911220647E+03  0.00000000000E+00 0.  1.
         25    2    1    2    0    0  0.26621077839E+02  0.43398989084E+02 -0.16242008202E+03  0.21123350577E+03  0.12508859612E+03 0.  0.
          5    1    3    3  502    0  0.45163945912E+02 -0.52716468122E+01 -0.56806496452E+01  0.46014285291E+02  0.41800000000E+01 0.  1.
         -5    1    3    3    0  502 -0.18542868073E+02  0.48670635896E+02 -0.15673943238E+03  0.16521922048E+03  0.41800000000E+01 0.  1.
        -11    1    1    2    0    0 -0.36528046343E+02 -0.68870068188E+02 -0.21299195305E+03  0.22681039774E+03  0.00000000000E+00 0.  1.
         11    1    1    2    0    0  0.99069685039E+01  0.25471079104E+02 -0.37978566904E+02  0.46789907456E+02  0.00000000000E+00 0. -1.
</event>
<event>
 7    1  0.2626349E-009  0.1230346E+03  0.7561462E-02  0.1238173E+00
         -2   -1    0    0    0  501 -0.00000000000E+00  0.00000000000E+00  0.74303589528E+02  0.74303589528E+02  0.00000000000E+00 0.  1.
          2   -1    0    0  501    0  0.00000000000E+00 -0.00000000000E+00 -0.25647104635E+03  0.25647104635E+03  0.00000000000E+00 0. -1.
         25    2    1    2    0    0  0.46538637971E+01 -0.64289314717E+02 -0.16597256052E+03  0.21760071800E+03  0.12509359374E+03 0.  0.
          5    1    3    3  502    0 -0.58811387259E+02 -0.20422208526E+02 -0.87564060645E+02  0.10752108160E+03  0.41800000000E+01 0. -1.
         -5    1    3    3    0  502  0.63465251056E+02 -0.43867106191E+02 -0.78408499878E+02  0.11007963640E+03  0.41800000000E+01 0. -1.
        -11    1    1    2    0    0  0.11290483939E+02 -0.18731585044E+02 -0.18437979090E+02  0.28606054931E+02  0.00000000000E+00 0. -1.
         11    1    1    2    0    0 -0.15944347736E+02  0.83020899761E+02  0.22430827939E+01  0.84567862940E+02  0.00000000000E+00 0.  1.
</event>
<event>
 7    1  0.2626349E-009  0.7261102E+02  0.7561462E-02  0.1351433E+00
          2   -1    0    0  501    0  0.00000000000E+00  0.00000000000E+00  0.21279573750E+03  0.21279573750E+03  0.00000000000E+00 0. -1.
         -2   -1    0    0    0  501 -0.00000000000E+00 -0.00000000000E+00 -0.63515553452E+02  0.63515553452E+02  0.00000000000E+00 0.  1.
         25    2    1    2    0    0  0.30619657506E+02 -0.29984577902E+02  0.10602504922E+03  0.16948418215E+03  0.12508772362E+03 0.  0.
          5    1    3    3  502    0  0.39410281984E+01 -0.36493762660E+02  0.12853015585E+03  0.13373406365E+03  0.41800000000E+01 0. -1.
         -5    1    3    3    0  502  0.26678629308E+02  0.65091847580E+01 -0.22505106637E+02  0.35750118499E+02  0.41800000000E+01 0. -1.
        -11    1    1    2    0    0 -0.21809254166E+02  0.52216085986E+02 -0.91939135066E+00  0.56595127736E+02  0.00000000000E+00 0.  1.
         11    1    1    2    0    0 -0.88104033402E+01 -0.22231508084E+02  0.44174526180E+02  0.50231981067E+02  0.00000000000E+00 0. -1.
</event>
<event>
 7    1  0.2626349E-009  0.9701775E+02  0.7561462E-02  0.1286695E+00
          2   -1    0    0  501    0  0.00000000000E+00  0.00000000000E+00  0.72886698362E+02  0.72886698362E+02  0.00000000000E+00 0.  1.
         -2   -1    0    0    0  501 -0.00000000000E+00 -0.00000000000E+00 -0.22067277107E+03  0.22067277107E+03  0.00000000000E+00 0. -1.
         25    2    1    2    0    0 -0.56035609981E+02  0.86955237694E+00 -0.42432352378E+02  0.14349487088E+03  0.12509807246E+03 0.  0.
          5    1    3    3  502    0 -0.18677418549E+02 -0.58484759176E+02 -0.39606675805E+02  0.73181105402E+02  0.41800000000E+01 0. -1.
         -5    1    3    3    0  502 -0.37358191432E+02  0.59354311553E+02 -0.28256765730E+01  0.70313765474E+02  0.41800000000E+01 0. -1.
        -11    1    1    2    0    0  0.33380531033E+02  0.12836068354E+02  0.54186317574E+01  0.36171619717E+02  0.00000000000E+00 0.  1.
         11    1    1    2    0    0  0.22655078948E+02 -0.13705620731E+02 -0.11077235209E+03  0.11389297884E+03  0.00000000000E+00 0. -1.
</event>
<event>
 7    1  0.2626349E-009  0.1001831E+03  0.7561462E-02  0.1279911E+00
         -3   -1    0    0    0  501 -0.00000000000E+00  0.00000000000E+00  0.41886241315E+02  0.41886241315E+02  0.00000000000E+00 0. -1.
          3   -1    0    0  501    0  0.00000000000E+00 -0.00000000000E+00 -0.52210259680E+03  0.52210259680E+03  0.00000000000E+00 0.  1.
         25    2    1    2    0    0 -0.16112994166E+02  0.87115783324E+02 -0.34737695092E+03  0.37969400668E+03  0.12509198375E+03 0.  0.
          5    1    3    3  502    0 -0.26280930040E+02  0.43332394616E+02 -0.32564759841E+03  0.32959401460E+03  0.41800000000E+01 0. -1.
         -5    1    3    3    0  502  0.10167935874E+02  0.43783388708E+02 -0.21729352504E+02  0.50099992085E+02  0.41800000000E+01 0. -1.
        -11    1    1    2    0    0  0.34818247665E+02 -0.73198429082E+02 -0.13834179023E+03  0.16033955006E+03  0.00000000000E+00 0.  1.
         11    1    1    2    0    0 -0.18705253499E+02 -0.13917354242E+02  0.55023856605E+01  0.23955281370E+02  0.00000000000E+00 0. -1.
</event>
<event>
 7    1  0.2626349E-009  0.1023557E+03  0.7561462E-02  0.1275419E+00
         -3   -1    0    0    0  501 -0.00000000000E+00  0.00000000000E+00  0.34938886392E+02  0.34938886392E+02  0.00000000000E+00 0.  1.
          3   -1    0    0  501    0  0.00000000000E+00 -0.00000000000E+00 -0.55408020265E+03  0.55408020265E+03  0.00000000000E+00 0. -1.
         25    2    1    2    0    0  0.91229247970E+01 -0.30664721374E+02 -0.45349567458E+03  0.47151863132E+03  0.12509172606E+03 0.  0.
          5    1    3    3  502    0 -0.19504562197E+02  0.36491851428E+02 -0.28249046830E+03  0.28553532224E+03  0.41800000000E+01 0. -1.
         -5    1    3    3    0  502  0.28627486994E+02 -0.67156572803E+02 -0.17100520628E+03  0.18598330908E+03  0.41800000000E+01 0. -1.
        -11    1    1    2    0    0  0.20950864399E+02  0.50024024315E+02 -0.16443195882E+02  0.56672042654E+02  0.00000000000E+00 0.  1.
         11    1    1    2    0    0 -0.30073789196E+02 -0.19359302941E+02 -0.49202445801E+02  0.60828415068E+02  0.00000000000E+00 0. -1.
</event>
<event>
 7    1  0.2626349E-009  0.9073572E+02  0.7561462E-02  0.1301080E+00
          4   -1    0    0  501    0  0.00000000000E+00  0.00000000000E+00  0.21486241062E+03  0.21486241062E+03  0.00000000000E+00 0. -1.
         -4   -1    0    0    0  501 -0.00000000000E+00 -0.00000000000E+00 -0.63481780731E+02  0.63481780731E+02  0.00000000000E+00 0.  1.
         25    2    1    2    0    0  0.22640170865E+02  0.35706661463E+02  0.80782924663E+02  0.15478782973E+03  0.12508336543E+03 0.  0.
          5    1    3    3  502    0  0.50291768523E+02  0.16158066489E+02 -0.13364391007E+02  0.54648187901E+02  0.41800000000E+01 0.  1.
         -5    1    3    3    0  502 -0.27651597658E+02  0.19548594974E+02  0.94147315670E+02  0.10013964183E+03  0.41800000000E+01 0.  1.
        -11    1    1    2    0    0  0.32343065509E+02 -0.12279897144E+02  0.52368118171E+01  0.34989912238E+02  0.00000000000E+00 0.  1.
         11    1    1    2    0    0 -0.54983236374E+02 -0.23426764318E+02  0.65360893406E+02  0.88566449378E+02  0.00000000000E+00 0. -1.
</event>
<event>
 7    1  0.2626349E-009  0.9974075E+02  0.7561462E-02  0.1280842E+00
          2   -1    0    0  501    0  0.00000000000E+00  0.00000000000E+00  0.59193207675E+02  0.59193207675E+02  0.00000000000E+00 0. -1.
         -2   -1    0    0    0  501 -0.00000000000E+00 -0.00000000000E+00 -0.21483195527E+03  0.21483195527E+03  0.00000000000E+00 0.  1.
         25    2    1    2    0    0 -0.92473858207E+01  0.22121915924E+02 -0.11051641262E+03  0.16862969113E+03  0.12508877633E+03 0.  0.
          5    1    3    3  502    0 -0.30547410570E+01 -0.44472559418E+02 -0.86578467351E+02  0.97470217980E+02  0.41800000000E+01 0. -1.
         -5    1    3    3    0  502 -0.61926447637E+01  0.66594475342E+02 -0.23937945271E+02  0.71159473150E+02  0.41800000000E+01 0. -1.
        -11    1    1    2    0    0  0.70127985042E+01  0.32389065025E+02 -0.37928160564E+02  0.50366419763E+02  0.00000000000E+00 0.  1.
         11    1    1    2    0    0  0.22345873165E+01 -0.54510980949E+02 -0.71941744114E+01  0.55029052054E+02  0.00000000000E+00 0. -1.
</event>
<event>
 7    1  0.2626349E-009  0.7656287E+02  0.7561462E-02  0.1339099E+00
          2   -1    0    0  501    0  0.00000000000E+00  0.00000000000E+00  0.47452242503E+03  0.47452242503E+03  0.00000000000E+00 0. -1.
         -2   -1    0    0    0  501 -0.00000000000E+00 -0.00000000000E+00 -0.47024698618E+02  0.47024698618E+02  0.00000000000E+00 0.  1.
         25    2    1    2    0    0 -0.29963882529E+02  0.79317628796E+01  0.35950659652E+03  0.38191023509E+03  0.12509871145E+03 0.  0.
          5    1    3    3  502    0 -0.59305473670E+02  0.15670507812E+02  0.34017970427E+03  0.34569120269E+03  0.41800000000E+01 0. -1.
         -5    1    3    3    0  502  0.29341591141E+02 -0.77387449320E+01  0.19326892255E+02  0.36219032401E+02  0.41800000000E+01 0. -1.
        -11    1    1    2    0    0  0.40811446068E+02  0.81456667395E+01 -0.22349412964E+02  0.47237932604E+02  0.00000000000E+00 0.  1.
         11    1    1    2    0    0 -0.10847563540E+02 -0.16077429619E+02  0.90340542853E+02  0.92398955951E+02  0.00000000000E+00 0. -1.
</event>
<event>
 7    1  0.2626349E-009  0.1077810E+03  0.7561462E-02  0.1264735E+00
          2   -1    0    0  501    0  0.00000000000E+00  0.00000000000E+00  0.38807315659E+02  0.38807315659E+02  0.00000000000E+00 0. -1.
         -2   -1    0    0    0  501 -0.00000000000E+00 -0.00000000000E+00 -0.34389436659E+03  0.34389436659E+03  0.00000000000E+00 0.  1.
         25    2    1    2    0    0  0.28293872366E+02  0.23920714567E+02 -0.17379968827E+03  0.21731570804E+03  0.12508813500E+03 0.  0.
          5    1    3    3  502    0 -0.47228992904E+02  0.24131449646E+02 -0.88955039824E+02  0.10365025877E+03  0.41800000000E+01 0.  1.
         -5    1    3    3    0  502  0.75522865270E+02 -0.21073507927E+00 -0.84844648451E+02  0.11366544927E+03  0.41800000000E+01 0.  1.
        -11    1    1    2    0    0 -0.53114743977E+02 -0.30225652164E+02 -0.46433273266E+02  0.76751644560E+02  0.00000000000E+00 0. -1.
         11    1    1    2    0    0  0.24820871611E+02  0.63049375968E+01 -0.84854089388E+02  0.88634329645E+02  0.00000000000E+00 0.  1.
</event>
<event>
 7    1  0.2626349E-009  0.9062350E+02  0.7561462E-02  0.1301349E+00
          1   -1    0    0  501    0  0.00000000000E+00  0.00000000000E+00  0.33411009845E+03  0.33411009845E+03  0.00000000000E+00 0. -1.
         -1   -1    0    0    0  501 -0.00000000000E+00 -0.00000000000E+00 -0.48879660463E+02  0.48879660463E+02  0.00000000000E+00 0.  1.
         25    2    1    2    0    0 -0.61464628786E+02 -0.20277507719E+02  0.18689476197E+03  0.23402831504E+03  0.12510204745E+03 0.  0.
          5    1    3    3  502    0 -0.27512997414E+02  0.21522768513E+02  0.17528589451E+03  0.17878146382E+03  0.41800000000E+01 0.  1.
         -5    1    3    3    0  502 -0.33951631372E+02 -0.41800276232E+02  0.11608867465E+02  0.55246851220E+02  0.41800000000E+01 0.  1.
        -11    1    1    2    0    0  0.70551725524E+02  0.31792709562E+02  0.36776456501E+02  0.85678644414E+02  0.00000000000E+00 0.  1.
         11    1    1    2    0    0 -0.90870967380E+01 -0.11515201844E+02  0.61559219518E+02  0.63282799466E+02  0.00000000000E+00 0. -1.
</event>
<event>
 7    1  0.2626349E-009  0.1057466E+03  0.7561462E-02  0.1268656E+00
         -1   -1    0    0    0  501 -0.00000000000E+00  0.00000000000E+00  0.12485009739E+03  0.12485009739E+03  0.00000000000E+00 0.  1.
          1   -1    0    0  501    0  0.00000000000E+00 -0.00000000000E+00 -0.11541571211E+03  0.11541571211E+03  0.00000000000E+00 0. -1.
         25    2    1    2    0    0 -0.36846493775E+02 -0.33225176172E+01 -0.33033746501E+02  0.13455739618E+03  0.12508301736E+03 0.  0.
          5    1    3    3  502    0  0.34508152418E+02  0.19561515744E+02  0.18040066326E+02  0.43776499112E+02  0.41800000000E+01 0. -1.
         -5    1    3    3    0  502 -0.71354646193E+02 -0.22884033361E+02 -0.51073812827E+02  0.90780897070E+02  0.41800000000E+01 0. -1.
        -11    1    1    2    0    0  0.44339812582E+02  0.39638584874E+02  0.22464492194E+02  0.63575858627E+02  0.00000000000E+00 0.  1.
         11    1    1    2    0    0 -0.74933188071E+01 -0.36316067257E+02  0.20003639591E+02  0.42132554689E+02  0.00000000000E+00 0. -1.
</event>
<event>
 7    1  0.2626349E-009  0.1037994E+03  0.7561462E-02  0.1272503E+00
         -1   -1    0    0    0  501 -0.00000000000E+00  0.00000000000E+00  0.22766335653E+03  0.22766335653E+03  0.00000000000E+00 0.  1.
          1   -1    0    0  501    0  0.00000000000E+00 -0.00000000000E+00 -0.87336400001E+02  0.87336400001E+02  0.00000000000E+00 0. -1.
         25    2    1    2    0    0  0.21947643637E+02 -0.34391777009E+02  0.16546224972E+03  0.21139846830E+03  0.12508822059E+03 0.  0.
          5    1    3    3  502    0 -0.46340186981E+01 -0.71038872595E+02  0.14490460095E+03  0.16150173784E+03  0.41800000000E+01 0.  1.
         -5    1    3    3    0  502  0.26581662336E+02  0.36647095586E+02  0.20557648768E+02  0.49896730457E+02  0.41800000000E+01 0.  1.
        -11    1    1    2    0    0 -0.49474840497E+02  0.37292228477E+01  0.85901613845E+01  0.50353329760E+02  0.00000000000E+00 0.  1.
         11    1    1    2    0    0  0.27527196860E+02  0.30662554161E+02 -0.33725454578E+02  0.53247958469E+02  0.00000000000E+00 0. -1.
</event>
<event>
 7    1  0.2626349E-009  0.7247589E+02  0.7561462E-02  0.1351870E+00
         -2   -1    0    0    0  501 -0.00000000000E+00  0.00000000000E+00  0.10747642751E+03  0.10747642751E+03  0.00000000000E+00 0.  1.
          2   -1    0    0  501    0  0.00000000000E+00 -0.00000000000E+00 -0.14630631414E+03  0.14630631414E+03  0.00000000000E+00 0. -1.
         25    2    1    2    0    0  0.20237205795E+02  0.53366868668E+02  0.69081003357E+00  0.13749692306E+03  0.12508940588E+03 0.  0.
          5    1    3    3  502    0 -0.42368069424E+01  0.57569140975E+02 -0.52821042231E+02  0.78356183087E+02  0.41800000000E+01 0. -1.
         -5    1    3    3    0  502  0.24474012737E+02 -0.42022723073E+01  0.53511852265E+02  0.59140739975E+02  0.41800000000E+01 0. -1.
        -11    1    1    2    0    0 -0.20854664342E+02 -0.21258102376E+02  0.28402938330E+02  0.41152774478E+02  0.00000000000E+00 0.  1.
         11    1    1    2    0    0  0.61745854741E+00 -0.32108766291E+02 -0.67923634984E+02  0.75133044110E+02  0.00000000000E+00 0. -1.
</event>
<event>
 7    1  0.2626349E-009  0.1426238E+03  0.7561462E-02  0.1209841E+00
         -2   -1    0    0    0  501 -0.00000000000E+00  0.00000000000E+00  0.86499789773E+02  0.86499789773E+02  0.00000000000E+00 0.  1.
          2   -1    0    0  501    0  0.00000000000E+00 -0.00000000000E+00 -0.27884259603E+03  0.27884259603E+03  0.00000000000E+00 0. -1.
         25    2    1    2    0    0  0.10788608626E+03 -0.21605057834E+02 -0.10271574435E+03  0.19571402056E+03  0.12508903859E+03 0.  0.
          5    1    3    3  502    0  0.85251653050E+02 -0.71589186349E+02 -0.72790935525E+02  0.13307459804E+03  0.41800000000E+01 0. -1.
         -5    1    3    3    0  502  0.22634433213E+02  0.49984128516E+02 -0.29924808828E+02  0.62639422521E+02  0.41800000000E+01 0. -1.
        -11    1    1    2    0    0 -0.37526228031E+02  0.29884042086E+02 -0.86261516522E+02  0.98703206606E+02  0.00000000000E+00 0. -1.
         11    1    1    2    0    0 -0.70359858233E+02 -0.82789842523E+01 -0.33655453771E+01  0.70925158628E+02  0.00000000000E+00 0.  1.
</event>
<event>
 7    1  0.2626349E-009  0.2163093E+03  0.7561462E-02  0.1136665E+00
         -2   -1    0    0    0  501 -0.00000000000E+00  0.00000000000E+00  0.65765906987E+02  0.65765906987E+02  0.00000000000E+00 0.  1.
          2   -1    0    0  501    0  0.00000000000E+00 -0.00000000000E+00 -0.95594379077E+03  0.95594379077E+03  0.00000000000E+00 0. -1.
         25    2    1    2    0    0  0.20724085384E+03 -0.15663527245E+02 -0.27769132944E+03  0.36872044416E+03  0.12509266129E+03 0.  0.
          5    1    3    3  502    0  0.11976684852E+03  0.27700134221E+02 -0.75954401604E+02  0.14456119453E+03  0.41800000000E+01 0. -1.
         -5    1    3    3    0  502  0.87474005319E+02 -0.43363661466E+02 -0.20173692783E+03  0.22415924963E+03  0.41800000000E+01 0. -1.
        -11    1    1    2    0    0 -0.70107349351E+02 -0.14245167359E+02 -0.32863993625E+03  0.33633639845E+03  0.00000000000E+00 0. -1.
         11    1    1    2    0    0 -0.13713350449E+03  0.29908694604E+02 -0.28384661810E+03  0.31665285515E+03  0.00000000000E+00 0.  1.
</event>
<event>
 7    1  0.2626349E-009  0.1929213E+03  0.7561462E-02  0.1155853E+00
         -1   -1    0    0    0  501 -0.00000000000E+00  0.00000000000E+00  0.71286373376E+02  0.71286373376E+02  0.00000000000E+00 0.  1.
          1   -1    0    0  501    0  0.00000000000E+00 -0.00000000000E+00 -0.62760327691E+03  0.62760327691E+03  0.00000000000E+00 0. -1.
         25    2    1    2    0    0 -0.17475564201E+03 -0.97766260143E+00 -0.20817274230E+03  0.29920649499E+03  0.12509254881E+03 0.  0.
          5    1    3    3  502    0  0.11106100357E+02  0.11276949103E+02  0.39903161761E+01  0.16849631135E+02  0.41800000000E+01 0.  1.
         -5    1    3    3    0  502 -0.18586174237E+03 -0.12254611704E+02 -0.21216305848E+03  0.28235686386E+03  0.41800000000E+01 0.  1.
        -11    1    1    2    0    0  0.49066901237E+02  0.25198189370E+02 -0.47010591318E+02  0.72474169472E+02  0.00000000000E+00 0.  1.
         11    1    1    2    0    0  0.12568874077E+03 -0.24220526769E+02 -0.30113356991E+03  0.32720898582E+03  0.00000000000E+00 0. -1.
</event>
<event>
 7    1  0.2626349E-009  0.1262792E+03  0.7561462E-02  0.1233083E+00
          1   -1    0    0  501    0  0.00000000000E+00  0.00000000000E+00  0.23958198251E+03  0.23958198251E+03  0.00000000000E+00 0. -1.
         -1   -1    0    0    0  501 -0.00000000000E+00 -0.00000000000E+00 -0.85246376065E+02  0.85246376065E+02  0.00000000000E+00 0.  1.
         25    2    1    2    0    0 -0.20092400913E+02  0.84901508020E+02  0.47229214043E+02  0.15965260423E+03  0.12508550972E+03 0.  0.
          5    1    3    3  502    0  0.28821272447E+02  0.83745071577E+02 -0.39148131418E+01  0.88750779832E+02  0.41800000000E+01 0. -1.
         -5    1    3    3    0  502 -0.48913673359E+02  0.11564364428E+01  0.51144027185E+02  0.70901824401E+02  0.41800000000E+01 0. -1.
        -11    1    1    2    0    0  0.43142628324E+02 -0.23336143876E+02  0.13648739155E+02  0.50913162053E+02  0.00000000000E+00 0.  1.
         11    1    1    2    0    0 -0.23050227411E+02 -0.61565364143E+02  0.93457653243E+02  0.11426259228E+03  0.00000000000E+00 0. -1.
</event>
<event>
 7    1  0.2626349E-009  0.1042756E+03  0.7561462E-02  0.1271553E+00
          3   -1    0    0  501    0  0.00000000000E+00  0.00000000000E+00  0.43032518867E+02  0.43032518867E+02  0.00000000000E+00 0. -1.
         -3   -1    0    0    0  501 -0.00000000000E+00 -0.00000000000E+00 -0.41925951067E+03  0.41925951067E+03  0.00000000000E+00 0.  1.
         25    2    1    2    0    0  0.40449565390E+02 -0.69038087271E+01 -0.31981444949E+03  0.34585051156E+03  0.12508982502E+03 0.  0.
          5    1    3    3  502    0  0.36107661555E+02  0.56912415747E+02 -0.16696949675E+03  0.18010849934E+03  0.41800000000E+01 0. -1.
         -5    1    3    3    0  502  0.43419038350E+01 -0.63816224474E+02 -0.15284495274E+03  0.16574201222E+03  0.41800000000E+01 0. -1.
        -11    1    1    2    0    0  0.12073236128E+02  0.19476209865E+02  0.14641125988E+02  0.27192799626E+02  0.00000000000E+00 0. -1.
         11    1    1    2    0    0 -0.52522801518E+02 -0.12572401138E+02 -0.71053668302E+02  0.89248718360E+02  0.00000000000E+00 0.  1.
</event>
<event>
 7    1  0.2626349E-009  0.1296523E+03  0.7561462E-02  0.1227973E+00
         -1   -1    0    0    0  501 -0.00000000000E+00  0.00000000000E+00  0.44014920684E+03  0.44014920684E+03  0.00000000000E+00 0.  1.
          1   -1    0    0  501    0  0.00000000000E+00 -0.00000000000E+00 -0.59471623196E+02  0.59471623196E+02  0.00000000000E+00 0. -1.
         25    2    1    2    0    0  0.88580477951E+02  0.30444020944E+02  0.31809997869E+03  0.35441237147E+03  0.12508874099E+03 0.  0.
          5    1    3    3  502    0  0.10922619147E+03  0.27520098104E+02  0.31280884255E+03  0.33249746026E+03  0.41800000000E+01 0.  1.
         -5    1    3    3    0  502 -0.20645713521E+02  0.29239228399E+01  0.52911361370E+01  0.21914911206E+02  0.41800000000E+01 0.  1.
        -11    1    1    2    0    0  0.16492774086E+02 -0.42631186955E+01  0.25665368486E+02  0.30804170457E+02  0.00000000000E+00 0.  1.
         11    1    1    2    0    0 -0.10507325204E+03 -0.26180902249E+02  0.36912236465E+02  0.11440428811E+03  0.00000000000E+00 0. -1.
</event>
<event>
 7    1  0.2626349E-009  0.4143614E+02  0.7561462E-02  0.1497901E+00
          1   -1    0    0  501    0  0.00000000000E+00  0.00000000000E+00  0.12234796507E+03  0.12234796507E+03  0.00000000000E+00 0. -1.
         -1   -1    0    0    0  501 -0.00000000000E+00 -0.00000000000E+00 -0.72313747775E+02  0.72313747775E+02  0.00000000000E+00 0.  1.
         25    2    1    2    0    0  0.22402935380E+02 -0.15892035008E+02 -0.83425946465E+01  0.12834516597E+03  0.12509370269E+03 0.  0.
          5    1    3    3  502    0  0.18482999239E+02 -0.30573826783E+02 -0.62406588997E+02  0.72030791300E+02  0.41800000000E+01 0.  1.
         -5    1    3    3    0  502  0.39199361411E+01  0.14681791776E+02  0.54063994351E+02  0.56314374668E+02  0.41800000000E+01 0.  1.
        -11    1    1    2    0    0 -0.39452949275E+01  0.11514964134E+02  0.27575595050E+02  0.30142547892E+02  0.00000000000E+00 0.  1.
         11    1    1    2    0    0 -0.18457640453E+02  0.43770708737E+01  0.30801216890E+02  0.36173998983E+02  0.00000000000E+00 0. -1.
</event>
<event>
 7    1  0.2626349E-009  0.1157731E+03  0.7561462E-02  0.1250238E+00
         -2   -1    0    0    0  501 -0.00000000000E+00  0.00000000000E+00  0.55041787391E+03  0.55041787391E+03  0.00000000000E+00 0.  1.
          2   -1    0    0  501    0  0.00000000000E+00 -0.00000000000E+00 -0.48261494789E+02  0.48261494789E+02  0.00000000000E+00 0. -1.
         25    2    1    2    0    0  0.60743798825E+02  0.18396148987E+02  0.46637241184E+03  0.48701278735E+03  0.12509996451E+03 0.  0.
          5    1    3    3  502    0  0.57623074452E+02  0.60560280353E+02  0.19312343805E+03  0.21048064279E+03  0.41800000000E+01 0. -1.
         -5    1    3    3    0  502  0.31207243726E+01 -0.42164131366E+02  0.27324897380E+03  0.27653214456E+03  0.41800000000E+01 0. -1.
        -11    1    1    2    0    0 -0.82219951351E+02 -0.15875618477E+02  0.24355166470E+02  0.87208541990E+02  0.00000000000E+00 0. -1.
         11    1    1    2    0    0  0.21476152526E+02 -0.25205305109E+01  0.11428800809E+02  0.24458039360E+02  0.00000000000E+00 0.  1.
</event>
<event>
 7    1  0.2626349E-009  0.8723728E+02  0.7561462E-02  0.1309683E+00
          3   -1    0    0  501    0  0.00000000000E+00  0.00000000000E+00  0.37452058850E+02  0.37452058850E+02  0.00000000000E+00 0. -1.
         -3   -1    0    0    0  501 -0.00000000000E+00 -0.00000000000E+00 -0.45168318034E+03  0.45168318034E+03  0.00000000000E+00 0.  1.
         25    2    1    2    0    0  0.46513202720E+02  0.13807355697E+02 -0.32152241631E+03  0.34839552877E+03  0.12509460093E+03 0.  0.
          5    1    3    3  502    0 -0.35044378809E+02  0.23987909587E+02 -0.17712303487E+03  0.18219102660E+03  0.41800000000E+01 0. -1.
         -5    1    3    3    0  502  0.81557581529E+02 -0.10180553890E+02 -0.14439938144E+03  0.16620450217E+03  0.41800000000E+01 0. -1.
        -11    1    1    2    0    0 -0.31057425047E+02 -0.42868036508E+01 -0.11077662891E+03  0.11512776315E+03  0.00000000000E+00 0.  1.
         11    1    1    2    0    0 -0.15455777672E+02 -0.95205520462E+01  0.18067923728E+02  0.25611947262E+02  0.00000000000E+00 0. -1.
</event>
<event>
 7    1  0.2626349E-009  0.2027441E+03  0.7561462E-02  0.1147444E+00
         -1   -1    0    0    0  501 -0.00000000000E+00  0.00000000000E+00  0.39907706053E+02  0.39907706053E+02  0.00000000000E+00 0.  1.
          1   -1    0    0  501    0  0.00000000000E+00 -0.00000000000E+00 -0.13072469540E+04  0.13072469540E+04  0.00000000000E+00 0. -1.
         25    2    1    2    0    0 -0.18224773100E+03 -0.42719216002E+02 -0.86347176460E+03  0.89233967783E+03  0.12508974979E+03 0.  0.
          5    1    3    3  502    0 -0.15817510167E+02 -0.28024018057E+02 -0.36823531770E+03  0.36966236057E+03  0.41800000000E+01 0. -1.
         -5    1    3    3    0  502 -0.16643022083E+03 -0.14695197945E+02 -0.49523644689E+03  0.52267731726E+03  0.41800000000E+01 0. -1.
        -11    1    1    2    0    0  0.89581716541E+02  0.64904632281E+02 -0.25634706232E+03  0.27919762103E+03  0.00000000000E+00 0.  1.
         11    1    1    2    0    0  0.92666014461E+02 -0.22185416280E+02 -0.14752042105E+03  0.17561736121E+03  0.00000000000E+00 0. -1.
</event>
<event>
 7    1  0.2626349E-009  0.1675056E+03  0.7561462E-02  0.1180474E+00
         -1   -1    0    0    0  501 -0.00000000000E+00  0.00000000000E+00  0.52112847470E+02  0.52112847470E+02  0.00000000000E+00 0.  1.
          1   -1    0    0  501    0  0.00000000000E+00 -0.00000000000E+00 -0.65682259642E+03  0.65682259642E+03  0.00000000000E+00 0. -1.
         25    2    1    2    0    0  0.31154931519E+02 -0.13750212482E+03 -0.41262673086E+03  0.45363557219E+03  0.12508776618E+03 0.  0.
          5    1    3    3  502    0  0.22194238082E+02  0.10455375622E+02 -0.14987866359E+03  0.15193085692E+03  0.41800000000E+01 0. -1.
         -5    1    3    3    0  502  0.89606934363E+01 -0.14795750044E+03 -0.26274806727E+03  0.30170471527E+03  0.41800000000E+01 0. -1.
        -11    1    1    2    0    0 -0.58019517820E+02  0.85870435345E+02 -0.15442836472E+03  0.18597880510E+03  0.00000000000E+00 0. -1.
         11    1    1    2    0    0  0.26864586302E+02  0.51631689474E+02 -0.37654653371E+02  0.69321066607E+02  0.00000000000E+00 0.  1.
</event>
<event>
 7    1  0.2626349E-009  0.5687014E+02  0.7561462E-02  0.1411456E+00
          2   -1    0    0  501    0  0.00000000000E+00  0.00000000000E+00  0.55489275624E+03  0.55489275624E+03  0.00000000000E+00 0. -1.
         -2   -1    0    0    0  501 -0.00000000000E+00 -0.00000000000E+00 -0.25942748663E+02  0.25942748663E+02  0.00000000000E+00 0.  1.
         25    2    1    2    0    0 -0.80939326594E+01  0.38118683925E+02  0.36040269408E+03  0.38347732416E+03  0.12508481297E+03 0.  0.
          5    1    3    3  502    0  0.31042857224E+01 -0.12127862151E+02 -0.52432593944E+01  0.14201612559E+02  0.41800000000E+01 0.  1.
         -5    1    3    3    0  502 -0.11198218382E+02  0.50246546076E+02  0.36564595348E+03  0.36927571160E+03  0.41800000000E+01 0.  1.
        -11    1    1    2    0    0 -0.60344816166E+01 -0.33485079794E+02  0.17700954127E+03  0.18024994657E+03  0.00000000000E+00 0. -1.
         11    1    1    2    0    0  0.14128414276E+02 -0.46336041308E+01 -0.84622277814E+01  0.17108234164E+02  0.00000000000E+00 0.  1.
</event>
<event>
 7    1  0.2626349E-009  0.1012084E+03  0.7561462E-02  0.1277775E+00
          1   -1    0    0  501    0  0.00000000000E+00  0.00000000000E+00  0.49760583587E+03  0.49760583587E+03  0.00000000000E+00 0. -1.
         -1   -1    0    0    0  501 -0.00000000000E+00 -0.00000000000E+00 -0.29670480762E+02  0.29670480762E+02  0.00000000000E+00 0.  1.
         25    2    1    2    0    0 -0.16610766428E+02 -0.52157461388E+02  0.27815587419E+03  0.30986263162E+03  0.12509133378E+03 0.  0.
          5    1    3    3  502    0 -0.13954999404E+02  0.20911316302E+02  0.36380152563E+01  0.25743595570E+02  0.41800000000E+01 0.  1.
         -5    1    3    3    0  502 -0.26557670236E+01 -0.73068777689E+02  0.27451785894E+03  0.28411903605E+03  0.41800000000E+01 0.  1.
        -11    1    1    2    0    0 -0.32438826301E+02  0.42893157829E+02  0.12116121423E+03  0.13255994973E+03  0.00000000000E+00 0.  1.
         11    1    1    2    0    0  0.49049592729E+02  0.92643035582E+01  0.68618266685E+02  0.84853735275E+02  0.00000000000E+00 0. -1.
</event>
<event>
 7    1  0.2626349E-009  0.3281746E+03  0.7561462E-02  0.1071947E+00
         -2   -1    0    0    0  501 -0.00000000000E+00  0.00000000000E+00  0.10637393907E+03  0.10637393907E+03  0.00000000000E+00 0.  1.
          2   -1    0    0  501    0  0.00000000000E+00 -0.00000000000E+00 -0.10738561619E+04  0.10738561619E+04  0.00000000000E+00 0. -1.
         25    2    1    2    0    0  0.23131248984E+03  0.21365250796E+03 -0.58987314975E+03  0.68025763369E+03  0.12508898145E+03 0.  0.
          5    1    3    3  502    0  0.17005401267E+03  0.76880360121E+02 -0.28800941179E+03  0.34321400128E+03  0.41800000000E+01 0. -1.
         -5    1    3    3    0  502  0.61258477178E+02  0.13677214784E+03 -0.30186373796E+03  0.33704363241E+03  0.41800000000E+01 0. -1.
        -11    1    1    2    0    0 -0.65657781026E+02 -0.97065156108E+02 -0.19360937283E+03  0.22631212514E+03  0.00000000000E+00 0.  1.
         11    1    1    2    0    0 -0.16565470882E+03 -0.11658735185E+03 -0.18399970025E+03  0.27366034213E+03  0.00000000000E+00 0. -1.
</event>
<event>
 7    1  0.2626349E-009  0.9041521E+02  0.7561462E-02  0.1301849E+00
          1   -1    0    0  501    0  0.00000000000E+00  0.00000000000E+00  0.33200595263E+03  0.33200595263E+03  0.00000000000E+00 0. -1.
         -1   -1    0    0    0  501 -0.00000000000E+00 -0.00000000000E+00 -0.37159347491E+02  0.37159347491E+02  0.00000000000E+00 0.  1.
         25    2    1    2    0    0 -0.29314114234E+02  0.35171948522E+01  0.13137737845E+03  0.18379211632E+03  0.12509132064E+03 0.  0.
          5    1    3    3  502    0 -0.24155632295E+02  0.53941527151E+02  0.22062686969E+02  0.63225133288E+02  0.41800000000E+01 0. -1.
         -5    1    3    3    0  502 -0.51584819389E+01 -0.50424332299E+02  0.10931469148E+03  0.12056698303E+03  0.41800000000E+01 0. -1.
        -11    1    1    2    0    0  0.42866006661E+02 -0.21697549782E+02  0.48792811821E+02  0.68476395049E+02  0.00000000000E+00 0.  1.
         11    1    1    2    0    0 -0.13551892427E+02  0.18180354929E+02  0.11467641487E+03  0.11689678876E+03  0.00000000000E+00 0. -1.
</event>
<event>
 7    1  0.2626349E-009  0.1382070E+03  0.7561462E-02  0.1215762E+00
         -2   -1    0    0    0  501 -0.00000000000E+00  0.00000000000E+00  0.12440942002E+03  0.12440942002E+03  0.00000000000E+00 0.  1.
          2   -1    0    0  501    0  0.00000000000E+00 -0.00000000000E+00 -0.20289355488E+03  0.20289355488E+03  0.00000000000E+00 0. -1.
         25    2    1    2    0    0 -0.97806711688E+02  0.10741673475E+02  0.20079958771E+02  0.16042709208E+03  0.12510839591E+03 0.  0.
          5    1    3    3  502    0  0.16446285275E+02  0.26617154553E+02 -0.20994455393E+02  0.37910325416E+02  0.41800000000E+01 0. -1.
         -5    1    3    3    0  502 -0.11425299696E+03 -0.15875481078E+02  0.41074414165E+02  0.12251676666E+03  0.41800000000E+01 0. -1.
        -11    1    1    2    0    0  0.28198650846E+02 -0.44012191524E+02 -0.63175407611E+02  0.81996152587E+02  0.00000000000E+00 0. -1.
         11    1    1    2    0    0  0.69608060842E+02  0.33270518049E+02 -0.35388686022E+02  0.84879730229E+02  0.00000000000E+00 0.  1.
</event>
<event>
 7    1  0.2626349E-009  0.9855950E+02  0.7561462E-02  0.1283355E+00
         -2   -1    0    0    0  501 -0.00000000000E+00  0.00000000000E+00  0.25108222735E+02  0.25108222735E+02  0.00000000000E+00 0.  1.
          2   -1    0    0  501    0  0.00000000000E+00 -0.00000000000E+00 -0.49299113677E+03  0.49299113677E+03  0.00000000000E+00 0. -1.
         25    2    1    2    0    0  0.24138311062E+02  0.20536568892E+00 -0.24248748715E+03  0.27391776201E+03  0.12509220074E+03 0.  0.
          5    1    3    3  502    0 -0.49784791534E+02 -0.22159111041E+01 -0.12938912302E+03  0.13871717012E+03  0.41800000000E+01 0. -1.
         -5    1    3    3    0  502  0.73923102596E+02  0.24212767930E+01 -0.11309836413E+03  0.13520059189E+03  0.41800000000E+01 0. -1.
        -11    1    1    2    0    0  0.33381987668E+01 -0.31332483632E+02 -0.27021859403E+02  0.41509625235E+02  0.00000000000E+00 0.  1.
         11    1    1    2    0    0 -0.27476509829E+02  0.31127117943E+02 -0.19837356749E+03  0.20267197226E+03  0.00000000000E+00 0. -1.
</event>
<event>
 7    1  0.3191357E-009  0.1093569E+03  0.7561462E-02  0.1261765E+00
         -4   -1    0    0    0  501 -0.00000000000E+00  0.00000000000E+00  0.67280328504E+03  0.67280328504E+03  0.00000000000E+00 0.  1.
          4   -1    0    0  501    0  0.00000000000E+00 -0.00000000000E+00 -0.24785961166E+02  0.24785961166E+02  0.00000000000E+00 0. -1.
         25    2    1    2    0    0 -0.37870955241E+02  0.33090065552E+02  0.48862864542E+03  0.50688758774E+03  0.12509161355E+03 0.  0.
          5    1    3    3  502    0 -0.67416158736E+02 -0.20177072576E+02  0.20564354915E+03  0.21739087935E+03  0.41800000000E+01 0.  1.
         -5    1    3    3    0  502  0.29545203495E+02  0.53267138128E+02  0.28298509627E+03  0.28949670839E+03  0.41800000000E+01 0.  1.
        -11    1    1    2    0    0  0.56361837324E+02 -0.94466650371E+01  0.45864491486E+02  0.73276515789E+02  0.00000000000E+00 0. -1.
         11    1    1    2    0    0 -0.18490882084E+02 -0.23643400515E+02  0.11352418696E+03  0.11742514268E+03  0.00000000000E+00 0.  1.
</event>
<event>
 7    1  0.2626349E-009  0.1198043E+03  0.7561462E-02  0.1243420E+00
          2   -1    0    0  501    0  0.00000000000E+00  0.00000000000E+00  0.62791143398E+03  0.62791143398E+03  0.00000000000E+00 0. -1.
         -2   -1    0    0    0  501 -0.00000000000E+00 -0.00000000000E+00 -0.26178840616E+02  0.26178840616E+02  0.00000000000E+00 0.  1.
         25    2    1    2    0    0 -0.44797895651E+02  0.34472393759E+02  0.32020600727E+03  0.34838848575E+03  0.12508977784E+03 0.  0.
          5    1    3    3  502    0 -0.26267117471E+02 -0.46363988195E+02  0.10769756684E+03  0.12023235490E+03  0.41800000000E+01 0. -1.
         -5    1    3    3    0  502 -0.18530778180E+02  0.80836381954E+02  0.21250844043E+03  0.22815613084E+03  0.41800000000E+01 0. -1.
        -11    1    1    2    0    0 -0.26036222150E+02 -0.56313295246E+01  0.15935284665E+03  0.16156400116E+03  0.00000000000E+00 0. -1.
         11    1    1    2    0    0  0.70834117800E+02 -0.28841064234E+02  0.12217373944E+03  0.14413778769E+03  0.00000000000E+00 0.  1.
</event>
<event>
 7    1  0.2626349E-009  0.7390914E+02  0.7561462E-02  0.1347283E+00
          2   -1    0    0  501    0  0.00000000000E+00  0.00000000000E+00  0.21858341332E+03  0.21858341332E+03  0.00000000000E+00 0. -1.
         -2   -1    0    0    0  501 -0.00000000000E+00 -0.00000000000E+00 -0.67203789433E+02  0.67203789433E+02  0.00000000000E+00 0.  1.
         25    2    1    2    0    0  0.13048790410E+02  0.44841221581E+02  0.51132764631E+02  0.14298022481E+03  0.12509108276E+03 0.  0.
          5    1    3    3  502    0  0.25857076170E+02  0.29642219639E+02 -0.36015653076E+02  0.53496254445E+02  0.41800000000E+01 0. -1.
         -5    1    3    3    0  502 -0.12808285761E+02  0.15199001942E+02  0.87148417707E+02  0.89483970369E+02  0.41800000000E+01 0. -1.
        -11    1    1    2    0    0 -0.32378703686E+02  0.65587255338E+01  0.57793724890E+01  0.33538015436E+02  0.00000000000E+00 0.  1.
         11    1    1    2    0    0  0.19329913277E+02 -0.51399947115E+02  0.94467486771E+02  0.10926896251E+03  0.00000000000E+00 0. -1.
</event>
<event>
 7    1  0.2626349E-009  0.1774529E+03  0.7561462E-02  0.1170291E+00
         -1   -1    0    0    0  501 -0.00000000000E+00  0.00000000000E+00  0.52263504921E+02  0.52263504921E+02  0.00000000000E+00 0.  1.
          1   -1    0    0  501    0  0.00000000000E+00 -0.00000000000E+00 -0.83479695717E+03  0.83479695717E+03  0.00000000000E+00 0. -1.
         25    2    1    2    0    0 -0.54621098714E+02  0.14143702429E+03 -0.20933854139E+03  0.28715530118E+03  0.12509055048E+03 0.  0.
          5    1    3    3  502    0 -0.58670746698E+02  0.40626794183E+01 -0.58627504102E+02  0.83146969393E+02  0.41800000000E+01 0.  1.
         -5    1    3    3    0  502  0.40496479838E+01  0.13737434488E+03 -0.15071103729E+03  0.20400833179E+03  0.41800000000E+01 0.  1.
        -11    1    1    2    0    0  0.33051541535E+02 -0.29028411868E+02 -0.61795747080E+02  0.75853592207E+02  0.00000000000E+00 0.  1.
         11    1    1    2    0    0  0.21569557179E+02 -0.11240861243E+03 -0.51139916379E+03  0.52405156871E+03  0.00000000000E+00 0. -1.
</event>
<event>
 7    1  0.2626349E-009  0.8323043E+02  0.7561462E-02  0.1320126E+00
          1   -1    0    0  501    0  0.00000000000E+00  0.00000000000E+00  0.49529927727E+03  0.49529927727E+03  0.00000000000E+00 0. -1.
         -1   -1    0    0    0  501 -0.00000000000E+00 -0.00000000000E+00 -0.55990139306E+02  0.55990139306E+02  0.00000000000E+00 0.  1.
         25    2    1    2    0    0 -0.52573538379E+02  0.99891998129E+01  0.41284740775E+03  0.43468889486E+03  0.12509073577E+03 0.  0.
          5    1    3    3  502    0 -0.72720629333E+02  0.47480947021E+01  0.40580571911E+03  0.41231855209E+03  0.41800000000E+01 0. -1.
         -5    1    3    3    0  502  0.20147090954E+02  0.52411051108E+01  0.70416886412E+01  0.22370342769E+02  0.41800000000E+01 0. -1.
        -11    1    1    2    0    0  0.79241555647E+01 -0.24129605531E+02 -0.32534696092E+02  0.41273920995E+02  0.00000000000E+00 0.  1.
         11    1    1    2    0    0  0.44649382814E+02  0.14140405718E+02  0.58996426301E+02  0.75326600719E+02  0.00000000000E+00 0. -1.
</event>
<event>
 7    1  0.2626349E-009  0.7916454E+02  0.7561462E-02  0.1331439E+00
          1   -1    0    0  501    0  0.00000000000E+00  0.00000000000E+00  0.14834426270E+02  0.14834426270E+02  0.00000000000E+00 0. -1.
         -1   -1    0    0    0  501 -0.00000000000E+00 -0.00000000000E+00 -0.10054214425E+04  0.10054214425E+04  0.00000000000E+00 0.  1.
         25    2    1    2    0    0 -0.42799357664E+02 -0.28364580772E+02 -0.46246382027E+03  0.48182673431E+03  0.12509149602E+03 0.  0.
          5    1    3    3  502    0 -0.33304502233E+02 -0.27332904410E+02 -0.46801703563E+03  0.47001456954E+03  0.41800000000E+01 0.  1.
         -5    1    3    3    0  502 -0.94948554306E+01 -0.10316763621E+01  0.55532153626E+01  0.11812164773E+02  0.41800000000E+01 0.  1.
        -11    1    1    2    0    0  0.53444221654E+02  0.54539641149E+02 -0.40062197704E+03  0.40783431166E+03  0.00000000000E+00 0. -1.
         11    1    1    2    0    0 -0.10644863990E+02 -0.26175060377E+02 -0.12750121896E+03  0.13059482283E+03  0.00000000000E+00 0.  1.
</event>
<event>
 7    1  0.2626349E-009  0.1073447E+03  0.7561462E-02  0.1265567E+00
          2   -1    0    0  501    0  0.00000000000E+00  0.00000000000E+00  0.38320076736E+03  0.38320076736E+03  0.00000000000E+00 0. -1.
         -2   -1    0    0    0  501 -0.00000000000E+00 -0.00000000000E+00 -0.66120023495E+02  0.66120023495E+02  0.00000000000E+00 0.  1.
         25    2    1    2    0    0  0.90298219903E+02 -0.88053409963E+01  0.27189433669E+03  0.31274065370E+03  0.12509549794E+03 0.  0.
          5    1    3    3  502    0  0.90391024950E+02 -0.53733736184E+01  0.28473037580E+03  0.29881142856E+03  0.41800000000E+01 0. -1.
         -5    1    3    3    0  502 -0.92805046468E-01 -0.34319673779E+01 -0.12836039112E+02  0.13929225138E+02  0.41800000000E+01 0. -1.
        -11    1    1    2    0    0 -0.10429718311E+03  0.82585773368E+01  0.18229192916E+02  0.10619985865E+03  0.00000000000E+00 0.  1.
         11    1    1    2    0    0  0.13998963203E+02  0.54676365951E+00  0.26957214268E+02  0.30380278510E+02  0.00000000000E+00 0. -1.
</event>
<event>
 7    1  0.2626349E-009  0.1885493E+03  0.7561462E-02  0.1159776E+00
          2   -1    0    0  501    0  0.00000000000E+00  0.00000000000E+00  0.61196775006E+03  0.61196775006E+03  0.00000000000E+00 0. -1.
         -2   -1    0    0    0  501 -0.00000000000E+00 -0.00000000000E+00 -0.94263793910E+02  0.94263793910E+02  0.00000000000E+00 0.  1.
         25    2    1    2    0    0 -0.17279232752E+03 -0.12120790743E+01  0.81285155714E+02  0.22828376588E+03  0.12509014206E+03 0.  0.
          5    1    3    3  502    0 -0.31894662255E+02  0.42496833425E+02 -0.10729554142E+02  0.54367693197E+02  0.41800000000E+01 0. -1.
         -5    1    3    3    0  502 -0.14089766526E+03 -0.43708912499E+02  0.92014709856E+02  0.17391607268E+03  0.41800000000E+01 0. -1.
        -11    1    1    2    0    0  0.58151713485E+02 -0.15954310853E+02  0.25965666402E+03  0.26656658640E+03  0.00000000000E+00 0. -1.
         11    1    1    2    0    0  0.11464061403E+03  0.17166389927E+02  0.17676213642E+03  0.21138119169E+03  0.00000000000E+00 0.  1.
</event>
<event>
 7    1  0.2626349E-009  0.8320075E+02  0.7561462E-02  0.1320206E+00
          2   -1    0    0  501    0  0.00000000000E+00  0.00000000000E+00  0.74819445585E+02  0.74819445585E+02  0.00000000000E+00 0. -1.
         -2   -1    0    0    0  501 -0.00000000000E+00 -0.00000000000E+00 -0.28143788411E+03  0.28143788411E+03  0.00000000000E+00 0.  1.
         25    2    1    2    0    0  0.24670477836E+02 -0.57482095988E+02 -0.27301602433E+02  0.14249875789E+03  0.12509074573E+03 0.  0.
          5    1    3    3  502    0  0.52711157095E+02 -0.26212987718E+02 -0.63647055756E+02  0.86798657327E+02  0.41800000000E+01 0. -1.
         -5    1    3    3    0  502 -0.28040679259E+02 -0.31269108270E+02  0.36345453323E+02  0.55700100561E+02  0.41800000000E+01 0. -1.
        -11    1    1    2    0    0 -0.25418952870E+02  0.38228371432E+02 -0.18734277458E+03  0.19288557938E+03  0.00000000000E+00 0.  1.
         11    1    1    2    0    0  0.74847503415E+00  0.19253724556E+02  0.80259384849E+01  0.20872992424E+02  0.00000000000E+00 0. -1.
</event>
<event>
 7    1  0.2626349E-009  0.2924081E+03  0.7561462E-02  0.1089099E+00
          1   -1    0    0  501    0  0.00000000000E+00  0.00000000000E+00  0.95642370489E+03  0.95642370489E+03  0.00000000000E+00 0. -1.
         -1   -1    0    0    0  501 -0.00000000000E+00 -0.00000000000E+00 -0.99645794269E+02  0.99645794269E+02  0.00000000000E+00 0.  1.
         25    2    1    2    0    0  0.22964046828E+03 -0.17255012442E+03  0.48522618285E+03  0.57758168916E+03  0.12509144263E+03 0.  0.
          5    1    3    3  502    0  0.18619758255E+03 -0.10259392133E+03  0.24930457938E+03  0.32766644341E+03  0.41800000000E+01 0.  1.
         -5    1    3    3    0  502  0.43442885737E+02 -0.69956203095E+02  0.23592160347E+03  0.24991524575E+03  0.41800000000E+01 0.  1.
        -11    1    1    2    0    0 -0.16328360048E+03  0.10028778552E+03  0.30406903562E+03  0.35941223203E+03  0.00000000000E+00 0. -1.
         11    1    1    2    0    0 -0.66356867806E+02  0.72262338904E+02  0.67482692152E+02  0.11907557797E+03  0.00000000000E+00 0.  1.
</event>
<event>
 7    1  0.2626349E-009  0.1133672E+03  0.7561462E-02  0.1254458E+00
          2   -1    0    0  501    0  0.00000000000E+00  0.00000000000E+00  0.12389714560E+03  0.12389714560E+03  0.00000000000E+00 0. -1.
         -2   -1    0    0    0  501 -0.00000000000E+00 -0.00000000000E+00 -0.23420661471E+03  0.23420661471E+03  0.00000000000E+00 0.  1.
         25    2    1    2    0    0  0.23121753573E+02 -0.34874044524E+02  0.71977770586E+02  0.15025995948E+03  0.12508573658E+03 0.  0.
          5    1    3    3  502    0 -0.24195817575E+02  0.37682257578E+02  0.20695966999E+02  0.49509449343E+02  0.41800000000E+01 0. -1.
         -5    1    3    3    0  502  0.47317571147E+02 -0.72556302102E+02  0.51281803587E+02  0.10075051014E+03  0.41800000000E+01 0. -1.
        -11    1    1    2    0    0  0.18983789466E+02  0.47437912856E+02 -0.12916447105E+03  0.13890356518E+03  0.00000000000E+00 0.  1.
         11    1    1    2    0    0 -0.42105543039E+02 -0.12563868332E+02 -0.53122768655E+02  0.68940235651E+02  0.00000000000E+00 0. -1.
</event>
<event>
 7    1  0.2626349E-009  0.2146299E+03  0.7561462E-02  0.1137951E+00
         -2   -1    0    0    0  501 -0.00000000000E+00  0.00000000000E+00  0.44106663977E+02  0.44106663977E+02  0.00000000000E+00 0.  1.
          2   -1    0    0  501    0  0.00000000000E+00 -0.00000000000E+00 -0.13084304201E+04  0.13084304201E+04  0.00000000000E+00 0. -1.
         25    2    1    2    0    0 -0.18085716998E+03  0.10593683380E+03 -0.77452122684E+03  0.81207232920E+03  0.12508560402E+03 0.  0.
          5    1    3    3  502    0 -0.68998505005E+02  0.76800076210E+02 -0.54878437938E+03  0.55842708821E+03  0.41800000000E+01 0.  1.
         -5    1    3    3    0  502 -0.11185866498E+03  0.29136757590E+02 -0.22573684746E+03  0.25364524098E+03  0.41800000000E+01 0.  1.
        -11    1    1    2    0    0  0.12970827376E+03 -0.67051332638E+02 -0.42425360783E+03  0.44867721276E+03  0.00000000000E+00 0. -1.
         11    1    1    2    0    0  0.51148896217E+02 -0.38885501161E+02 -0.65548921449E+02  0.91787542117E+02  0.00000000000E+00 0.  1.
</event>
<event>
 7    1  0.2626349E-009  0.1161951E+03  0.7561462E-02  0.1249509E+00
         -2   -1    0    0    0  501 -0.00000000000E+00  0.00000000000E+00  0.64413933548E+02  0.64413933548E+02  0.00000000000E+00 0.  1.
          2   -1    0    0  501    0  0.00000000000E+00 -0.00000000000E+00 -0.49707794437E+03  0.49707794437E+03  0.00000000000E+00 0. -1.
         25    2    1    2    0    0  0.22236799093E+02 -0.10622505006E+03 -0.37214183699E+03  0.40732818776E+03  0.12509384163E+03 0.  0.
          5    1    3    3  502    0 -0.95655808825E+01 -0.50244933957E+02 -0.32078832061E+03  0.32486716172E+03  0.41800000000E+01 0. -1.
         -5    1    3    3    0  502  0.31802379975E+02 -0.55980116103E+02 -0.51353516383E+02  0.82461026041E+02  0.41800000000E+01 0. -1.
        -11    1    1    2    0    0  0.12831146583E+02  0.25742450285E+02  0.20003661836E+02  0.35035104626E+02  0.00000000000E+00 0.  1.
         11    1    1    2    0    0 -0.35067945676E+02  0.80482599775E+02 -0.80525835670E+02  0.11912858553E+03  0.00000000000E+00 0. -1.
</event>
<event>
 7    1  0.2626349E-009  0.9080964E+02  0.7561462E-02  0.1300903E+00
          2   -1    0    0  501    0  0.00000000000E+00  0.00000000000E+00  0.76422997314E+02  0.76422997314E+02  0.00000000000E+00 0. -1.
         -2   -1    0    0    0  501 -0.00000000000E+00 -0.00000000000E+00 -0.21175675093E+03  0.21175675093E+03  0.00000000000E+00 0.  1.
         25    2    1    2    0    0 -0.53605358209E+01  0.29218721502E+02 -0.14333651859E+03  0.19255116306E+03  0.12509246102E+03 0.  0.
          5    1    3    3  502    0  0.32991025828E+02 -0.22539028579E+02 -0.11543491546E+03  0.12222564257E+03  0.41800000000E+01 0.  1.
         -5    1    3    3    0  502 -0.38351561649E+02  0.51757750081E+02 -0.27901603126E+02  0.70325520484E+02  0.41800000000E+01 0.  1.
        -11    1    1    2    0    0  0.21133279122E+02  0.17591124500E+02 -0.24227811137E+02  0.36647646311E+02  0.00000000000E+00 0.  1.
         11    1    1    2    0    0 -0.15772743301E+02 -0.46809846002E+02  0.32230576112E+02  0.58980938874E+02  0.00000000000E+00 0. -1.
</event>
<event>
 7    1  0.2626349E-009  0.1157100E+03  0.7561462E-02  0.1250347E+00
          2   -1    0    0  501    0  0.00000000000E+00  0.00000000000E+00  0.38679489694E+03  0.38679489694E+03  0.00000000000E+00 0. -1.
         -2   -1    0    0    0  501 -0.00000000000E+00 -0.00000000000E+00 -0.63727032829E+02  0.63727032829E+02  0.00000000000E+00 0.  1.
         25    2    1    2    0    0  0.43650071405E+02 -0.55565422303E+02  0.33442879833E+02  0.14750776207E+03  0.12508904337E+03 0.  0.
          5    1    3    3  502    0  0.58598719103E+02 -0.88615282545E+02  0.17866514483E+02  0.10781077368E+03  0.41800000000E+01 0.  1.
         -5    1    3    3    0  502 -0.14948647698E+02  0.33049860242E+02  0.15576365350E+02  0.39696988394E+02  0.41800000000E+01 0.  1.
        -11    1    1    2    0    0 -0.11273940518E+02 -0.10251255714E+02  0.62913509280E+02  0.64732523729E+02  0.00000000000E+00 0. -1.
         11    1    1    2    0    0 -0.32376130888E+02  0.65816678017E+02  0.22671147500E+03  0.23828164397E+03  0.00000000000E+00 0.  1.
</event>
<event>
 7    1  0.2626349E-009  0.9046437E+02  0.7561462E-02  0.1301731E+00
          2   -1    0    0  501    0  0.00000000000E+00  0.00000000000E+00  0.15853663600E+03  0.15853663600E+03  0.00000000000E+00 0.  1.
         -2   -1    0    0    0  501 -0.00000000000E+00 -0.00000000000E+00 -0.88672468225E+02  0.88672468225E+02  0.00000000000E+00 0. -1.
         25    2    1    2    0    0 -0.59252028739E+01  0.35513068008E+02  0.36436185044E+01  0.13020313512E+03  0.12507315623E+03 0.  0.
          5    1    3    3  502    0 -0.65064600978E+02  0.21328369892E+02 -0.42700402982E+01  0.68731414265E+02  0.41800000000E+01 0.  1.
         -5    1    3    3    0  502  0.59139398104E+02  0.14184698117E+02  0.79136588026E+01  0.61471720852E+02  0.41800000000E+01 0.  1.
        -11    1    1    2    0    0 -0.14901864670E+02 -0.81582218907E+01  0.78637275967E+02  0.80451496733E+02  0.00000000000E+00 0.  1.
         11    1    1    2    0    0  0.20827067544E+02 -0.27354846118E+02 -0.12416726698E+02  0.36554472373E+02  0.00000000000E+00 0. -1.
</event>
<event>
 7    1  0.2626349E-009  0.1303468E+03  0.7561462E-02  0.1226942E+00
          1   -1    0    0  501    0  0.00000000000E+00  0.00000000000E+00  0.89686391190E+02  0.89686391190E+02  0.00000000000E+00 0. -1.
         -1   -1    0    0    0  501 -0.00000000000E+00 -0.00000000000E+00 -0.22536157121E+03  0.22536157121E+03  0.00000000000E+00 0.  1.
         25    2    1    2    0    0  0.73737561811E+02 -0.45563592761E+02 -0.37740406405E+02  0.15679749900E+03  0.12509136026E+03 0.  0.
          5    1    3    3  502    0  0.10062343008E+03 -0.77119984158E+01 -0.76094686383E+01  0.10129129288E+03  0.41800000000E+01 0. -1.
         -5    1    3    3    0  502 -0.26885868272E+02 -0.37851594345E+02 -0.30130937766E+02  0.55506206120E+02  0.41800000000E+01 0. -1.
        -11    1    1    2    0    0 -0.17747547791E+02  0.53642779341E+02 -0.16072821917E+02  0.58744011034E+02  0.00000000000E+00 0. -1.
         11    1    1    2    0    0 -0.55990014020E+02 -0.80791865806E+01 -0.81861951694E+02  0.99506452358E+02  0.00000000000E+00 0.  1.
</event>
<event>
 7    1  0.2626349E-009  0.1219158E+03  0.7561462E-02  0.1239970E+00
         -2   -1    0    0    0  501 -0.00000000000E+00  0.00000000000E+00  0.10713019550E+03  0.10713019550E+03  0.00000000000E+00 0. -1.
          2   -1    0    0  501    0  0.00000000000E+00 -0.00000000000E+00 -0.15963369761E+03  0.15963369761E+03  0.00000000000E+00 0.  1.
         25    2    1    2    0    0 -0.62603170438E+02  0.34731114703E+02 -0.37534831975E+02  0.14893523934E+03  0.12508970632E+03 0.  0.
          5    1    3    3  502    0 -0.80849741512E+02  0.65626887332E+02 -0.42348069342E+02  0.11249177935E+03  0.41800000000E+01 0. -1.
         -5    1    3    3    0  502  0.18246571074E+02 -0.30895772629E+02  0.48132373676E+01  0.36443459993E+02  0.41800000000E+01 0. -1.
        -11    1    1    2    0    0 -0.29057854901E+01  0.18719060994E+02  0.18890869035E+02  0.26752789887E+02  0.00000000000E+00 0. -1.
         11    1    1    2    0    0  0.65508955928E+02 -0.53450175698E+02 -0.33859539173E+02  0.91075863883E+02  0.00000000000E+00 0.  1.
</event>
<event>
 7    1  0.2626349E-009  0.1951203E+03  0.7561462E-02  0.1153923E+00
          2   -1    0    0  501    0  0.00000000000E+00  0.00000000000E+00  0.15485813381E+04  0.15485813381E+04  0.00000000000E+00 0. -1.
         -2   -1    0    0    0  501 -0.00000000000E+00 -0.00000000000E+00 -0.29301722828E+02  0.29301722828E+02  0.00000000000E+00 0.  1.
         25    2    1    2    0    0 -0.64150565875E+01 -0.18264327303E+03  0.78934415306E+03  0.81982363003E+03  0.12508746634E+03 0.  0.
          5    1    3    3  502    0 -0.45924514841E+02 -0.45851449965E+02  0.13108975235E+03  0.14633322281E+03  0.41800000000E+01 0.  1.
         -5    1    3    3    0  502  0.39509458253E+02 -0.13679182307E+03  0.65825440071E+03  0.67349040721E+03  0.41800000000E+01 0.  1.
        -11    1    1    2    0    0  0.37034210353E+01  0.78316626326E+02  0.15470154220E+03  0.17343522263E+03  0.00000000000E+00 0.  1.
         11    1    1    2    0    0  0.27116355522E+01  0.10432664671E+03  0.57523391998E+03  0.58462420825E+03  0.00000000000E+00 0. -1.
</event>
<event>
 7    1  0.2626349E-009  0.1198404E+03  0.7561462E-02  0.1243361E+00
         -4   -1    0    0    0  501 -0.00000000000E+00  0.00000000000E+00  0.30798466063E+03  0.30798466063E+03  0.00000000000E+00 0.  1.
          4   -1    0    0  501    0  0.00000000000E+00 -0.00000000000E+00 -0.72502027270E+02  0.72502027270E+02  0.00000000000E+00 0. -1.
         25    2    1    2    0    0 -0.29465225603E+02  0.98140244014E+02  0.11778204266E+03  0.20004777488E+03  0.12508715221E+03 0.  0.
          5    1    3    3  502    0  0.94795327096E+01  0.31337491747E+02  0.11808232397E+03  0.12260835030E+03  0.41800000000E+01 0.  1.
         -5    1    3    3    0  502 -0.38944758313E+02  0.66802752266E+02 -0.30028131594E+00  0.77439424580E+02  0.41800000000E+01 0.  1.
        -11    1    1    2    0    0 -0.21366558383E+02 -0.65329911024E+02  0.32730553264E+02  0.76130258167E+02  0.00000000000E+00 0.  1.
         11    1    1    2    0    0  0.50831783987E+02 -0.32810332989E+02  0.84970037440E+02  0.10430865485E+03  0.00000000000E+00 0. -1.
</event>
<event>
 7    1  0.2626349E-009  0.1271720E+03  0.7561462E-02  0.1231713E+00
         -2   -1    0    0    0  501 -0.00000000000E+00  0.00000000000E+00  0.87997031147E+03  0.87997031147E+03  0.00000000000E+00 0.  1.
          2   -1    0    0  501    0  0.00000000000E+00 -0.00000000000E+00 -0.20729309481E+02  0.20729309481E+02  0.00000000000E+00 0. -1.
         25    2    1    2    0    0 -0.16477385187E+01 -0.53769065812E+02  0.30635856859E+03  0.33525558615E+03  0.12508760137E+03 0.  0.
          5    1    3    3  502    0 -0.61761362480E+02 -0.13254779955E+02  0.13267328150E+03  0.14700281327E+03  0.41800000000E+01 0.  1.
         -5    1    3    3    0  502  0.60113623961E+02 -0.40514285857E+02  0.17368528709E+03  0.18825277288E+03  0.41800000000E+01 0.  1.
        -11    1    1    2    0    0  0.32386461483E+02 -0.20306275244E+02  0.18938585936E+03  0.19320515373E+03  0.00000000000E+00 0. -1.
         11    1    1    2    0    0 -0.30738722964E+02  0.74075341056E+02  0.36349657405E+03  0.37223888108E+03  0.00000000000E+00 0.  1.
</event>
<event>
 7    1  0.2626349E-009  0.1712575E+03  0.7561462E-02  0.1176543E+00
         -3   -1    0    0    0  501 -0.00000000000E+00  0.00000000000E+00  0.56675439764E+03  0.56675439764E+03  0.00000000000E+00 0.  1.
          3   -1    0    0  501    0  0.00000000000E+00 -0.00000000000E+00 -0.56666108678E+02  0.56666108678E+02  0.00000000000E+00 0. -1.
         25    2    1    2    0    0  0.13995542636E+03 -0.21753417737E+02  0.29664486955E+03  0.35171916994E+03  0.12508982103E+03 0.  0.
          5    1    3    3  502    0  0.35304013019E+02 -0.54369596349E+02  0.18109004183E+03  0.19238893417E+03  0.41800000000E+01 0.  1.
         -5    1    3    3    0  502  0.10465141334E+03  0.32616178612E+02  0.11555482772E+03  0.15933023577E+03  0.41800000000E+01 0.  1.
        -11    1    1    2    0    0 -0.90452295783E+02 -0.30903420774E+02  0.11402743593E+03  0.14879144926E+03  0.00000000000E+00 0.  1.
         11    1    1    2    0    0 -0.49503130578E+02  0.52656838511E+02  0.99415983489E+02  0.12290988712E+03  0.00000000000E+00 0. -1.
</event>
<event>
 7    1  0.2626349E-009  0.1084982E+03  0.7561462E-02  0.1263376E+00
         -1   -1    0    0    0  501 -0.00000000000E+00  0.00000000000E+00  0.85166596135E+02  0.85166596135E+02  0.00000000000E+00 0.  1.
          1   -1    0    0  501    0  0.00000000000E+00 -0.00000000000E+00 -0.14381334004E+03  0.14381334004E+03  0.00000000000E+00 0. -1.
         25    2    1    2    0    0 -0.69910025611E+01  0.20870231268E+02 -0.47050567926E+02  0.13544934468E+03  0.12509327865E+03 0.  0.
          5    1    3    3  502    0 -0.35338836027E+02  0.64183131295E+02 -0.16581880616E+02  0.75237881677E+02  0.41800000000E+01 0.  1.
         -5    1    3    3    0  502  0.28347833466E+02 -0.43312900027E+02 -0.30468687311E+02  0.60211463006E+02  0.41800000000E+01 0.  1.
        -11    1    1    2    0    0 -0.11753941118E+01 -0.55795482968E+02  0.88675636754E-01  0.55807932540E+02  0.00000000000E+00 0. -1.
         11    1    1    2    0    0  0.81663966729E+01  0.34925251700E+02 -0.11684851612E+02  0.37722658948E+02  0.00000000000E+00 0.  1.
</event>
<event>
 7    1  0.2626349E-009  0.2086362E+03  0.7561462E-02  0.1142651E+00
         -1   -1    0    0    0  501 -0.00000000000E+00  0.00000000000E+00  0.47345035040E+03  0.47345035040E+03  0.00000000000E+00 0. -1.
          1   -1    0    0  501    0  0.00000000000E+00 -0.00000000000E+00 -0.10314962146E+03  0.10314962146E+03  0.00000000000E+00 0.  1.
         25    2    1    2    0    0 -0.13321221217E+03  0.12748337287E+03  0.26427699409E+03  0.34567030955E+03  0.12509248366E+03 0.  0.
          5    1    3    3  502    0  0.56895355021E+01 -0.14024331092E+02  0.55617180415E+02  0.57790966718E+02  0.41800000000E+01 0.  1.
         -5    1    3    3    0  502 -0.13890174767E+03  0.14150770396E+03  0.20865981368E+03  0.28787934283E+03  0.41800000000E+01 0.  1.
        -11    1    1    2    0    0  0.30395501794E+02 -0.88000753589E+02  0.32973323096E+02  0.98768715683E+02  0.00000000000E+00 0. -1.
         11    1    1    2    0    0  0.10281671037E+03 -0.39482619279E+02  0.73050411750E+02  0.13216094663E+03  0.00000000000E+00 0.  1.
</event>
<event>
 7    1  0.2626349E-009  0.1216034E+03  0.7561462E-02  0.1240475E+00
          2   -1    0    0  501    0  0.00000000000E+00  0.00000000000E+00  0.10364971306E+04  0.10364971306E+04  0.00000000000E+00 0. -1.
         -2   -1    0    0    0  501 -0.00000000000E+00 -0.00000000000E+00 -0.14761183476E+02  0.14761183476E+02  0.00000000000E+00 0.  1.
         25    2    1    2    0    0 -0.51657664075E+02 -0.30740735136E+02  0.65265111648E+03  0.66724177100E+03  0.12507835171E+03 0.  0.
          5    1    3    3  502    0 -0.11311833139E+02  0.47646477204E+02  0.28004165016E+03  0.28432189958E+03  0.41800000000E+01 0. -1.
         -5    1    3    3    0  502 -0.40345830935E+02 -0.78387212340E+02  0.37260946632E+03  0.38291987142E+03  0.41800000000E+01 0. -1.
        -11    1    1    2    0    0  0.71046899893E+02  0.19334267897E+01  0.23539801751E+03  0.24589352730E+03  0.00000000000E+00 0.  1.
         11    1    1    2    0    0 -0.19389235818E+02  0.28807308347E+02  0.13368681311E+03  0.13812301575E+03  0.00000000000E+00 0. -1.
</event>
<event>
 7    1  0.2626349E-009  0.1297894E+03  0.7561462E-02  0.1227769E+00
         -1   -1    0    0    0  501 -0.00000000000E+00  0.00000000000E+00  0.15773386351E+03  0.15773386351E+03  0.00000000000E+00 0. -1.
          1   -1    0    0  501    0  0.00000000000E+00 -0.00000000000E+00 -0.14492603818E+03  0.14492603818E+03  0.00000000000E+00 0.  1.
         25    2    1    2    0    0  0.81580772028E+02  0.54942916391E+02 -0.44401434724E+02  0.16520545272E+03  0.12508879957E+03 0.  0.
          5    1    3    3  502    0  0.99157277364E+02  0.24201765531E+02 -0.67755319486E+02  0.12258118464E+03  0.41800000000E+01 0. -1.
         -5    1    3    3    0  502 -0.17576505336E+02  0.30741150861E+02  0.23353884762E+02  0.42624268082E+02  0.41800000000E+01 0. -1.
        -11    1    1    2    0    0 -0.40244635737E+02 -0.67482634698E+02  0.51347721016E+02  0.93862266886E+02  0.00000000000E+00 0. -1.
         11    1    1    2    0    0 -0.41336136292E+02  0.12539718307E+02  0.58615390360E+01  0.43592182081E+02  0.00000000000E+00 0.  1.
</event>
<event>
 7    1  0.2626349E-009  0.1133685E+03  0.7561462E-02  0.1254456E+00
          1   -1    0    0  501    0  0.00000000000E+00  0.00000000000E+00  0.16250568492E+03  0.16250568492E+03  0.00000000000E+00 0. -1.
         -1   -1    0    0    0  501 -0.00000000000E+00 -0.00000000000E+00 -0.12761851777E+03  0.12761851777E+03  0.00000000000E+00 0.  1.
         25    2    1    2    0    0 -0.43800969349E+02 -0.82182875342E+02  0.27541200286E+01  0.15597450253E+03  0.12509160782E+03 0.  0.
          5    1    3    3  502    0 -0.52346634172E+02 -0.92389008651E+02  0.42040805853E+02  0.11428386056E+03  0.41800000000E+01 0.  1.
         -5    1    3    3    0  502  0.85456648232E+01  0.10206133309E+02 -0.39286685824E+02  0.41690641965E+02  0.41800000000E+01 0.  1.
        -11    1    1    2    0    0 -0.36040733605E+00  0.54270114442E+02  0.54867752431E+02  0.77174124367E+02  0.00000000000E+00 0. -1.
         11    1    1    2    0    0  0.44161376685E+02  0.27912760899E+02 -0.22734705311E+02  0.56975575796E+02  0.00000000000E+00 0.  1.
</event>
<event>
 7    1  0.2626349E-009  0.5814976E+02  0.7561462E-02  0.1405765E+00
         -3   -1    0    0    0  501 -0.00000000000E+00  0.00000000000E+00  0.21974924179E+03  0.21974924179E+03  0.00000000000E+00 0.  1.
          3   -1    0    0  501    0  0.00000000000E+00 -0.00000000000E+00 -0.74253232239E+02  0.74253232239E+02  0.00000000000E+00 0. -1.
         25    2    1    2    0    0  0.62471408898E+01  0.34398181952E+02  0.15269924357E+02  0.13077887206E+03  0.12509069148E+03 0.  0.
          5    1    3    3  502    0 -0.46676508020E+01  0.93176479539E+01 -0.54540700061E+02  0.55684521104E+02  0.41800000000E+01 0.  1.
         -5    1    3    3    0  502  0.10914791692E+02  0.25080533998E+02  0.69810624418E+02  0.75094350952E+02  0.41800000000E+01 0.  1.
        -11    1    1    2    0    0  0.61551952186E+01  0.20352594018E+02  0.94085562971E+02  0.96458320901E+02  0.00000000000E+00 0.  1.
         11    1    1    2    0    0 -0.12402336108E+02 -0.54750775970E+02  0.36140522223E+02  0.66765281074E+02  0.00000000000E+00 0. -1.
</event>
<event>
 7    1  0.2626349E-009  0.1832080E+03  0.7561462E-02  0.1164734E+00
         -2   -1    0    0    0  501 -0.00000000000E+00  0.00000000000E+00  0.22537988895E+03  0.22537988895E+03  0.00000000000E+00 0. -1.
          2   -1    0    0  501    0  0.00000000000E+00 -0.00000000000E+00 -0.16612309811E+03  0.16612309811E+03  0.00000000000E+00 0.  1.
         25    2    1    2    0    0 -0.13762704368E+03 -0.81443274689E+02  0.29523329338E+02  0.20516586325E+03  0.12508874579E+03 0.  0.
          5    1    3    3  502    0 -0.40709338717E+02 -0.85116577979E+02 -0.19464770526E+02  0.96428376514E+02  0.41800000000E+01 0.  1.
         -5    1    3    3    0  502 -0.96917704964E+02  0.36733032893E+01  0.48988099865E+02  0.10873748673E+03  0.41800000000E+01 0.  1.
        -11    1    1    2    0    0  0.24823969533E+02  0.53054365736E+02 -0.16981500853E+02  0.60986609663E+02  0.00000000000E+00 0.  1.
         11    1    1    2    0    0  0.11280307415E+03  0.28388908953E+02  0.46714962356E+02  0.12535051415E+03  0.00000000000E+00 0. -1.
</event>
<event>
 7    1  0.2626349E-009  0.1862729E+03  0.7561462E-02  0.1161866E+00
         -2   -1    0    0    0  501 -0.00000000000E+00  0.00000000000E+00  0.17361969369E+03  0.17361969369E+03  0.00000000000E+00 0.  1.
          2   -1    0    0  501    0  0.00000000000E+00 -0.00000000000E+00 -0.23790962033E+03  0.23790962033E+03  0.00000000000E+00 0. -1.
         25    2    1    2    0    0  0.10533176435E+03 -0.13550053083E+03 -0.49846864030E+02  0.21814585570E+03  0.12509088723E+03 0.  0.
          5    1    3    3  502    0  0.10420549340E+03 -0.15038984214E+03 -0.67121835761E+02  0.19493255939E+03  0.41800000000E+01 0. -1.
         -5    1    3    3    0  502  0.11262709528E+01  0.14889311308E+02  0.17274971731E+02  0.23213296314E+02  0.41800000000E+01 0. -1.
        -11    1    1    2    0    0 -0.38901134232E+02  0.29054029417E+02 -0.42822465692E+02  0.64739465845E+02  0.00000000000E+00 0. -1.
         11    1    1    2    0    0 -0.66430630121E+02  0.10644650141E+03  0.28379403088E+02  0.12864399248E+03  0.00000000000E+00 0.  1.
</event>
<event>
 7    1  0.2626349E-009  0.6248826E+02  0.7561462E-02  0.1387677E+00
         -2   -1    0    0    0  501 -0.00000000000E+00  0.00000000000E+00  0.19757882581E+02  0.19757882581E+02  0.00000000000E+00 0.  1.
          2   -1    0    0  501    0  0.00000000000E+00 -0.00000000000E+00 -0.63298024655E+03  0.63298024655E+03  0.00000000000E+00 0. -1.
         25    2    1    2    0    0  0.63586872862E+01 -0.41794580987E+01 -0.27466023841E+03  0.30190022242E+03  0.12509035518E+03 0.  0.
          5    1    3    3  502    0  0.17438750466E+02 -0.12964636270E+02 -0.28372825992E+03  0.28458986224E+03  0.41800000000E+01 0.  1.
         -5    1    3    3    0  502 -0.11080063180E+02  0.87851781713E+01  0.90680215092E+01  0.17310360183E+02  0.41800000000E+01 0.  1.
        -11    1    1    2    0    0  0.16755229067E+02 -0.37147544177E+02 -0.10730099692E+03  0.11477883812E+03  0.00000000000E+00 0.  1.
         11    1    1    2    0    0 -0.23113916353E+02  0.41327002276E+02 -0.23126112864E+03  0.23605906860E+03  0.00000000000E+00 0. -1.
</event>
<event>
 7    1  0.2626349E-009  0.1181868E+03  0.7561462E-02  0.1246119E+00
         -2   -1    0    0    0  501 -0.00000000000E+00  0.00000000000E+00  0.32628848242E+02  0.32628848242E+02  0.00000000000E+00 0.  1.
          2   -1    0    0  501    0  0.00000000000E+00 -0.00000000000E+00 -0.46431312160E+03  0.46431312160E+03  0.00000000000E+00 0. -1.
         25    2    1    2    0    0 -0.69881743028E+02  0.11841421108E+02 -0.25248513750E+03  0.29055108263E+03  0.12509000637E+03 0.  0.
          5    1    3    3  502    0 -0.16184560548E+02  0.62499657267E+02 -0.80004165667E+02  0.10288967918E+03  0.41800000000E+01 0.  1.
         -5    1    3    3    0  502 -0.53697182479E+02 -0.50658236159E+02 -0.17248097184E+03  0.18766140344E+03  0.41800000000E+01 0.  1.
        -11    1    1    2    0    0  0.44691935908E+02  0.26428285651E+02 -0.12541635155E+03  0.13573903143E+03  0.00000000000E+00 0. -1.
         11    1    1    2    0    0  0.25189807120E+02 -0.38269706759E+02 -0.53782784309E+02  0.70651855787E+02  0.00000000000E+00 0.  1.
</event>
<event>
 7    1  0.2626349E-009  0.1122167E+03  0.7561462E-02  0.1256519E+00
          1   -1    0    0  501    0  0.00000000000E+00  0.00000000000E+00  0.11453729665E+03  0.11453729665E+03  0.00000000000E+00 0. -1.
         -1   -1    0    0    0  501 -0.00000000000E+00 -0.00000000000E+00 -0.13968303172E+03  0.13968303172E+03  0.00000000000E+00 0.  1.
         25    2    1    2    0    0  0.23365866169E+01 -0.36057685476E+02 -0.69343070584E+02  0.14751605473E+03  0.12508760389E+03 0.  0.
          5    1    3    3  502    0 -0.60726700458E+02 -0.14345122365E+02 -0.41880450851E+02  0.75265923549E+02  0.41800000000E+01 0.  1.
         -5    1    3    3    0  502  0.63063287075E+02 -0.21712563111E+02 -0.27462619733E+02  0.72250131184E+02  0.41800000000E+01 0.  1.
        -11    1    1    2    0    0  0.37887345462E+02  0.39455702844E+02  0.36081754141E+02  0.65529355368E+02  0.00000000000E+00 0.  1.
         11    1    1    2    0    0 -0.40223932079E+02 -0.33980173675E+01  0.81155813766E+01  0.41174918275E+02  0.00000000000E+00 0. -1.
</event>
<event>
 7    1  0.2626349E-009  0.1097580E+03  0.7561462E-02  0.1261019E+00
         -1   -1    0    0    0  501 -0.00000000000E+00  0.00000000000E+00  0.16494393596E+03  0.16494393596E+03  0.00000000000E+00 0.  1.
          1   -1    0    0  501    0  0.00000000000E+00 -0.00000000000E+00 -0.96474704988E+02  0.96474704988E+02  0.00000000000E+00 0. -1.
         25    2    1    2    0    0  0.41425189658E+01  0.39411091350E+02  0.68739017917E+02  0.14812205604E+03  0.12507876046E+03 0.  0.
          5    1    3    3  502    0 -0.40702583888E+02 -0.10647853077E+02  0.68836371623E+02  0.80783634287E+02  0.41800000000E+01 0. -1.
         -5    1    3    3    0  502  0.44845102853E+02  0.50058944427E+02 -0.97353705798E-01  0.67338421758E+02  0.41800000000E+01 0. -1.
        -11    1    1    2    0    0  0.36407526257E+02  0.17197204156E+02 -0.13400261161E+02  0.42436055403E+02  0.00000000000E+00 0. -1.
         11    1    1    2    0    0 -0.40550045223E+02 -0.56608295506E+02  0.13130474212E+02  0.70860529498E+02  0.00000000000E+00 0.  1.
</event>
<event>
 7    1  0.2626349E-009  0.1668662E+03  0.7561462E-02  0.1181156E+00
          1   -1    0    0  501    0  0.00000000000E+00  0.00000000000E+00  0.12888397027E+04  0.12888397027E+04  0.00000000000E+00 0. -1.
         -1   -1    0    0    0  501 -0.00000000000E+00 -0.00000000000E+00 -0.24944219493E+02  0.24944219493E+02  0.00000000000E+00 0.  1.
         25    2    1    2    0    0 -0.97071358368E+02  0.86680726843E+02  0.87851994824E+03  0.89687330533E+03  0.12509208341E+03 0.  0.
          5    1    3    3  502    0 -0.37521353605E+02 -0.27067799903E+02  0.14719111980E+03  0.15434771108E+03  0.41800000000E+01 0. -1.
         -5    1    3    3    0  502 -0.59550004763E+02  0.11374852675E+03  0.73132882844E+03  0.74252559425E+03  0.41800000000E+01 0. -1.
        -11    1    1    2    0    0 -0.68241472102E+01 -0.47171240261E+02  0.10531563146E+03  0.11559877648E+03  0.00000000000E+00 0.  1.
         11    1    1    2    0    0  0.10389550558E+03 -0.39509486582E+02  0.28005990355E+03  0.30131184043E+03  0.00000000000E+00 0. -1.
</event>
<event>
 7    1  0.2626349E-009  0.1073089E+03  0.7561462E-02  0.1265636E+00
         -2   -1    0    0    0  501 -0.00000000000E+00  0.00000000000E+00  0.17705131107E+02  0.17705131107E+02  0.00000000000E+00 0.  1.
          2   -1    0    0  501    0  0.00000000000E+00 -0.00000000000E+00 -0.93706587719E+03  0.93706587719E+03  0.00000000000E+00 0. -1.
         25    2    1    2    0    0  0.94234477903E+00 -0.62720536345E+01 -0.76504472434E+03  0.77522924992E+03  0.12508690187E+03 0.  0.
          5    1    3    3  502    0  0.23128404038E+02 -0.60943203141E+02 -0.44439005153E+03  0.44916476640E+03  0.41800000000E+01 0. -1.
         -5    1    3    3    0  502 -0.22186059259E+02  0.54671149506E+02 -0.32065467282E+03  0.32606448352E+03  0.41800000000E+01 0. -1.
        -11    1    1    2    0    0  0.33814905248E+02 -0.26051052637E+02 -0.89982496340E+02  0.99593949655E+02  0.00000000000E+00 0.  1.
         11    1    1    2    0    0 -0.34757250027E+02  0.32323106272E+02 -0.64333525403E+02  0.79947808720E+02  0.00000000000E+00 0. -1.
</event>
<event>
 7    1  0.2626349E-009  0.8873635E+02  0.7561462E-02  0.1305941E+00
         -2   -1    0    0    0  501 -0.00000000000E+00  0.00000000000E+00  0.11388763690E+03  0.11388763690E+03  0.00000000000E+00 0.  1.
          2   -1    0    0  501    0  0.00000000000E+00 -0.00000000000E+00 -0.16701883189E+03  0.16701883189E+03  0.00000000000E+00 0. -1.
         25    2    1    2    0    0 -0.46489712969E+02 -0.41666608008E+02 -0.85842390159E+02  0.16405219818E+03  0.12508720216E+03 0.  0.
          5    1    3    3  502    0  0.28326131571E+02 -0.16759194214E+01 -0.72638260871E+02  0.78095888355E+02  0.41800000000E+01 0.  1.
         -5    1    3    3    0  502 -0.74815844540E+02 -0.39990688586E+02 -0.13204129288E+02  0.85956309822E+02  0.41800000000E+01 0.  1.
        -11    1    1    2    0    0  0.41991908128E+02  0.30747261723E+02  0.64537035178E+02  0.82908041596E+02  0.00000000000E+00 0.  1.
         11    1    1    2    0    0  0.44978048408E+01  0.10919346284E+02 -0.31825840015E+02  0.33946229014E+02  0.00000000000E+00 0. -1.
</event>
<event>
 7    1  0.2626349E-009  0.1130969E+03  0.7561462E-02  0.1254940E+00
          2   -1    0    0  501    0  0.00000000000E+00  0.00000000000E+00  0.82829682875E+02  0.82829682875E+02  0.00000000000E+00 0. -1.
         -2   -1    0    0    0  501 -0.00000000000E+00 -0.00000000000E+00 -0.46294234493E+03  0.46294234493E+03  0.00000000000E+00 0.  1.
         25    2    1    2    0    0 -0.13642302360E+02 -0.78978595801E+02 -0.40097420652E+03  0.42761215547E+03  0.12509240663E+03 0.  0.
          5    1    3    3  502    0 -0.65447899394E+02 -0.47850537987E+02 -0.16368215847E+03  0.18270857375E+03  0.41800000000E+01 0.  1.
         -5    1    3    3    0  502  0.51805597034E+02 -0.31128057813E+02 -0.23729204806E+03  0.24490358172E+03  0.41800000000E+01 0.  1.
        -11    1    1    2    0    0 -0.38715119640E+01  0.52741033279E+02  0.51763348076E+02  0.74000333784E+02  0.00000000000E+00 0. -1.
         11    1    1    2    0    0  0.17513814324E+02  0.26237562522E+02 -0.30901803606E+02  0.44159538555E+02  0.00000000000E+00 0.  1.
</event>
<event>
 7    1  0.2626349E-009  0.1429448E+03  0.7561462E-02  0.1209421E+00
         -2   -1    0    0    0  501 -0.00000000000E+00  0.00000000000E+00  0.48156755776E+02  0.48156755776E+02  0.00000000000E+00 0.  1.
          2   -1    0    0  501    0  0.00000000000E+00 -0.00000000000E+00 -0.49223102752E+03  0.49223102752E+03  0.00000000000E+00 0. -1.
         25    2    1    2    0    0 -0.61006026544E+02 -0.72841353579E+02 -0.33311277629E+03  0.36829265688E+03  0.12509101216E+03 0.  0.
          5    1    3    3  502    0  0.11435730027E+01 -0.90190148689E+02 -0.16355798797E+03  0.18682681421E+03  0.41800000000E+01 0. -1.
         -5    1    3    3    0  502 -0.62149599546E+02  0.17348795111E+02 -0.16955478831E+03  0.18146584267E+03  0.41800000000E+01 0. -1.
        -11    1    1    2    0    0  0.84320366427E+02  0.48701996115E+02 -0.89515443955E+02  0.13226799812E+03  0.00000000000E+00 0.  1.
         11    1    1    2    0    0 -0.23314339883E+02  0.24139357464E+02 -0.21446051497E+02  0.39827128289E+02  0.00000000000E+00 0. -1.
</event>
<event>
 7    1  0.2626349E-009  0.1209678E+03  0.7561462E-02  0.1241509E+00
         -1   -1    0    0    0  501 -0.00000000000E+00  0.00000000000E+00  0.50607404807E+02  0.50607404807E+02  0.00000000000E+00 0.  1.
          1   -1    0    0  501    0  0.00000000000E+00 -0.00000000000E+00 -0.33223144585E+03  0.33223144585E+03  0.00000000000E+00 0. -1.
         25    2    1    2    0    0 -0.74243900475E+01  0.65519110471E+02 -0.12010863403E+03  0.18553650007E+03  0.12509929450E+03 0.  0.
          5    1    3    3  502    0 -0.26522872814E+02 -0.24608122383E+02 -0.73892765533E+02  0.82381039491E+02  0.41800000000E+01 0.  1.
         -5    1    3    3    0  502  0.19098482766E+02  0.90127232855E+02 -0.46215868494E+02  0.10315546058E+03  0.41800000000E+01 0.  1.
        -11    1    1    2    0    0 -0.17426650236E+02  0.18653233366E+02 -0.34620826078E+02  0.43014333097E+02  0.00000000000E+00 0.  1.
         11    1    1    2    0    0  0.24851040284E+02 -0.84172343837E+02 -0.12689458093E+03  0.15428801749E+03  0.00000000000E+00 0. -1.
</event>
<event>
 7    1  0.2626349E-009  0.1152133E+03  0.7561462E-02  0.1251209E+00
         -2   -1    0    0    0  501 -0.00000000000E+00  0.00000000000E+00  0.19882761912E+03  0.19882761912E+03  0.00000000000E+00 0.  1.
          2   -1    0    0  501    0  0.00000000000E+00 -0.00000000000E+00 -0.16580637006E+03  0.16580637006E+03  0.00000000000E+00 0. -1.
         25    2    1    2    0    0 -0.24990034741E+02  0.79315388919E+02 -0.98990296959E+02  0.17989332320E+03  0.12508835312E+03 0.  0.
          5    1    3    3  502    0 -0.26566500896E+02 -0.11517635324E+02  0.15954016130E+02  0.33323233997E+02  0.41800000000E+01 0.  1.
         -5    1    3    3    0  502  0.15764661551E+01  0.90833024243E+02 -0.11494431309E+03  0.14657008921E+03  0.41800000000E+01 0.  1.
        -11    1    1    2    0    0 -0.93358406090E+01 -0.75061123397E+02  0.38163972384E+02  0.84722009853E+02  0.00000000000E+00 0.  1.
         11    1    1    2    0    0  0.34325875350E+02 -0.42542655226E+01  0.93847573641E+02  0.10001865612E+03  0.00000000000E+00 0. -1.
</event>
<event>
 7    1  0.2626349E-009  0.1054019E+03  0.7561462E-02  0.1269330E+00
          2   -1    0    0  501    0  0.00000000000E+00  0.00000000000E+00  0.59001236792E+03  0.59001236792E+03  0.00000000000E+00 0. -1.
         -2   -1    0    0    0  501 -0.00000000000E+00 -0.00000000000E+00 -0.22342272218E+02  0.22342272218E+02  0.00000000000E+00 0.  1.
         25    2    1    2    0    0  0.89590342786E+01 -0.36672234491E+02  0.34592931536E+03  0.36978387576E+03  0.12509159231E+03 0.  0.
          5    1    3    3  502    0  0.47195712705E+02  0.21912858695E+02  0.86285499712E+02  0.10084774928E+03  0.41800000000E+01 0.  1.
         -5    1    3    3    0  502 -0.38236678427E+02 -0.58585093186E+02  0.25964381565E+03  0.26893612648E+03  0.41800000000E+01 0.  1.
        -11    1    1    2    0    0  0.35641987155E+02  0.12383825648E+02  0.45245137677E+02  0.58913774870E+02  0.00000000000E+00 0.  1.
         11    1    1    2    0    0 -0.44601021433E+02  0.24288408842E+02  0.17649564267E+03  0.18365698951E+03  0.00000000000E+00 0. -1.
</event>
<event>
 7    1  0.2626349E-009  0.1101190E+03  0.7561462E-02  0.1260350E+00
         -1   -1    0    0    0  501 -0.00000000000E+00  0.00000000000E+00  0.34133803431E+02  0.34133803431E+02  0.00000000000E+00 0.  1.
          1   -1    0    0  501    0  0.00000000000E+00 -0.00000000000E+00 -0.47957220766E+03  0.47957220766E+03  0.00000000000E+00 0. -1.
         25    2    1    2    0    0  0.40427537197E+02 -0.37738215812E+02 -0.17695267658E+03  0.22364853259E+03  0.12509139733E+03 0.  0.
          5    1    3    3  502    0  0.73069896840E+02 -0.57480702940E+02 -0.94133942800E+02  0.13237036157E+03  0.41800000000E+01 0.  1.
         -5    1    3    3    0  502 -0.32642359643E+02  0.19742487128E+02 -0.82818733776E+02  0.91278171023E+02  0.41800000000E+01 0.  1.
        -11    1    1    2    0    0 -0.41221330570E+02  0.56544825942E+02 -0.26028200918E+03  0.26952409862E+03  0.00000000000E+00 0. -1.
         11    1    1    2    0    0  0.79379337279E+00 -0.18806610129E+02 -0.82037184739E+01  0.20533379879E+02  0.00000000000E+00 0.  1.
</event>
<event>
 7    1  0.2949138E-009  0.1408131E+03  0.7561462E-02  0.1212239E+00
          3   -1    0    0  501    0  0.00000000000E+00  0.00000000000E+00  0.11860165847E+03  0.11860165847E+03  0.00000000000E+00 0. -1.
         -3   -1    0    0    0  501 -0.00000000000E+00 -0.00000000000E+00 -0.20326011583E+03  0.20326011583E+03  0.00000000000E+00 0.  1.
         25    2    1    2    0    0 -0.71413971812E+02 -0.61858510293E+02  0.13919638469E+02  0.15737709518E+03  0.12508942036E+03 0.  0.
          5    1    3    3  502    0 -0.28151486574E+01 -0.81399674083E+02  0.24480952196E+02  0.85150580874E+02  0.41800000000E+01 0.  1.
         -5    1    3    3    0  502 -0.68598823155E+02  0.19541163790E+02 -0.10561313727E+02  0.72226514301E+02  0.41800000000E+01 0.  1.
        -11    1    1    2    0    0 -0.17096075468E+02  0.30041412103E+02 -0.43241108733E+02  0.55358429548E+02  0.00000000000E+00 0.  1.
         11    1    1    2    0    0  0.88510047280E+02  0.31817098190E+02 -0.55336987088E+02  0.10912624958E+03  0.00000000000E+00 0. -1.
</event>
<event>
 7    1  0.2626349E-009  0.1162340E+03  0.7561462E-02  0.1249442E+00
         -2   -1    0    0    0  501 -0.00000000000E+00  0.00000000000E+00  0.30976790851E+02  0.30976790851E+02  0.00000000000E+00 0.  1.
          2   -1    0    0  501    0  0.00000000000E+00 -0.00000000000E+00 -0.54923306182E+03  0.54923306182E+03  0.00000000000E+00 0. -1.
         25    2    1    2    0    0 -0.69207138238E+01  0.67650515361E+02 -0.33901779621E+03  0.36770067585E+03  0.12508490062E+03 0.  0.
          5    1    3    3  502    0  0.37900401936E+02 -0.10747040338E+01 -0.21874860718E+03  0.22204959131E+03  0.41800000000E+01 0.  1.
         -5    1    3    3    0  502 -0.44821115760E+02  0.68725219395E+02 -0.12026918903E+03  0.14565108454E+03  0.41800000000E+01 0.  1.
        -11    1    1    2    0    0  0.39637633695E+02 -0.30507941829E+01 -0.45466004639E+02  0.60395421415E+02  0.00000000000E+00 0.  1.
         11    1    1    2    0    0 -0.32716919871E+02 -0.64599721178E+02 -0.13377247012E+03  0.15211375541E+03  0.00000000000E+00 0. -1.
</event>
<event>
 7    1  0.2626349E-009  0.9710432E+02  0.7561462E-02  0.1286506E+00
         -1   -1    0    0    0  501 -0.00000000000E+00  0.00000000000E+00  0.38542825270E+02  0.38542825270E+02  0.00000000000E+00 0.  1.
          1   -1    0    0  501    0  0.00000000000E+00 -0.00000000000E+00 -0.33141775326E+03  0.33141775326E+03  0.00000000000E+00 0. -1.
         25    2    1    2    0    0 -0.21865161523E+02 -0.55614503738E+01 -0.13214871468E+03  0.18335526624E+03  0.12508739284E+03 0.  0.
          5    1    3    3  502    0  0.45827825020E+02  0.20695367319E+02 -0.32608733427E+02  0.60077364042E+02  0.41800000000E+01 0.  1.
         -5    1    3    3    0  502 -0.67692986544E+02 -0.26256817693E+02 -0.99539981255E+02  0.12327790220E+03  0.41800000000E+01 0.  1.
        -11    1    1    2    0    0 -0.24102404713E+02  0.67882435807E+01 -0.12734257563E+03  0.12978111469E+03  0.00000000000E+00 0. -1.
         11    1    1    2    0    0  0.45967566237E+02 -0.12267932070E+01 -0.33383637681E+02  0.56824197593E+02  0.00000000000E+00 0.  1.
</event>
<event>
 7    1  0.2626349E-009  0.1163727E+03  0.7561462E-02  0.1249204E+00
         -1   -1    0    0    0  501 -0.00000000000E+00  0.00000000000E+00  0.48292974771E+02  0.48292974771E+02  0.00000000000E+00 0.  1.
          1   -1    0    0  501    0  0.00000000000E+00 -0.00000000000E+00 -0.75746962103E+03  0.75746962103E+03  0.00000000000E+00 0. -1.
         25    2    1    2    0    0  0.85071588181E+02  0.72876443021E+01 -0.65057520709E+03  0.66797128551E+03  0.12508898154E+03 0.  0.
          5    1    3    3  502    0  0.60625479695E+01  0.50628115934E+02 -0.13124735274E+03  0.14086625079E+03  0.41800000000E+01 0.  1.
         -5    1    3    3    0  502  0.79009040212E+02 -0.43340471631E+02 -0.51932785435E+03  0.52710503471E+03  0.41800000000E+01 0.  1.
        -11    1    1    2    0    0 -0.67093968330E+02 -0.19222658518E+02 -0.80843009808E+02  0.10680216955E+03  0.00000000000E+00 0. -1.
         11    1    1    2    0    0 -0.17977619851E+02  0.11935014216E+02  0.22241570635E+02  0.30989140745E+02  0.00000000000E+00 0.  1.
</event>
<event>
 7    1  0.2626349E-009  0.8885242E+02  0.7561462E-02  0.1305655E+00
         -1   -1    0    0    0  501 -0.00000000000E+00  0.00000000000E+00  0.71745920069E+02  0.71745920069E+02  0.00000000000E+00 0.  1.
          1   -1    0    0  501    0  0.00000000000E+00 -0.00000000000E+00 -0.18989165015E+03  0.18989165015E+03  0.00000000000E+00 0. -1.
         25    2    1    2    0    0  0.31842062400E+02 -0.12089529695E+02 -0.89835444124E+02  0.15772432293E+03  0.12508589591E+03 0.  0.
          5    1    3    3  502    0  0.66872916195E+02 -0.17802254663E+02 -0.97293561750E+01  0.70007427914E+02  0.41800000000E+01 0. -1.
         -5    1    3    3    0  502 -0.35030853796E+02  0.57127249682E+01 -0.80106087949E+02  0.87716895013E+02  0.41800000000E+01 0. -1.
        -11    1    1    2    0    0  0.19650507255E+02 -0.39111778015E+00 -0.44387471597E+02  0.48544238002E+02  0.00000000000E+00 0. -1.
         11    1    1    2    0    0 -0.51492569654E+02  0.12480647475E+02  0.16077185644E+02  0.55369009285E+02  0.00000000000E+00 0.  1.
</event>
<event>
 7    1  0.2626349E-009  0.8365886E+02  0.7561462E-02  0.1318977E+00
         -1   -1    0    0    0  501 -0.00000000000E+00  0.00000000000E+00  0.34109495358E+02  0.34109495358E+02  0.00000000000E+00 0.  1.
          1   -1    0    0  501    0  0.00000000000E+00 -0.00000000000E+00 -0.47506871002E+03  0.47506871002E+03  0.00000000000E+00 0. -1.
         25    2    1    2    0    0 -0.29757869173E+02 -0.59869028817E+02 -0.25641932561E+03  0.29303226873E+03  0.12508880277E+03 0.  0.
          5    1    3    3  502    0 -0.13063930753E+02 -0.43860625386E+02 -0.12014522149E+02  0.47499914615E+02  0.41800000000E+01 0.  1.
         -5    1    3    3    0  502 -0.16693938419E+02 -0.16008403431E+02 -0.24440480346E+03  0.24553235411E+03  0.41800000000E+01 0.  1.
        -11    1    1    2    0    0  0.94244155097E+01 -0.16405753885E+02 -0.43357034542E+01  0.19410478940E+02  0.00000000000E+00 0.  1.
         11    1    1    2    0    0  0.20333453663E+02  0.76274782702E+02 -0.18020418559E+03  0.19673545771E+03  0.00000000000E+00 0. -1.
</event>
<event>
 7    1  0.2626349E-009  0.8114141E+02  0.7561462E-02  0.1325843E+00
          1   -1    0    0  501    0  0.00000000000E+00  0.00000000000E+00  0.40492339583E+03  0.40492339583E+03  0.00000000000E+00 0. -1.
         -1   -1    0    0    0  501 -0.00000000000E+00 -0.00000000000E+00 -0.39118444239E+02  0.39118444239E+02  0.00000000000E+00 0.  1.
         25    2    1    2    0    0 -0.41333755302E+02  0.46213523986E+02  0.18915804687E+03  0.23510264839E+03  0.12509324304E+03 0.  0.
          5    1    3    3  502    0 -0.56082266655E+02  0.51305622148E+02  0.20109254703E+03  0.21501900467E+03  0.41800000000E+01 0.  1.
         -5    1    3    3    0  502  0.14748511353E+02 -0.50920981622E+01 -0.11934500159E+02  0.20083643715E+02  0.41800000000E+01 0.  1.
        -11    1    1    2    0    0 -0.28260134636E+01 -0.16591494778E+02 -0.66413051404E+01  0.18093396172E+02  0.00000000000E+00 0.  1.
         11    1    1    2    0    0  0.44159768765E+02 -0.29622029208E+02  0.18328820986E+03  0.19084579551E+03  0.00000000000E+00 0. -1.
</event>
<event>
 7    1  0.2626349E-009  0.1587011E+03  0.7561462E-02  0.1190171E+00
         -4   -1    0    0    0  501 -0.00000000000E+00  0.00000000000E+00  0.11619564792E+04  0.11619564792E+04  0.00000000000E+00 0.  1.
          4   -1    0    0  501    0  0.00000000000E+00 -0.00000000000E+00 -0.26673231962E+02  0.26673231962E+02  0.00000000000E+00 0. -1.
         25    2    1    2    0    0 -0.12654485812E+03  0.47023081439E+02  0.50398701949E+03  0.53654030241E+03  0.12509120269E+03 0.  0.
          5    1    3    3  502    0 -0.10089382383E+03 -0.23005628687E+01  0.16852075194E+03  0.19647282894E+03  0.41800000000E+01 0. -1.
         -5    1    3    3    0  502 -0.25651034285E+02  0.49323644308E+02  0.33546626755E+03  0.34006747347E+03  0.41800000000E+01 0. -1.
        -11    1    1    2    0    0  0.79227293998E+02  0.17002071398E+02  0.25916232988E+03  0.27153480030E+03  0.00000000000E+00 0. -1.
         11    1    1    2    0    0  0.47317564122E+02 -0.64025152837E+02  0.37213389788E+03  0.38055460846E+03  0.00000000000E+00 0.  1.
</event>
<event>
 7    1  0.3256216E-009  0.1245355E+03  0.7561462E-02  0.1235797E+00
         -1   -1    0    0    0  501 -0.00000000000E+00  0.00000000000E+00  0.75031961893E+02  0.75031961893E+02  0.00000000000E+00 0.  1.
          1   -1    0    0  501    0  0.00000000000E+00 -0.00000000000E+00 -0.32400972308E+03  0.32400972308E+03  0.00000000000E+00 0. -1.
         25    2    1    2    0    0 -0.84795860185E+02 -0.53291587844E+02 -0.70911873559E+02  0.17522017169E+03  0.12507311269E+03 0.  0.
          5    1    3    3  502    0 -0.79210448746E+02 -0.22368352077E+02  0.14890866113E+02  0.83748723326E+02  0.41800000000E+01 0. -1.
         -5    1    3    3    0  502 -0.55854114387E+01 -0.30923235768E+02 -0.85802739672E+02  0.91471448367E+02  0.41800000000E+01 0. -1.
        -11    1    1    2    0    0  0.47635285021E+02 -0.20869243813E+02 -0.79454034545E+02  0.94960988421E+02  0.00000000000E+00 0.  1.
         11    1    1    2    0    0  0.37160575164E+02  0.74160831657E+02 -0.98611853085E+02  0.12886052486E+03  0.00000000000E+00 0. -1.
</event>
<event>
 7    1  0.2626349E-009  0.1197094E+03  0.7561462E-02  0.1243577E+00
          1   -1    0    0  501    0  0.00000000000E+00  0.00000000000E+00  0.86946468872E+02  0.86946468872E+02  0.00000000000E+00 0. -1.
         -1   -1    0    0    0  501 -0.00000000000E+00 -0.00000000000E+00 -0.28679359886E+03  0.28679359886E+03  0.00000000000E+00 0.  1.
         25    2    1    2    0    0 -0.14975878457E+02 -0.11124293938E+03 -0.16588167031E+03  0.23614186693E+03  0.12508790617E+03 0.  0.
          5    1    3    3  502    0 -0.19901669674E+02 -0.50675429016E+02 -0.16650277032E+03  0.17522762478E+03  0.41800000000E+01 0. -1.
         -5    1    3    3    0  502  0.49257912170E+01 -0.60567510369E+02  0.62110000393E+00  0.60914242149E+02  0.41800000000E+01 0. -1.
        -11    1    1    2    0    0 -0.19683431076E+02  0.45780184079E+02 -0.39111175952E+02  0.63347823937E+02  0.00000000000E+00 0. -1.
         11    1    1    2    0    0  0.34659309533E+02  0.65462755305E+02  0.51457162760E+01  0.74250376871E+02  0.00000000000E+00 0.  1.
</event>
<event>
 7    1  0.2626349E-009  0.7721816E+02  0.7561462E-02  0.1337137E+00
         -2   -1    0    0    0  501 -0.00000000000E+00  0.00000000000E+00  0.92197716970E+02  0.92197716970E+02  0.00000000000E+00 0. -1.
          2   -1    0    0  501    0  0.00000000000E+00 -0.00000000000E+00 -0.17438497055E+03  0.17438497055E+03  0.00000000000E+00 0.  1.
         25    2    1    2    0    0 -0.95745351523E+00 -0.55795304963E+02 -0.83737757573E+02  0.16054113520E+03  0.12508961297E+03 0.  0.
          5    1    3    3  502    0 -0.21473487416E+01  0.19104570591E+02 -0.83219517670E+02  0.85513485752E+02  0.41800000000E+01 0. -1.
         -5    1    3    3    0  502  0.11898952264E+01 -0.74899875554E+02 -0.51823990258E+00  0.75027649446E+02  0.41800000000E+01 0. -1.
        -11    1    1    2    0    0 -0.10138873694E+02  0.23722208903E+02  0.44417706082E+02  0.51366064367E+02  0.00000000000E+00 0. -1.
         11    1    1    2    0    0  0.11096327210E+02  0.32073096060E+02 -0.42867202092E+02  0.54675487959E+02  0.00000000000E+00 0.  1.
</event>
<event>
 7    1  0.2626349E-009  0.1005115E+03  0.7561462E-02  0.1279224E+00
         -2   -1    0    0    0  501 -0.00000000000E+00  0.00000000000E+00  0.27752613480E+02  0.27752613480E+02  0.00000000000E+00 0.  1.
          2   -1    0    0  501    0  0.00000000000E+00 -0.00000000000E+00 -0.58791516375E+03  0.58791516375E+03  0.00000000000E+00 0. -1.
         25    2    1    2    0    0 -0.70681191873E+01 -0.47711469535E+02 -0.42048357623E+03  0.44133384682E+03  0.12507111512E+03 0.  0.
          5    1    3    3  502    0  0.46465684220E+02  0.23446343559E+01 -0.76740192180E+02  0.89839226489E+02  0.41800000000E+01 0.  1.
         -5    1    3    3    0  502 -0.53533803407E+02 -0.50056103891E+02 -0.34374338405E+03  0.35149462033E+03  0.41800000000E+01 0.  1.
        -11    1    1    2    0    0 -0.40042834656E+01 -0.15867713046E+02  0.39823226846E+01  0.16842728323E+02  0.00000000000E+00 0.  1.
         11    1    1    2    0    0  0.11072402653E+02  0.63579182581E+02 -0.14366129672E+03  0.15749120209E+03  0.00000000000E+00 0. -1.
</event>
<event>
 7    1  0.2626349E-009  0.1402042E+03  0.7561462E-02  0.1213054E+00
         -1   -1    0    0    0  501 -0.00000000000E+00  0.00000000000E+00  0.53951807670E+03  0.53951807670E+03  0.00000000000E+00 0.  1.
          1   -1    0    0  501    0  0.00000000000E+00 -0.00000000000E+00 -0.51854363615E+02  0.51854363615E+02  0.00000000000E+00 0. -1.
         25    2    1    2    0    0 -0.96433452518E+02  0.64747673275E+02  0.16742412568E+03  0.23910138734E+03  0.12508782359E+03 0.  0.
          5    1    3    3  502    0 -0.92698899649E+02 -0.59953101794E+01  0.12709076762E+03  0.15747560241E+03  0.41800000000E+01 0.  1.
         -5    1    3    3    0  502 -0.37345528693E+01  0.70742983454E+02  0.40333358054E+02  0.81625784927E+02  0.41800000000E+01 0.  1.
        -11    1    1    2    0    0  0.44241014532E+02 -0.24687574007E+02  0.40394264281E+02  0.64795372242E+02  0.00000000000E+00 0. -1.
         11    1    1    2    0    0  0.52192437986E+02 -0.40060099267E+02  0.27984532313E+03  0.28747568074E+03  0.00000000000E+00 0.  1.
</event>
<event>
 7    1  0.2626349E-009  0.8976037E+02  0.7561462E-02  0.1303433E+00
          1   -1    0    0  501    0  0.00000000000E+00  0.00000000000E+00  0.54696468476E+03  0.54696468476E+03  0.00000000000E+00 0. -1.
         -1   -1    0    0    0  501 -0.00000000000E+00 -0.00000000000E+00 -0.28482078455E+02  0.28482078455E+02  0.00000000000E+00 0.  1.
         25    2    1    2    0    0 -0.24773623011E+02  0.79224876607E+01  0.41923044104E+03  0.43826744895E+03  0.12509075070E+03 0.  0.
          5    1    3    3  502    0 -0.63367799682E+02  0.28658540563E+02  0.14910227910E+03  0.16457749547E+03  0.41800000000E+01 0. -1.
         -5    1    3    3    0  502  0.38594176671E+02 -0.20736052902E+02  0.27012816194E+03  0.27368995348E+03  0.41800000000E+01 0. -1.
        -11    1    1    2    0    0  0.10621553579E+02  0.26537610964E+02 -0.26251433447E+01  0.28704591509E+02  0.00000000000E+00 0.  1.
         11    1    1    2    0    0  0.14152069432E+02 -0.34460098625E+02  0.10187730861E+03  0.10847472275E+03  0.00000000000E+00 0. -1.
</event>
<event>
 7    1  0.2626349E-009  0.1034441E+03  0.7561462E-02  0.1273216E+00
          2   -1    0    0  501    0  0.00000000000E+00  0.00000000000E+00  0.84323738837E+03  0.84323738837E+03  0.00000000000E+00 0. -1.
         -2   -1    0    0    0  501 -0.00000000000E+00 -0.00000000000E+00 -0.23755985670E+02  0.23755985670E+02  0.00000000000E+00 0.  1.
         25    2    1    2    0    0 -0.65085717530E+02  0.56791979426E+02  0.39466255754E+03  0.42292770728E+03  0.12509129350E+03 0.  0.
          5    1    3    3  502    0 -0.66186423947E+02  0.54621561272E+02  0.40366564095E+03  0.41270762018E+03  0.41800000000E+01 0. -1.
         -5    1    3    3    0  502  0.11007064172E+01  0.21704181543E+01 -0.90030834076E+01  0.10220087105E+02  0.41800000000E+01 0. -1.
        -11    1    1    2    0    0  0.41594316760E+02 -0.75436592672E+02  0.38322000361E+03  0.39278281259E+03  0.00000000000E+00 0. -1.
         11    1    1    2    0    0  0.23491400771E+02  0.18644613246E+02  0.41598841553E+02  0.51282854170E+02  0.00000000000E+00 0.  1.
</event>
<event>
 7    1  0.2626349E-009  0.1038386E+03  0.7561462E-02  0.1272425E+00
         -3   -1    0    0    0  501 -0.00000000000E+00  0.00000000000E+00  0.31642211048E+02  0.31642211048E+02  0.00000000000E+00 0.  1.
          3   -1    0    0  501    0  0.00000000000E+00 -0.00000000000E+00 -0.37863168595E+03  0.37863168595E+03  0.00000000000E+00 0. -1.
         25    2    1    2    0    0 -0.19231181222E+02  0.27252841840E+02 -0.22821039574E+03  0.26237555993E+03  0.12509354102E+03 0.  0.
          5    1    3    3  502    0  0.79138987398E+01  0.74364241245E+02 -0.12923919179E+03  0.14937506908E+03  0.41800000000E+01 0.  1.
         -5    1    3    3    0  502 -0.27145079962E+02 -0.47111399405E+02 -0.98971203948E+02  0.11300049084E+03  0.41800000000E+01 0.  1.
        -11    1    1    2    0    0  0.38010636123E+02  0.74980605730E+01 -0.24918778712E+02  0.46064898821E+02  0.00000000000E+00 0.  1.
         11    1    1    2    0    0 -0.18779454901E+02 -0.34750902413E+02 -0.93860300450E+02  0.10183343825E+03  0.00000000000E+00 0. -1.
</event>
<event>
 7    1  0.2626349E-009  0.9008164E+02  0.7561462E-02  0.1302654E+00
          1   -1    0    0  501    0  0.00000000000E+00  0.00000000000E+00  0.21577014429E+03  0.21577014429E+03  0.00000000000E+00 0. -1.
         -1   -1    0    0    0  501 -0.00000000000E+00 -0.00000000000E+00 -0.95722417218E+02  0.95722417218E+02  0.00000000000E+00 0.  1.
         25    2    1    2    0    0  0.46669036334E+02 -0.21204995827E+02  0.15338010912E+03  0.20445229540E+03  0.12509049692E+03 0.  0.
          5    1    3    3  502    0  0.54872875637E+02 -0.59644736423E+02  0.53941960190E+02  0.97446059606E+02  0.41800000000E+01 0.  1.
         -5    1    3    3    0  502 -0.82038393031E+01  0.38439740595E+02  0.99438148926E+02  0.10700623579E+03  0.41800000000E+01 0.  1.
        -11    1    1    2    0    0 -0.22385862721E+01  0.14352786890E+02 -0.55177782074E+02  0.57057877586E+02  0.00000000000E+00 0.  1.
         11    1    1    2    0    0 -0.44430450062E+02  0.68522089369E+01  0.21845400026E+02  0.49982388522E+02  0.00000000000E+00 0. -1.
</event>
<event>
 7    1  0.2626349E-009  0.8130386E+02  0.7561462E-02  0.1325391E+00
         -2   -1    0    0    0  501 -0.00000000000E+00  0.00000000000E+00  0.42380834848E+03  0.42380834848E+03  0.00000000000E+00 0.  1.
          2   -1    0    0  501    0  0.00000000000E+00 -0.00000000000E+00 -0.35373548509E+02  0.35373548509E+02  0.00000000000E+00 0. -1.
         25    2    1    2    0    0  0.22493411901E+02 -0.31263176615E+02  0.28683090482E+03  0.31528221097E+03  0.12509022664E+03 0.  0.
          5    1    3    3  502    0 -0.20285253286E+01  0.11784319998E+02 -0.88486824238E+01  0.15451753734E+02  0.41800000000E+01 0.  1.
         -5    1    3    3    0  502  0.24521937230E+02 -0.43047496613E+02  0.29567958725E+03  0.29983045723E+03  0.41800000000E+01 0.  1.
        -11    1    1    2    0    0  0.17538925915E+02  0.52184416611E+02  0.68591333967E+02  0.87952250424E+02  0.00000000000E+00 0. -1.
         11    1    1    2    0    0 -0.40032337816E+02 -0.20921239997E+02  0.33012561178E+02  0.55947435594E+02  0.00000000000E+00 0.  1.
</event>
<event>
 7    1  0.2626349E-009  0.1449435E+03  0.7561462E-02  0.1206828E+00
         -2   -1    0    0    0  501 -0.00000000000E+00  0.00000000000E+00  0.53541918875E+02  0.53541918875E+02  0.00000000000E+00 0.  1.
          2   -1    0    0  501    0  0.00000000000E+00 -0.00000000000E+00 -0.45545940439E+03  0.45545940439E+03  0.00000000000E+00 0. -1.
         25    2    1    2    0    0 -0.10599869967E+03 -0.43957281542E+02 -0.24099049788E+03  0.29477341292E+03  0.12508788095E+03 0.  0.
          5    1    3    3  502    0  0.29525607323E+01 -0.54050850968E+02 -0.46078196391E+02  0.71210144558E+02  0.41800000000E+01 0. -1.
         -5    1    3    3    0  502 -0.10895126040E+03  0.10093569426E+02 -0.19491230149E+03  0.22356326836E+03  0.41800000000E+01 0. -1.
        -11    1    1    2    0    0  0.66607197318E+02 -0.61820711889E+00 -0.13249368494E+03  0.14829523749E+03  0.00000000000E+00 0. -1.
         11    1    1    2    0    0  0.39391502355E+02  0.44575488661E+02 -0.28433302688E+02  0.65932672847E+02  0.00000000000E+00 0.  1.
</event>
<event>
 7    1  0.2626349E-009  0.9282295E+02  0.7561462E-02  0.1296156E+00
          1   -1    0    0  501    0  0.00000000000E+00  0.00000000000E+00  0.31689301704E+03  0.31689301704E+03  0.00000000000E+00 0. -1.
         -1   -1    0    0    0  501 -0.00000000000E+00 -0.00000000000E+00 -0.60058667419E+02  0.60058667419E+02  0.00000000000E+00 0.  1.
         25    2    1    2    0    0 -0.67589470534E+02  0.24679900498E+01  0.69940170816E+02  0.15847623954E+03  0.12509461820E+03 0.  0.
          5    1    3    3  502    0 -0.38354643433E+02 -0.24602259225E+02  0.98947301581E+02  0.10901555266E+03  0.41800000000E+01 0.  1.
         -5    1    3    3    0  502 -0.29234827101E+02  0.27070249275E+02 -0.29007130765E+02  0.49460686880E+02  0.41800000000E+01 0.  1.
        -11    1    1    2    0    0  0.66881405506E+02  0.25699775292E+02  0.17259952795E+03  0.18688016990E+03  0.00000000000E+00 0. -1.
         11    1    1    2    0    0  0.70806502783E+00 -0.28167765342E+02  0.14294650852E+02  0.31595275017E+02  0.00000000000E+00 0.  1.
</event>
<event>
 7    1  0.2626349E-009  0.1470579E+03  0.7561462E-02  0.1204136E+00
          1   -1    0    0  501    0  0.00000000000E+00  0.00000000000E+00  0.10560844928E+04  0.10560844928E+04  0.00000000000E+00 0. -1.
         -1   -1    0    0    0  501 -0.00000000000E+00 -0.00000000000E+00 -0.29059206271E+02  0.29059206271E+02  0.00000000000E+00 0.  1.
         25    2    1    2    0    0 -0.17791181763E+02 -0.13567549416E+03  0.53660529800E+03  0.56773004167E+03  0.12509112084E+03 0.  0.
          5    1    3    3  502    0 -0.39338676803E+02 -0.10785379173E+03  0.51164766896E+03  0.52438609959E+03  0.41800000000E+01 0. -1.
         -5    1    3    3    0  502  0.21547495040E+02 -0.27821702430E+02  0.24957629034E+02  0.43343942086E+02  0.41800000000E+01 0. -1.
        -11    1    1    2    0    0  0.33056668961E+01  0.12673016128E+03  0.48205235611E+03  0.49844351259E+03  0.00000000000E+00 0. -1.
         11    1    1    2    0    0  0.14485514867E+02  0.89453328815E+01  0.83676324031E+01  0.18970144790E+02  0.00000000000E+00 0.  1.
</event>
<event>
 7    1  0.2626349E-009  0.8568031E+02  0.7561462E-02  0.1313663E+00
         -2   -1    0    0    0  501 -0.00000000000E+00  0.00000000000E+00  0.15076778265E+02  0.15076778265E+02  0.00000000000E+00 0.  1.
          2   -1    0    0  501    0  0.00000000000E+00 -0.00000000000E+00 -0.95875293028E+03  0.95875293028E+03  0.00000000000E+00 0. -1.
         25    2    1    2    0    0 -0.38277908910E+02  0.32157954348E+02 -0.58376374259E+03  0.59910847683E+03  0.12510606506E+03 0.  0.
          5    1    3    3  502    0  0.69533508303E+00 -0.91844365887E+01 -0.48489585522E+03  0.48500134038E+03  0.41800000000E+01 0. -1.
         -5    1    3    3    0  502 -0.38973243993E+02  0.41342390937E+02 -0.98867887370E+02  0.11410713645E+03  0.41800000000E+01 0. -1.
        -11    1    1    2    0    0 -0.23422409042E+02 -0.35448617870E+02 -0.15084825945E+03  0.15671761590E+03  0.00000000000E+00 0.  1.
         11    1    1    2    0    0  0.61700317952E+02  0.32906635220E+01 -0.20906414998E+03  0.21800361582E+03  0.00000000000E+00 0. -1.
</event>
<event>
 7    1  0.2626349E-009  0.2054082E+03  0.7561462E-02  0.1145255E+00
         -2   -1    0    0    0  501 -0.00000000000E+00  0.00000000000E+00  0.92777422360E+02  0.92777422360E+02  0.00000000000E+00 0.  1.
          2   -1    0    0  501    0  0.00000000000E+00 -0.00000000000E+00 -0.46853188279E+03  0.46853188279E+03  0.00000000000E+00 0. -1.
         25    2    1    2    0    0 -0.15435261604E+03  0.92625229581E+02 -0.18119447235E+03  0.28439965238E+03  0.12509021635E+03 0.  0.
          5    1    3    3  502    0 -0.58701669240E+02  0.10443277913E+03 -0.77354550546E+02  0.14266495792E+03  0.41800000000E+01 0. -1.
         -5    1    3    3    0  502 -0.95650946803E+02 -0.11807549552E+02 -0.10383992181E+03  0.14173469445E+03  0.41800000000E+01 0. -1.
        -11    1    1    2    0    0  0.37005414515E+02 -0.63615803719E+02 -0.52619748534E+02  0.90472145559E+02  0.00000000000E+00 0.  1.
         11    1    1    2    0    0  0.11734720153E+03 -0.29009425862E+02 -0.14194023954E+03  0.18643750721E+03  0.00000000000E+00 0. -1.
</event>
<event>
 7    1  0.2626349E-009  0.1223070E+03  0.7561462E-02  0.1239339E+00
          2   -1    0    0  501    0  0.00000000000E+00  0.00000000000E+00  0.91794114027E+02  0.91794114027E+02  0.00000000000E+00 0. -1.
         -2   -1    0    0    0  501 -0.00000000000E+00 -0.00000000000E+00 -0.22856865886E+03  0.22856865886E+03  0.00000000000E+00 0.  1.
         25    2    1    2    0    0 -0.79401450103E+02 -0.46302846339E+02 -0.44095953353E+02  0.16137482266E+03  0.12509530938E+03 0.  0.
          5    1    3    3  502    0 -0.68423918913E+02  0.59932324651E+01  0.25627700044E+02  0.73430258915E+02  0.41800000000E+01 0. -1.
         -5    1    3    3    0  502 -0.10977531191E+02 -0.52296078804E+02 -0.69723653397E+02  0.87944563745E+02  0.41800000000E+01 0. -1.
        -11    1    1    2    0    0  0.29706491307E+02  0.63101639307E+02 -0.26661291930E+02  0.74666706077E+02  0.00000000000E+00 0. -1.
         11    1    1    2    0    0  0.49694958797E+02 -0.16798792968E+02 -0.66017299547E+02  0.84321244147E+02  0.00000000000E+00 0.  1.
</event>
<event>
 7    1  0.2626349E-009  0.1223791E+03  0.7561462E-02  0.1239223E+00
          2   -1    0    0  501    0  0.00000000000E+00  0.00000000000E+00  0.25228644983E+03  0.25228644983E+03  0.00000000000E+00 0. -1.
         -2   -1    0    0    0  501 -0.00000000000E+00 -0.00000000000E+00 -0.78529593814E+02  0.78529593814E+02  0.00000000000E+00 0.  1.
         25    2    1    2    0    0 -0.75815073728E+02 -0.35258072044E+02  0.13309970059E+03  0.20088266843E+03  0.12508900483E+03 0.  0.
          5    1    3    3  502    0 -0.11003593484E+03 -0.32808262129E+02  0.92075873643E+02  0.14724037465E+03  0.41800000000E+01 0.  1.
         -5    1    3    3    0  502  0.34220861114E+02 -0.24498099151E+01  0.41023826951E+02  0.53642293777E+02  0.41800000000E+01 0.  1.
        -11    1    1    2    0    0  0.43456188430E+02 -0.48916334061E+01  0.60526446718E+02  0.74671407798E+02  0.00000000000E+00 0. -1.
         11    1    1    2    0    0  0.32358885298E+02  0.40149705450E+02 -0.19869291301E+02  0.55261967412E+02  0.00000000000E+00 0.  1.
</event>
<event>
 7    1  0.2626349E-009  0.1095694E+03  0.7561462E-02  0.1261369E+00
         -1   -1    0    0    0  501 -0.00000000000E+00  0.00000000000E+00  0.11872365502E+02  0.11872365502E+02  0.00000000000E+00 0.  1.
          1   -1    0    0  501    0  0.00000000000E+00 -0.00000000000E+00 -0.16956165523E+04  0.16956165523E+04  0.00000000000E+00 0. -1.
         25    2    1    2    0    0  0.26243245644E+02 -0.52214853675E+02 -0.13382686865E+04  0.13453718147E+04  0.12508854361E+03 0.  0.
          5    1    3    3  502    0  0.64351806832E+02 -0.40477019920E+02 -0.46573826481E+03  0.47192070085E+03  0.41800000000E+01 0. -1.
         -5    1    3    3    0  502 -0.38108561188E+02 -0.11737833755E+02 -0.87253042166E+03  0.87345111386E+03  0.41800000000E+01 0. -1.
        -11    1    1    2    0    0 -0.45658100913E+02  0.65165588316E+02 -0.20848515103E+03  0.22315302884E+03  0.00000000000E+00 0.  1.
         11    1    1    2    0    0  0.19414855270E+02 -0.12950734641E+02 -0.13699034932E+03  0.13896407428E+03  0.00000000000E+00 0. -1.
</event>
<event>
 7    1  0.2626349E-009  0.1083721E+03  0.7561462E-02  0.1263614E+00
         -1   -1    0    0    0  501 -0.00000000000E+00  0.00000000000E+00  0.31539663339E+02  0.31539663339E+02  0.00000000000E+00 0.  1.
          1   -1    0    0  501    0  0.00000000000E+00 -0.00000000000E+00 -0.45372865905E+03  0.45372865905E+03  0.00000000000E+00 0. -1.
         25    2    1    2    0    0  0.10578475505E+02  0.32486217165E+02 -0.16444254112E+03  0.20941053789E+03  0.12507663891E+03 0.  0.
          5    1    3    3  502    0  0.63589903220E+02  0.39321737717E+02 -0.10939137226E+03  0.13256628370E+03  0.41800000000E+01 0.  1.
         -5    1    3    3    0  502 -0.53011427715E+02 -0.68355205524E+01 -0.55051168859E+02  0.76844254192E+02  0.41800000000E+01 0.  1.
        -11    1    1    2    0    0 -0.45241990680E+02 -0.28224239717E+02 -0.90822075918E+02  0.10531901491E+03  0.00000000000E+00 0.  1.
         11    1    1    2    0    0  0.34663515176E+02 -0.42619774478E+01 -0.16692437867E+03  0.17053876959E+03  0.00000000000E+00 0. -1.
</event>
<event>
 7    1  0.2626349E-009  0.1204094E+03  0.7561462E-02  0.1242423E+00
          1   -1    0    0  501    0  0.00000000000E+00  0.00000000000E+00  0.41000177912E+03  0.41000177912E+03  0.00000000000E+00 0. -1.
         -1   -1    0    0    0  501 -0.00000000000E+00 -0.00000000000E+00 -0.50545497495E+02  0.50545497495E+02  0.00000000000E+00 0.  1.
         25    2    1    2    0    0 -0.51106030235E+02 -0.69249758169E+02  0.24681118583E+03  0.28977923623E+03  0.12509551938E+03 0.  0.
          5    1    3    3  502    0  0.69167812931E+01 -0.75299320530E+02  0.68479732611E+02  0.10210179095E+03  0.41800000000E+01 0. -1.
         -5    1    3    3    0  502 -0.58022811528E+02  0.60495623606E+01  0.17833145322E+03  0.18767744529E+03  0.41800000000E+01 0. -1.
        -11    1    1    2    0    0  0.17987372259E+02  0.71187428090E+02  0.11614606706E+03  0.13740853093E+03  0.00000000000E+00 0. -1.
         11    1    1    2    0    0  0.33118657976E+02 -0.19376699205E+01 -0.35009712681E+01  0.33359509449E+02  0.00000000000E+00 0.  1.
</event>
<event>
 7    1  0.2626349E-009  0.1043847E+03  0.7561462E-02  0.1271337E+00
          2   -1    0    0  501    0  0.00000000000E+00  0.00000000000E+00  0.24111107572E+03  0.24111107572E+03  0.00000000000E+00 0. -1.
         -2   -1    0    0    0  501 -0.00000000000E+00 -0.00000000000E+00 -0.75058227732E+02  0.75058227732E+02  0.00000000000E+00 0.  1.
         25    2    1    2    0    0  0.24478094388E+02  0.60535795912E+02  0.89423352094E+02  0.16705841111E+03  0.12509283406E+03 0.  0.
          5    1    3    3  502    0 -0.24226161418E+02  0.66381701793E+02  0.71076335774E+01  0.71143714304E+02  0.41800000000E+01 0.  1.
         -5    1    3    3    0  502  0.48704255807E+02 -0.58459058803E+01  0.82315718517E+02  0.95914696810E+02  0.41800000000E+01 0.  1.
        -11    1    1    2    0    0 -0.17975947794E+02 -0.72736545959E+02  0.98182279035E+02  0.12350505955E+03  0.00000000000E+00 0. -1.
         11    1    1    2    0    0 -0.65021465948E+01  0.12200750047E+02 -0.21552783138E+02  0.25605832793E+02  0.00000000000E+00 0.  1.
</event>
<event>
 7    1  0.2626349E-009  0.9120025E+02  0.7561462E-02  0.1299971E+00
          2   -1    0    0  501    0  0.00000000000E+00  0.00000000000E+00  0.34766574515E+03  0.34766574515E+03  0.00000000000E+00 0. -1.
         -2   -1    0    0    0  501 -0.00000000000E+00 -0.00000000000E+00 -0.41926534366E+02  0.41926534366E+02  0.00000000000E+00 0.  1.
         25    2    1    2    0    0 -0.14061082074E+02  0.46627782185E+02  0.20409083102E+03  0.24428070082E+03  0.12509248333E+03 0.  0.
          5    1    3    3  502    0  0.18986724618E+02  0.82048276240E+02  0.14523455711E+03  0.16793738215E+03  0.41800000000E+01 0. -1.
         -5    1    3    3    0  502 -0.33047806691E+02 -0.35420494056E+02  0.58856273916E+02  0.76343318670E+02  0.41800000000E+01 0. -1.
        -11    1    1    2    0    0  0.16056543586E+01 -0.19952177361E+02  0.11224995685E+03  0.11402070128E+03  0.00000000000E+00 0. -1.
         11    1    1    2    0    0  0.12455427715E+02 -0.26675604823E+02 -0.10601577093E+02  0.31290877410E+02  0.00000000000E+00 0.  1.
</event>
<event>
 7    1  0.2626349E-009  0.9777557E+02  0.7561462E-02  0.1285044E+00
         -2   -1    0    0    0  501 -0.00000000000E+00  0.00000000000E+00  0.19947088541E+02  0.19947088541E+02  0.00000000000E+00 0.  1.
          2   -1    0    0  501    0  0.00000000000E+00 -0.00000000000E+00 -0.15975502263E+04  0.15975502263E+04  0.00000000000E+00 0. -1.
         25    2    1    2    0    0  0.43483562090E+02  0.97998886387E+01 -0.14436853184E+04  0.14497795081E+04  0.12508583223E+03 0.  0.
          5    1    3    3  502    0 -0.35634699214E+02 -0.29387632206E+01 -0.18090515592E+03  0.18445220507E+03  0.41800000000E+01 0. -1.
         -5    1    3    3    0  502  0.79118261304E+02  0.12738651859E+02 -0.12627801625E+04  0.12653273030E+04  0.41800000000E+01 0. -1.
        -11    1    1    2    0    0 -0.55136463189E+02  0.10282871396E+02 -0.13315638149E+03  0.14448663935E+03  0.00000000000E+00 0. -1.
         11    1    1    2    0    0  0.11652901099E+02 -0.20082760035E+02 -0.76143790270E+00  0.23231167476E+02  0.00000000000E+00 0.  1.
</event>
<event>
 7    1  0.2626349E-009  0.3245437E+03  0.7561462E-02  0.1073577E+00
          3   -1    0    0  501    0  0.00000000000E+00  0.00000000000E+00  0.58098178300E+02  0.58098178300E+02  0.00000000000E+00 0. -1.
         -3   -1    0    0    0  501 -0.00000000000E+00 -0.00000000000E+00 -0.22968807484E+04  0.22968807484E+04  0.00000000000E+00 0.  1.
         25    2    1    2    0    0  0.24476041211E+03  0.20401383867E+03 -0.15425135462E+04  0.15800395922E+04  0.12509103508E+03 0.  0.
          5    1    3    3  502    0  0.15156313155E+03  0.12849002386E+03 -0.65622150881E+03  0.68565677281E+03  0.41800000000E+01 0. -1.
         -5    1    3    3    0  502  0.93197280561E+02  0.75523814810E+02 -0.88629203741E+03  0.89438281943E+03  0.41800000000E+01 0. -1.
        -11    1    1    2    0    0 -0.75655693228E+02 -0.15792225552E+02 -0.94107353405E+02  0.12177591006E+03  0.00000000000E+00 0. -1.
         11    1    1    2    0    0 -0.16910471888E+03 -0.18822161312E+03 -0.60216167047E+03  0.65316342440E+03  0.00000000000E+00 0.  1.
</event>
<event>
 7    1  0.2626349E-009  0.3508669E+03  0.7561462E-02  0.1062260E+00
         -1   -1    0    0    0  501 -0.00000000000E+00  0.00000000000E+00  0.10068817808E+03  0.10068817808E+03  0.00000000000E+00 0.  1.
          1   -1    0    0  501    0  0.00000000000E+00 -0.00000000000E+00 -0.13714189523E+04  0.13714189523E+04  0.00000000000E+00 0. -1.
         25    2    1    2    0    0  0.32996818554E+03 -0.11190936407E+03 -0.50379972608E+03  0.62519149204E+03  0.12509008149E+03 0.  0.
          5    1    3    3  502    0  0.27100169551E+03 -0.73299363414E+02 -0.46865052754E+03  0.54631996578E+03  0.41800000000E+01 0. -1.
         -5    1    3    3    0  502  0.58966490026E+02 -0.38610000658E+02 -0.35149198543E+02  0.78871526262E+02  0.41800000000E+01 0. -1.
        -11    1    1    2    0    0 -0.78194470156E+02  0.43388269533E+02 -0.12254328434E+03  0.15170291241E+03  0.00000000000E+00 0.  1.
         11    1    1    2    0    0 -0.25177371538E+03  0.68521094540E+02 -0.64438776377E+03  0.69521272590E+03  0.00000000000E+00 0. -1.
</event>
<event>
 7    1  0.2626349E-009  0.8243650E+02  0.7561462E-02  0.1322276E+00
         -1   -1    0    0    0  501 -0.00000000000E+00  0.00000000000E+00  0.26761776320E+03  0.26761776320E+03  0.00000000000E+00 0.  1.
          1   -1    0    0  501    0  0.00000000000E+00 -0.00000000000E+00 -0.77251230820E+02  0.77251230820E+02  0.00000000000E+00 0. -1.
         25    2    1    2    0    0 -0.10740932293E+02  0.20256375179E+02  0.21252157222E+03  0.24766751205E+03  0.12509232393E+03 0.  0.
          5    1    3    3  502    0  0.93425152918E+01  0.56243005270E+02  0.38835573377E+02  0.69110291516E+02  0.41800000000E+01 0. -1.
         -5    1    3    3    0  502 -0.20083447585E+02 -0.35986630091E+02  0.17368599884E+03  0.17855722053E+03  0.41800000000E+01 0. -1.
        -11    1    1    2    0    0  0.11357719907E+02 -0.42520249654E+02  0.20904046426E+02  0.48723183282E+02  0.00000000000E+00 0.  1.
         11    1    1    2    0    0 -0.61678761374E+00  0.22263874475E+02 -0.43059086265E+02  0.48478298686E+02  0.00000000000E+00 0. -1.
</event>
<event>
 7    1  0.2626349E-009  0.1267842E+03  0.7561462E-02  0.1232307E+00
          2   -1    0    0  501    0  0.00000000000E+00  0.00000000000E+00  0.14097521441E+04  0.14097521441E+04  0.00000000000E+00 0. -1.
         -2   -1    0    0    0  501 -0.00000000000E+00 -0.00000000000E+00 -0.22690656293E+02  0.22690656293E+02  0.00000000000E+00 0.  1.
         25    2    1    2    0    0  0.98358075355E+02  0.31940297255E+02  0.11244790005E+04  0.11361311692E+04  0.12508604032E+03 0.  0.
          5    1    3    3  502    0  0.81582656194E+02 -0.57991160489E+01  0.10259682495E+04  0.10292315974E+04  0.41800000000E+01 0. -1.
         -5    1    3    3    0  502  0.16775419161E+02  0.37739413304E+02  0.98510750950E+02  0.10689957183E+03  0.41800000000E+01 0. -1.
        -11    1    1    2    0    0 -0.10917071006E+03 -0.40428314326E+02  0.25566664579E+03  0.28092370193E+03  0.00000000000E+00 0. -1.
         11    1    1    2    0    0  0.10812634709E+02  0.84880170706E+01  0.69158415110E+01  0.15387929261E+02  0.00000000000E+00 0.  1.
</event>
<event>
 7    1  0.2626349E-009  0.1097845E+03  0.7561462E-02  0.1260969E+00
          2   -1    0    0  501    0  0.00000000000E+00  0.00000000000E+00  0.68752679081E+03  0.68752679081E+03  0.00000000000E+00 0. -1.
         -2   -1    0    0    0  501 -0.00000000000E+00 -0.00000000000E+00 -0.25195508926E+02  0.25195508926E+02  0.00000000000E+00 0.  1.
         25    2    1    2    0    0  0.12585067830E+02 -0.64312782622E+02  0.28096689734E+03  0.31445844277E+03  0.12508875606E+03 0.  0.
          5    1    3    3  502    0 -0.72035935439E+01  0.21090215471E+02  0.28879288127E+01  0.22858291305E+02  0.41800000000E+01 0.  1.
         -5    1    3    3    0  502  0.19788661374E+02 -0.85402998093E+02  0.27807896852E+03  0.29160015147E+03  0.41800000000E+01 0.  1.
        -11    1    1    2    0    0  0.30737734845E+02 -0.99968189770E+00  0.59300879313E+02  0.66801212523E+02  0.00000000000E+00 0.  1.
         11    1    1    2    0    0 -0.43322802675E+02  0.65312464519E+02  0.32206350523E+03  0.33146264443E+03  0.00000000000E+00 0. -1.
</event>
<event>
 7    1  0.2626349E-009  0.1692161E+03  0.7561462E-02  0.1178668E+00
         -1   -1    0    0    0  501 -0.00000000000E+00  0.00000000000E+00  0.56075345522E+03  0.56075345522E+03  0.00000000000E+00 0.  1.
          1   -1    0    0  501    0  0.00000000000E+00 -0.00000000000E+00 -0.54533110649E+02  0.54533110649E+02  0.00000000000E+00 0. -1.
         25    2    1    2    0    0 -0.65173469493E+02  0.11969674357E+03  0.23795303513E+03  0.30140441069E+03  0.12509228716E+03 0.  0.
          5    1    3    3  502    0 -0.22901246040E+02 -0.23050063455E+02  0.23538239217E+02  0.40339727328E+02  0.41800000000E+01 0. -1.
         -5    1    3    3    0  502 -0.42272223453E+02  0.14274680703E+03  0.21441479591E+03  0.26106468336E+03  0.41800000000E+01 0. -1.
        -11    1    1    2    0    0  0.80566801885E+02 -0.77375116327E+02  0.22609728385E+03  0.25218624062E+03  0.00000000000E+00 0.  1.
         11    1    1    2    0    0 -0.15393332392E+02 -0.42321627248E+02  0.42170025584E+02  0.61695914555E+02  0.00000000000E+00 0. -1.
</event>
<event>
 7    1  0.2626349E-009  0.1651797E+03  0.7561462E-02  0.1182970E+00
         -2   -1    0    0    0  501 -0.00000000000E+00  0.00000000000E+00  0.40784873967E+02  0.40784873967E+02  0.00000000000E+00 0.  1.
          2   -1    0    0  501    0  0.00000000000E+00 -0.00000000000E+00 -0.69776394088E+03  0.69776394088E+03  0.00000000000E+00 0. -1.
         25    2    1    2    0    0 -0.11776481036E+03 -0.47395746914E+02 -0.39762056607E+03  0.43573447563E+03  0.12509001282E+03 0.  0.
          5    1    3    3  502    0  0.19186674743E+01 -0.54753658006E+02 -0.16640413847E+03  0.17524113116E+03  0.41800000000E+01 0. -1.
         -5    1    3    3    0  502 -0.11968347783E+03  0.73579110911E+01 -0.23121642759E+03  0.26049334447E+03  0.41800000000E+01 0. -1.
        -11    1    1    2    0    0  0.30920307745E+02 -0.27021214120E+02 -0.55114754069E+02  0.68730252143E+02  0.00000000000E+00 0.  1.
         11    1    1    2    0    0  0.86844502615E+02  0.74416961034E+02 -0.20424374678E+03  0.23408408708E+03  0.00000000000E+00 0. -1.
</event>
<event>
 7    1  0.2626349E-009  0.2589506E+03  0.7561462E-02  0.1107775E+00
          1   -1    0    0  501    0  0.00000000000E+00  0.00000000000E+00  0.15689240619E+03  0.15689240619E+03  0.00000000000E+00 0. -1.
         -1   -1    0    0    0  501 -0.00000000000E+00 -0.00000000000E+00 -0.44079286929E+03  0.44079286929E+03  0.00000000000E+00 0.  1.
         25    2    1    2    0    0 -0.20839964876E+03  0.11695513639E+03 -0.13388299749E+03  0.30113361998E+03  0.12509149667E+03 0.  0.
          5    1    3    3  502    0 -0.20119199641E+03  0.61402473498E+02 -0.12363670830E+03  0.24403276667E+03  0.41800000000E+01 0. -1.
         -5    1    3    3    0  502 -0.72076523452E+01  0.55552662891E+02 -0.10246289190E+02  0.57100853310E+02  0.41800000000E+01 0. -1.
        -11    1    1    2    0    0  0.59585072435E+02 -0.76783681213E+02 -0.31680210687E+02  0.10222402021E+03  0.00000000000E+00 0.  1.
         11    1    1    2    0    0  0.14881457632E+03 -0.40171455176E+02 -0.11833725493E+03  0.19432763530E+03  0.00000000000E+00 0. -1.
</event>
<event>
 7    1  0.2626349E-009  0.1114917E+03  0.7561462E-02  0.1257832E+00
         -2   -1    0    0    0  501 -0.00000000000E+00  0.00000000000E+00  0.31643455981E+02  0.31643455981E+02  0.00000000000E+00 0.  1.
          2   -1    0    0  501    0  0.00000000000E+00 -0.00000000000E+00 -0.51648463143E+03  0.51648463143E+03  0.00000000000E+00 0. -1.
         25    2    1    2    0    0 -0.26245647844E+02 -0.48478241110E+02 -0.34839289949E+03  0.37425024108E+03  0.12508659658E+03 0.  0.
          5    1    3    3  502    0 -0.34962494773E+02  0.36110384206E+02 -0.15345668433E+03  0.16153254240E+03  0.41800000000E+01 0.  1.
         -5    1    3    3    0  502  0.87168469287E+01 -0.84588625316E+02 -0.19493621516E+03  0.21271769868E+03  0.41800000000E+01 0.  1.
        -11    1    1    2    0    0  0.26979759330E+02  0.65256376544E+02 -0.51790377420E+02  0.87570230595E+02  0.00000000000E+00 0.  1.
         11    1    1    2    0    0 -0.73411148594E+00 -0.16778135434E+02 -0.84657898537E+02  0.86307615730E+02  0.00000000000E+00 0. -1.
</event>
<event>
 7    1  0.2626349E-009  0.1072691E+03  0.7561462E-02  0.1265712E+00
          1   -1    0    0  501    0  0.00000000000E+00  0.00000000000E+00  0.20218933833E+02  0.20218933833E+02  0.00000000000E+00 0.  1.
         -1   -1    0    0    0  501 -0.00000000000E+00 -0.00000000000E+00 -0.81101319916E+03  0.81101319916E+03  0.00000000000E+00 0. -1.
         25    2    1    2    0    0  0.37209367462E+02  0.22663107101E+01 -0.63031510177E+03  0.64368853821E+03  0.12509249984E+03 0.  0.
          5    1    3    3  502    0 -0.44820656285E+01 -0.52241352468E+02 -0.16126047923E+03  0.16962211643E+03  0.41800000000E+01 0.  1.
         -5    1    3    3    0  502  0.41691433091E+02  0.54507663178E+02 -0.46905462253E+03  0.47406642178E+03  0.41800000000E+01 0.  1.
        -11    1    1    2    0    0 -0.57428709994E+02  0.22091297036E+02 -0.12888121675E+03  0.14281614113E+03  0.00000000000E+00 0. -1.
         11    1    1    2    0    0  0.20219342532E+02 -0.24357607746E+02 -0.31597946803E+02  0.44727453646E+02  0.00000000000E+00 0.  1.
</event>
<event>
 7    1  0.2626349E-009  0.1198423E+03  0.7561462E-02  0.1243358E+00
         -1   -1    0    0    0  501 -0.00000000000E+00  0.00000000000E+00  0.12652473464E+02  0.12652473464E+02  0.00000000000E+00 0.  1.
          1   -1    0    0  501    0  0.00000000000E+00 -0.00000000000E+00 -0.14602405183E+04  0.14602405183E+04  0.00000000000E+00 0. -1.
         25    2    1    2    0    0 -0.64844543181E+02  0.27619929922E+02 -0.10348186372E+04  0.10447318399E+04  0.12508928863E+03 0.  0.
          5    1    3    3  502    0 -0.92415534269E+02 -0.55240488477E+01 -0.52850946593E+03  0.53657326999E+03  0.41800000000E+01 0. -1.
         -5    1    3    3    0  502  0.27570991088E+02  0.33143978769E+02 -0.50630917123E+03  0.50815856988E+03  0.41800000000E+01 0. -1.
        -11    1    1    2    0    0  0.49185792898E+02  0.20353568771E+02 -0.12291104110E+03  0.13394265194E+03  0.00000000000E+00 0.  1.
         11    1    1    2    0    0  0.15658750283E+02 -0.47973498693E+02 -0.28985836660E+03  0.29421849997E+03  0.00000000000E+00 0. -1.
</event>
<event>
 7    1  0.2626349E-009  0.1345531E+03  0.7561462E-02  0.1220852E+00
         -2   -1    0    0    0  501 -0.00000000000E+00  0.00000000000E+00  0.33382710444E+02  0.33382710444E+02  0.00000000000E+00 0.  1.
          2   -1    0    0  501    0  0.00000000000E+00 -0.00000000000E+00 -0.74123410480E+03  0.74123410480E+03  0.00000000000E+00 0. -1.
         25    2    1    2    0    0  0.45970571364E+02  0.10605526204E+03 -0.38683546877E+03  0.42267026429E+03  0.12508980925E+03 0.  0.
          5    1    3    3  502    0 -0.18653954258E+02 -0.32850694600E+01 -0.46991393161E+01  0.19957855625E+02  0.41800000000E+01 0. -1.
         -5    1    3    3    0  502  0.64624525622E+02  0.10934033150E+03 -0.38213632946E+03  0.40271240867E+03  0.41800000000E+01 0. -1.
        -11    1    1    2    0    0  0.45715881172E+01 -0.35761158024E+02 -0.25894924337E+02  0.44388139718E+02  0.00000000000E+00 0.  1.
         11    1    1    2    0    0 -0.50542159481E+02 -0.70294104017E+02 -0.29512100125E+03  0.30755841124E+03  0.00000000000E+00 0. -1.
</event>
<event>
 7    1  0.2626349E-009  0.1453979E+03  0.7561462E-02  0.1206245E+00
          1   -1    0    0  501    0  0.00000000000E+00  0.00000000000E+00  0.34550752502E+03  0.34550752502E+03  0.00000000000E+00 0. -1.
         -1   -1    0    0    0  501 -0.00000000000E+00 -0.00000000000E+00 -0.65053693958E+02  0.65053693958E+02  0.00000000000E+00 0.  1.
         25    2    1    2    0    0 -0.51493546431E+02 -0.85468832565E+02  0.16980214575E+03  0.23331743279E+03  0.12509096321E+03 0.  0.
          5    1    3    3  502    0  0.34626569593E+02 -0.50787703575E+02  0.39198417065E+02  0.73023136447E+02  0.41800000000E+01 0.  1.
         -5    1    3    3    0  502 -0.86120116024E+02 -0.34681128990E+02  0.13060372869E+03  0.16029429634E+03  0.41800000000E+01 0.  1.
        -11    1    1    2    0    0 -0.19469311920E+02  0.56220306508E+02  0.32888151731E+02  0.67980934789E+02  0.00000000000E+00 0.  1.
         11    1    1    2    0    0  0.70962858350E+02  0.29248526057E+02  0.77763533578E+02  0.10926285140E+03  0.00000000000E+00 0. -1.
</event>
<event>
 7    1  0.2626349E-009  0.3842552E+03  0.7561462E-02  0.1049372E+00
         -1   -1    0    0    0  501 -0.00000000000E+00  0.00000000000E+00  0.32747944402E+03  0.32747944402E+03  0.00000000000E+00 0.  1.
          1   -1    0    0  501    0  0.00000000000E+00 -0.00000000000E+00 -0.56009045267E+03  0.56009045267E+03  0.00000000000E+00 0. -1.
         25    2    1    2    0    0 -0.37416555151E+03  0.41347138303E+02 -0.29607568645E+03  0.49499260209E+03  0.12508964082E+03 0.  0.
          5    1    3    3  502    0 -0.24686566434E+03 -0.16796136767E+02 -0.13620256274E+03  0.28247721490E+03  0.41800000000E+01 0.  1.
         -5    1    3    3    0  502 -0.12729988716E+03  0.58143275070E+02 -0.15987312371E+03  0.21251538719E+03  0.41800000000E+01 0.  1.
        -11    1    1    2    0    0  0.17548884355E+03 -0.49004333720E+02 -0.50687052004E+01  0.18227301146E+03  0.00000000000E+00 0.  1.
         11    1    1    2    0    0  0.19867670795E+03  0.76571954168E+01  0.68533382998E+02  0.21030428315E+03  0.00000000000E+00 0. -1.
</event>
<event>
 7    1  0.2626349E-009  0.1471761E+03  0.7561462E-02  0.1203987E+00
         -1   -1    0    0    0  501 -0.00000000000E+00  0.00000000000E+00  0.11908214624E+03  0.11908214624E+03  0.00000000000E+00 0.  1.
          1   -1    0    0  501    0  0.00000000000E+00 -0.00000000000E+00 -0.26692898239E+03  0.26692898239E+03  0.00000000000E+00 0. -1.
         25    2    1    2    0    0  0.12121460168E+03  0.68084209654E+02 -0.49756281715E+02  0.19353255835E+03  0.12510285490E+03 0.  0.
          5    1    3    3  502    0  0.11299326735E+02  0.81522356769E+01 -0.65671316407E+02  0.67263124592E+02  0.41800000000E+01 0. -1.
         -5    1    3    3    0  502  0.10991527495E+03  0.59931973977E+02  0.15915034692E+02  0.12626943376E+03  0.41800000000E+01 0. -1.
        -11    1    1    2    0    0 -0.50229739547E+02 -0.66759949087E+02 -0.18023992826E+02  0.85468016559E+02  0.00000000000E+00 0.  1.
         11    1    1    2    0    0 -0.70984862136E+02 -0.13242605662E+01 -0.80066561612E+02  0.10701055372E+03  0.00000000000E+00 0. -1.
</event>
<event>
 7    1  0.2626349E-009  0.1767576E+03  0.7561462E-02  0.1170978E+00
          2   -1    0    0  501    0  0.00000000000E+00  0.00000000000E+00  0.82135903026E+03  0.82135903026E+03  0.00000000000E+00 0.  1.
         -2   -1    0    0    0  501 -0.00000000000E+00 -0.00000000000E+00 -0.43662357372E+02  0.43662357372E+02  0.00000000000E+00 0. -1.
         25    2    1    2    0    0  0.48681541108E+02 -0.14739459667E+03  0.37478046469E+03  0.42450593049E+03  0.12509927552E+03 0.  0.
          5    1    3    3  502    0  0.41059969246E+02 -0.15613950274E+02  0.20346115926E+03  0.20819133566E+03  0.41800000000E+01 0.  1.
         -5    1    3    3    0  502  0.76215718616E+01 -0.13178064639E+03  0.17131930543E+03  0.21631459483E+03  0.41800000000E+01 0.  1.
        -11    1    1    2    0    0 -0.63328753586E+02  0.55317952063E+02  0.17087364960E+03  0.19044267111E+03  0.00000000000E+00 0.  1.
         11    1    1    2    0    0  0.14647212479E+02  0.92076644604E+02  0.23204255860E+03  0.25007278604E+03  0.00000000000E+00 0. -1.
</event>
<event>
 7    1  0.2626349E-009  0.9426517E+02  0.7561462E-02  0.1292840E+00
         -1   -1    0    0    0  501 -0.00000000000E+00  0.00000000000E+00  0.51271937461E+03  0.51271937461E+03  0.00000000000E+00 0.  1.
          1   -1    0    0  501    0  0.00000000000E+00 -0.00000000000E+00 -0.27757826038E+02  0.27757826038E+02  0.00000000000E+00 0. -1.
         25    2    1    2    0    0 -0.40370134385E+02  0.20824544023E+02  0.31581220020E+03  0.34270560785E+03  0.12508548467E+03 0.  0.
          5    1    3    3  502    0  0.34500175247E+02 -0.24797777295E+02  0.73685634060E+02  0.85160066449E+02  0.41800000000E+01 0.  1.
         -5    1    3    3    0  502 -0.74870309632E+02  0.45622321318E+02  0.24212656614E+03  0.25754554140E+03  0.41800000000E+01 0.  1.
        -11    1    1    2    0    0  0.43802773272E+02 -0.76718781322E+01  0.17670838626E+03  0.18221798603E+03  0.00000000000E+00 0.  1.
         11    1    1    2    0    0 -0.34326388872E+01 -0.13152665891E+02 -0.75590378803E+01  0.15553606766E+02  0.00000000000E+00 0. -1.
</event>
<event>
 7    1  0.2626349E-009  0.9008839E+02  0.7561462E-02  0.1302638E+00
          3   -1    0    0  501    0  0.00000000000E+00  0.00000000000E+00  0.21640678209E+03  0.21640678209E+03  0.00000000000E+00 0. -1.
         -3   -1    0    0    0  501 -0.00000000000E+00 -0.00000000000E+00 -0.75399719485E+02  0.75399719485E+02  0.00000000000E+00 0.  1.
         25    2    1    2    0    0  0.33081604945E+02  0.47337676609E+02  0.25844491671E+02  0.14016476181E+03  0.12507187730E+03 0.  0.
          5    1    3    3  502    0  0.45425260956E+02  0.74684470970E+02 -0.15534607836E+02  0.88882062181E+02  0.41800000000E+01 0. -1.
         -5    1    3    3    0  502 -0.12343656011E+02 -0.27346794361E+02  0.41379099507E+02  0.51282699632E+02  0.41800000000E+01 0. -1.
        -11    1    1    2    0    0 -0.39153358453E+01 -0.25844177087E+02  0.11229606077E+03  0.11529812058E+03  0.00000000000E+00 0. -1.
         11    1    1    2    0    0 -0.29166269099E+02 -0.21493499522E+02  0.28665101626E+01  0.36343619184E+02  0.00000000000E+00 0.  1.
</event>
<event>
 7    1  0.2863734E-009  0.1402804E+03  0.7561462E-02  0.1212952E+00
         -1   -1    0    0    0  501 -0.00000000000E+00  0.00000000000E+00  0.27287088605E+02  0.27287088605E+02  0.00000000000E+00 0.  1.
          1   -1    0    0  501    0  0.00000000000E+00 -0.00000000000E+00 -0.94317441379E+03  0.94317441379E+03  0.00000000000E+00 0. -1.
         25    2    1    2    0    0  0.29597059713E+01  0.11765730123E+03 -0.51776836782E+03  0.54551176180E+03  0.12508796571E+03 0.  0.
          5    1    3    3  502    0  0.56833851175E+02  0.48342795780E+02 -0.15259876900E+03  0.16991459397E+03  0.41800000000E+01 0. -1.
         -5    1    3    3    0  502 -0.53874145203E+02  0.69314505453E+02 -0.36516959882E+03  0.37559716784E+03  0.41800000000E+01 0. -1.
        -11    1    1    2    0    0 -0.36968305529E+01 -0.24090099662E+02 -0.11101139856E+02  0.26781239029E+02  0.00000000000E+00 0.  1.
         11    1    1    2    0    0  0.73712458160E+00 -0.93567201572E+02 -0.38701781752E+03  0.39816850157E+03  0.00000000000E+00 0. -1.
</event>
<event>
 7    1  0.2626349E-009  0.1458368E+03  0.7561462E-02  0.1205684E+00
          2   -1    0    0  501    0  0.00000000000E+00  0.00000000000E+00  0.34563729173E+03  0.34563729173E+03  0.00000000000E+00 0. -1.
         -2   -1    0    0    0  501 -0.00000000000E+00 -0.00000000000E+00 -0.16757672012E+03  0.16757672012E+03  0.00000000000E+00 0.  1.
         25    2    1    2    0    0  0.11569256765E+03 -0.30843070350E+02 -0.97920609411E+02  0.19892618331E+03  0.12508843056E+03 0.  0.
          5    1    3    3  502    0 -0.24069199322E+02 -0.10349000239E+02  0.79667608851E+00  0.26543082992E+02  0.41800000000E+01 0. -1.
         -5    1    3    3    0  502  0.13976176697E+03 -0.20494070111E+02 -0.98717285500E+02  0.17238310031E+03  0.41800000000E+01 0. -1.
        -11    1    1    2    0    0 -0.67672197499E+02  0.33935883684E+02  0.71189687193E+02  0.10391892069E+03  0.00000000000E+00 0.  1.
         11    1    1    2    0    0 -0.48020370153E+02 -0.30928133346E+01  0.20479149383E+03  0.21036890785E+03  0.00000000000E+00 0. -1.
</event>
<event>
 7    1  0.2626349E-009  0.1061768E+03  0.7561462E-02  0.1267818E+00
         -2   -1    0    0    0  501 -0.00000000000E+00  0.00000000000E+00  0.28064354782E+02  0.28064354782E+02  0.00000000000E+00 0.  1.
          2   -1    0    0  501    0  0.00000000000E+00 -0.00000000000E+00 -0.53808979758E+03  0.53808979758E+03  0.00000000000E+00 0. -1.
         25    2    1    2    0    0 -0.40410507682E+02 -0.33557027601E+02 -0.22209773745E+03  0.26026497296E+03  0.12510542730E+03 0.  0.
          5    1    3    3  502    0 -0.87738012061E+01  0.37545364474E+02 -0.19948103775E+02  0.43612305893E+02  0.41800000000E+01 0.  1.
         -5    1    3    3    0  502 -0.31636706476E+02 -0.71102392075E+02 -0.20214963367E+03  0.21665266707E+03  0.41800000000E+01 0.  1.
        -11    1    1    2    0    0  0.35877418821E+02  0.59402138139E+02 -0.25212145029E+03  0.26149766518E+03  0.00000000000E+00 0. -1.
         11    1    1    2    0    0  0.45330888607E+01 -0.25845110538E+02 -0.35806255066E+02  0.44391514225E+02  0.00000000000E+00 0.  1.
</event>
<event>
 7    1  0.2626349E-009  0.1002456E+03  0.7561462E-02  0.1279780E+00
          2   -1    0    0  501    0  0.00000000000E+00  0.00000000000E+00  0.93042145688E+03  0.93042145688E+03  0.00000000000E+00 0. -1.
         -2   -1    0    0    0  501 -0.00000000000E+00 -0.00000000000E+00 -0.21033290940E+02  0.21033290940E+02  0.00000000000E+00 0.  1.
         25    2    1    2    0    0  0.40550064512E+02  0.59420364230E+02  0.67295701757E+03  0.68825400807E+03  0.12508934690E+03 0.  0.
          5    1    3    3  502    0 -0.10744279561E+02 -0.38444840830E+01  0.19489842905E+01  0.12308149370E+02  0.41800000000E+01 0.  1.
         -5    1    3    3    0  502  0.51294344073E+02  0.63264848313E+02  0.67100803328E+03  0.67594585870E+03  0.41800000000E+01 0.  1.
        -11    1    1    2    0    0 -0.53436613037E+02 -0.83151293307E+01  0.17004119491E+03  0.17843379992E+03  0.00000000000E+00 0. -1.
         11    1    1    2    0    0  0.12886548525E+02 -0.51105234899E+02  0.66389953452E+02  0.84766939820E+02  0.00000000000E+00 0.  1.
</event>
<event>
 7    1  0.2626349E-009  0.1434815E+03  0.7561462E-02  0.1208720E+00
          3   -1    0    0  501    0  0.00000000000E+00  0.00000000000E+00  0.19082465440E+03  0.19082465440E+03  0.00000000000E+00 0. -1.
         -3   -1    0    0    0  501 -0.00000000000E+00 -0.00000000000E+00 -0.12312333966E+03  0.12312333966E+03  0.00000000000E+00 0.  1.
         25    2    1    2    0    0 -0.10003133312E+03 -0.30794393045E+02  0.86295864430E+01  0.16333132447E+03  0.12509232408E+03 0.  0.
          5    1    3    3  502    0 -0.11987635908E+03 -0.39790180989E+02  0.32757972167E+02  0.13055327307E+03  0.41800000000E+01 0.  1.
         -5    1    3    3    0  502  0.19845025961E+02  0.89957879446E+01 -0.24128385724E+02  0.32778051403E+02  0.41800000000E+01 0.  1.
        -11    1    1    2    0    0  0.55777879989E+02  0.62643771258E+02  0.39199266963E+02  0.92585077113E+02  0.00000000000E+00 0.  1.
         11    1    1    2    0    0  0.44253453126E+02 -0.31849378214E+02  0.19872461337E+02  0.58031592480E+02  0.00000000000E+00 0. -1.
</event>
<event>
 7    1  0.2626349E-009  0.1145039E+03  0.7561462E-02  0.1252450E+00
         -1   -1    0    0    0  501 -0.00000000000E+00  0.00000000000E+00  0.25098369329E+02  0.25098369329E+02  0.00000000000E+00 0.  1.
          1   -1    0    0  501    0  0.00000000000E+00 -0.00000000000E+00 -0.73060151024E+03  0.73060151024E+03  0.00000000000E+00 0. -1.
         25    2    1    2    0    0 -0.26322796252E+02 -0.40953635518E+02 -0.56132643078E+03  0.57715434673E+03  0.12509871383E+03 0.  0.
          5    1    3    3  502    0  0.37059949458E+02  0.20840405942E+02 -0.24279842911E+03  0.24652852158E+03  0.41800000000E+01 0.  1.
         -5    1    3    3    0  502 -0.63382745711E+02 -0.61794041460E+02 -0.31852800166E+03  0.33062582515E+03  0.41800000000E+01 0.  1.
        -11    1    1    2    0    0  0.64654276442E+01 -0.26537693468E+02 -0.75257025207E+02  0.80060419511E+02  0.00000000000E+00 0. -1.
         11    1    1    2    0    0  0.19857368608E+02  0.67491328986E+02 -0.68919684931E+02  0.98485113328E+02  0.00000000000E+00 0.  1.
</event>
<event>
 7    1  0.2626349E-009  0.1155241E+03  0.7561462E-02  0.1250669E+00
         -2   -1    0    0    0  501 -0.00000000000E+00  0.00000000000E+00  0.94664627849E+02  0.94664627849E+02  0.00000000000E+00 0.  1.
          2   -1    0    0  501    0  0.00000000000E+00 -0.00000000000E+00 -0.28919955900E+03  0.28919955900E+03  0.00000000000E+00 0. -1.
         25    2    1    2    0    0 -0.68652941425E+01  0.89810144563E+02 -0.20435781099E+03  0.25597411392E+03  0.12509051824E+03 0.  0.
          5    1    3    3  502    0 -0.35247971044E+02  0.92310449868E+02 -0.76830934386E+02  0.12523619084E+03  0.41800000000E+01 0.  1.
         -5    1    3    3    0  502  0.28382676901E+02 -0.25003053041E+01 -0.12752687661E+03  0.13073792308E+03  0.41800000000E+01 0.  1.
        -11    1    1    2    0    0  0.27978021303E+02 -0.65051419191E+02 -0.29619993970E+02  0.76758067052E+02  0.00000000000E+00 0. -1.
         11    1    1    2    0    0 -0.21112727161E+02 -0.24758725372E+02  0.39442873813E+02  0.51132005875E+02  0.00000000000E+00 0.  1.
</event>
<event>
 7    1  0.2626349E-009  0.8287656E+02  0.7561462E-02  0.1321081E+00
         -1   -1    0    0    0  501 -0.00000000000E+00  0.00000000000E+00  0.12695464530E+02  0.12695464530E+02  0.00000000000E+00 0.  1.
          1   -1    0    0  501    0  0.00000000000E+00 -0.00000000000E+00 -0.11974122198E+04  0.11974122198E+04  0.00000000000E+00 0. -1.
         25    2    1    2    0    0  0.17678257377E+02 -0.53299965103E+02 -0.74721713569E+03  0.75969400735E+03  0.12509248524E+03 0.  0.
          5    1    3    3  502    0 -0.88293330389E-01 -0.30441756547E+02 -0.71692868951E+03  0.71758687737E+03  0.41800000000E+01 0. -1.
         -5    1    3    3    0  502  0.17766550708E+02 -0.22858208556E+02 -0.30288446182E+02  0.42107129973E+02  0.41800000000E+01 0. -1.
        -11    1    1    2    0    0 -0.51544111811E+01  0.77952812691E+02 -0.35153836384E+03  0.36011446821E+03  0.00000000000E+00 0. -1.
         11    1    1    2    0    0 -0.12523846196E+02 -0.24652847588E+02 -0.85961255781E+02  0.90299208819E+02  0.00000000000E+00 0.  1.
</event>
<event>
 7    1  0.2626349E-009  0.1514242E+03  0.7561462E-02  0.1198734E+00
         -1   -1    0    0    0  501 -0.00000000000E+00  0.00000000000E+00  0.20617394567E+03  0.20617394567E+03  0.00000000000E+00 0.  1.
          1   -1    0    0  501    0  0.00000000000E+00 -0.00000000000E+00 -0.14112639921E+03  0.14112639921E+03  0.00000000000E+00 0. -1.
         25    2    1    2    0    0  0.75238115396E+02 -0.79773399021E+02  0.11151753669E+03  0.20026281019E+03  0.12507782759E+03 0.  0.
          5    1    3    3  502    0  0.10800051799E+03 -0.74986428864E+02  0.77846138050E+02  0.15285473499E+03  0.41800000000E+01 0. -1.
         -5    1    3    3    0  502 -0.32762402597E+02 -0.47869701570E+01  0.33671398641E+02  0.47408075194E+02  0.41800000000E+01 0. -1.
        -11    1    1    2    0    0 -0.77970409136E+02  0.94748866798E+02 -0.33918179390E+02  0.12730740494E+03  0.00000000000E+00 0.  1.
         11    1    1    2    0    0  0.27322937398E+01 -0.14975467777E+02 -0.12551810839E+02  0.19730129740E+02  0.00000000000E+00 0. -1.
</event>
<event>
 7    1  0.2626349E-009  0.9997480E+02  0.7561462E-02  0.1280349E+00
          4   -1    0    0  501    0  0.00000000000E+00  0.00000000000E+00  0.15560625492E+03  0.15560625492E+03  0.00000000000E+00 0. -1.
         -4   -1    0    0    0  501 -0.00000000000E+00 -0.00000000000E+00 -0.92534052703E+02  0.92534052703E+02  0.00000000000E+00 0.  1.
         25    2    1    2    0    0  0.23477115026E+02 -0.25726872870E+02  0.57176308682E+02  0.14187375494E+03  0.12508391243E+03 0.  0.
          5    1    3    3  502    0 -0.42546850341E+02 -0.37665183896E+02  0.58131548495E+01  0.57272731043E+02  0.41800000000E+01 0. -1.
         -5    1    3    3    0  502  0.66023965367E+02  0.11938311026E+02  0.51363153832E+02  0.84601023898E+02  0.41800000000E+01 0. -1.
        -11    1    1    2    0    0  0.22933535282E+02  0.16943029109E+02 -0.34045540567E+02  0.44408468882E+02  0.00000000000E+00 0.  1.
         11    1    1    2    0    0 -0.46410650308E+02  0.87838437615E+01  0.39941434104E+02  0.61858083801E+02  0.00000000000E+00 0. -1.
</event>
<event>
 7    1  0.2626349E-009  0.8938340E+02  0.7561462E-02  0.1304352E+00
          2   -1    0    0  501    0  0.00000000000E+00  0.00000000000E+00  0.19475660433E+04  0.19475660433E+04  0.00000000000E+00 0. -1.
         -2   -1    0    0    0  501 -0.00000000000E+00 -0.00000000000E+00 -0.85506218742E+01  0.85506218742E+01  0.00000000000E+00 0.  1.
         25    2    1    2    0    0 -0.54316804201E+02 -0.23645950271E+02  0.13508952795E+04  0.13579663044E+04  0.12507990009E+03 0.  0.
          5    1    3    3  502    0 -0.36031314415E+02  0.38012786428E+01  0.12697697212E+04  0.12702934002E+04  0.41800000000E+01 0. -1.
         -5    1    3    3    0  502 -0.18285489786E+02 -0.27447228914E+02  0.81125558278E+02  0.87672904125E+02  0.41800000000E+01 0. -1.
        -11    1    1    2    0    0  0.31084854268E+02 -0.34498381895E+02  0.24357610816E+03  0.24796315650E+03  0.00000000000E+00 0.  1.
         11    1    1    2    0    0  0.23231949933E+02  0.58144332166E+02  0.34454403380E+03  0.35018720435E+03  0.00000000000E+00 0. -1.
</event>
<event>
 7    1  0.2626349E-009  0.1022937E+03  0.7561462E-02  0.1275545E+00
          1   -1    0    0  501    0  0.00000000000E+00  0.00000000000E+00  0.37379672572E+03  0.37379672572E+03  0.00000000000E+00 0. -1.
         -1   -1    0    0    0  501 -0.00000000000E+00 -0.00000000000E+00 -0.11224895454E+03  0.11224895454E+03  0.00000000000E+00 0.  1.
         25    2    1    2    0    0  0.71550562142E+02  0.29399277237E+02  0.31757558930E+03  0.34997734105E+03  0.12508430708E+03 0.  0.
          5    1    3    3  502    0  0.56861522204E+02  0.43036022981E+02  0.65022559017E+02  0.96595742984E+02  0.41800000000E+01 0.  1.
         -5    1    3    3    0  502  0.14689039937E+02 -0.13636745744E+02  0.25255303029E+03  0.25338159806E+03  0.41800000000E+01 0.  1.
        -11    1    1    2    0    0 -0.79999547217E+02  0.21396009291E+01 -0.63984004267E+02  0.10246198441E+03  0.00000000000E+00 0.  1.
         11    1    1    2    0    0  0.84489850756E+01 -0.31538878166E+02  0.79561861422E+01  0.33606354797E+02  0.00000000000E+00 0. -1.
</event>
<event>
 7    1  0.2626349E-009  0.1441071E+03  0.7561462E-02  0.1207907E+00
         -2   -1    0    0    0  501 -0.00000000000E+00  0.00000000000E+00  0.53107463424E+02  0.53107463424E+02  0.00000000000E+00 0. -1.
          2   -1    0    0  501    0  0.00000000000E+00 -0.00000000000E+00 -0.70358101491E+03  0.70358101491E+03  0.00000000000E+00 0.  1.
         25    2    1    2    0    0  0.78740948405E+02  0.86485946017E+02 -0.12824106913E+03  0.21394756655E+03  0.12509130108E+03 0.  0.
          5    1    3    3  502    0  0.33823283490E+02  0.89119905866E+02 -0.21174402697E+02  0.97735356229E+02  0.41800000000E+01 0.  1.
         -5    1    3    3    0  502  0.44917664914E+02 -0.26339598491E+01 -0.10706666644E+03  0.11621221032E+03  0.41800000000E+01 0.  1.
        -11    1    1    2    0    0 -0.90519328639E+02 -0.96384538970E+02 -0.45922019859E+03  0.47787751465E+03  0.00000000000E+00 0.  1.
         11    1    1    2    0    0  0.11778380235E+02  0.98985929539E+01 -0.63012283756E+02  0.64863397133E+02  0.00000000000E+00 0. -1.
</event>
<event>
 7    1  0.2626349E-009  0.8711050E+02  0.7561462E-02  0.1310004E+00
          1   -1    0    0  501    0  0.00000000000E+00  0.00000000000E+00  0.37542701612E+02  0.37542701612E+02  0.00000000000E+00 0. -1.
         -1   -1    0    0    0  501 -0.00000000000E+00 -0.00000000000E+00 -0.43588294250E+03  0.43588294250E+03  0.00000000000E+00 0.  1.
         25    2    1    2    0    0 -0.48796819757E+02 -0.30523413978E+00 -0.13430071874E+03  0.18990802693E+03  0.12508858003E+03 0.  0.
          5    1    3    3  502    0 -0.59964382782E+02  0.36954809014E+02 -0.26747163501E+02  0.75460375477E+02  0.41800000000E+01 0. -1.
         -5    1    3    3    0  502  0.11167563025E+02 -0.37260043154E+02 -0.10755355524E+03  0.11444765146E+03  0.41800000000E+01 0. -1.
        -11    1    1    2    0    0  0.80861103498E+01  0.18316028868E+02 -0.49404901693E+01  0.20622088575E+02  0.00000000000E+00 0. -1.
         11    1    1    2    0    0  0.40710709407E+02 -0.18010794728E+02 -0.25909903198E+03  0.26289552860E+03  0.00000000000E+00 0.  1.
</event>
<event>
 7    1  0.2626349E-009  0.1091001E+03  0.7561462E-02  0.1262246E+00
         -3   -1    0    0    0  501 -0.00000000000E+00  0.00000000000E+00  0.26369657566E+03  0.26369657566E+03  0.00000000000E+00 0.  1.
          3   -1    0    0  501    0  0.00000000000E+00 -0.00000000000E+00 -0.62764744422E+02  0.62764744422E+02  0.00000000000E+00 0. -1.
         25    2    1    2    0    0  0.26401541875E+02 -0.23137968043E+02  0.18941636568E+03  0.22969229225E+03  0.12509029759E+03 0.  0.
          5    1    3    3  502    0 -0.34029752013E+02 -0.50099488761E+02  0.11486866923E+03  0.12992407925E+03  0.41800000000E+01 0.  1.
         -5    1    3    3    0  502  0.60431293888E+02  0.26961520718E+02  0.74547696451E+02  0.99768213007E+02  0.41800000000E+01 0.  1.
        -11    1    1    2    0    0 -0.47064125584E+02 -0.13641440406E+02 -0.90615453977E+01  0.49832042084E+02  0.00000000000E+00 0.  1.
         11    1    1    2    0    0  0.20662583708E+02  0.36779408448E+02  0.20577010953E+02  0.46936985747E+02  0.00000000000E+00 0. -1.
</event>
<event>
 7    1  0.2626349E-009  0.1040662E+03  0.7561462E-02  0.1271970E+00
         -2   -1    0    0    0  501 -0.00000000000E+00  0.00000000000E+00  0.72562826431E+03  0.72562826431E+03  0.00000000000E+00 0.  1.
          2   -1    0    0  501    0  0.00000000000E+00 -0.00000000000E+00 -0.22304608916E+02  0.22304608916E+02  0.00000000000E+00 0. -1.
         25    2    1    2    0    0 -0.38243072948E+02 -0.52171462704E+02  0.43736636594E+03  0.45947736583E+03  0.12508284257E+03 0.  0.
          5    1    3    3  502    0 -0.63564357955E+02 -0.25823500243E+02  0.10770058227E+03  0.12776606978E+03  0.41800000000E+01 0. -1.
         -5    1    3    3    0  502  0.25321285008E+02 -0.26347962460E+02  0.32966578367E+03  0.33171129605E+03  0.41800000000E+01 0. -1.
        -11    1    1    2    0    0  0.58614181724E+02  0.15442356797E+02  0.97205896435E+02  0.11455599061E+03  0.00000000000E+00 0.  1.
         11    1    1    2    0    0 -0.20371108776E+02  0.36729105906E+02  0.16875139301E+03  0.17389951678E+03  0.00000000000E+00 0. -1.
</event>
<event>
 7    1  0.2626349E-009  0.1172564E+03  0.7561462E-02  0.1247693E+00
         -2   -1    0    0    0  501 -0.00000000000E+00  0.00000000000E+00  0.14711572445E+02  0.14711572445E+02  0.00000000000E+00 0.  1.
          2   -1    0    0  501    0  0.00000000000E+00 -0.00000000000E+00 -0.10046867239E+04  0.10046867239E+04  0.00000000000E+00 0. -1.
         25    2    1    2    0    0  0.43546434888E+02 -0.12266010271E+02 -0.68147536646E+03  0.69433626658E+03  0.12508968378E+03 0.  0.
          5    1    3    3  502    0  0.15352153336E+00  0.53316910162E+02 -0.23932691732E+03  0.24522961124E+03  0.41800000000E+01 0.  1.
         -5    1    3    3    0  502  0.43392913355E+02 -0.65582920433E+02 -0.44214844915E+03  0.44910665533E+03  0.41800000000E+01 0.  1.
        -11    1    1    2    0    0 -0.59298982812E+02  0.39196817519E+02 -0.20600917255E+03  0.21792782989E+03  0.00000000000E+00 0.  1.
         11    1    1    2    0    0  0.15752547924E+02 -0.26930807248E+02 -0.10249061248E+03  0.10713419992E+03  0.00000000000E+00 0. -1.
</event>
<event>
 7    1  0.2626349E-009  0.7875558E+02  0.7561462E-02  0.1332620E+00
         -1   -1    0    0    0  501 -0.00000000000E+00  0.00000000000E+00  0.10823635107E+03  0.10823635107E+03  0.00000000000E+00 0.  1.
          1   -1    0    0  501    0  0.00000000000E+00 -0.00000000000E+00 -0.11639581209E+03  0.11639581209E+03  0.00000000000E+00 0. -1.
         25    2    1    2    0    0  0.16728689410E+02 -0.46867370214E+00  0.99990400589E+01  0.12660753793E+03  0.12509763848E+03 0.  0.
          5    1    3    3  502    0  0.57050143671E+01 -0.58237802727E+02  0.27938874013E+02  0.64978780664E+02  0.41800000000E+01 0. -1.
         -5    1    3    3    0  502  0.11023675043E+02  0.57769129025E+02 -0.17939833954E+02  0.61628757265E+02  0.41800000000E+01 0. -1.
        -11    1    1    2    0    0 -0.24747466204E+02  0.10636347702E+02  0.34515491702E+02  0.43782281158E+02  0.00000000000E+00 0.  1.
         11    1    1    2    0    0  0.80187767941E+01 -0.10167674000E+02 -0.52673992782E+02  0.54242344081E+02  0.00000000000E+00 0. -1.
</event>
<event>
 7    1  0.2626349E-009  0.1506830E+03  0.7561462E-02  0.1199636E+00
          2   -1    0    0  501    0  0.00000000000E+00  0.00000000000E+00  0.18904516977E+03  0.18904516977E+03  0.00000000000E+00 0. -1.
         -2   -1    0    0    0  501 -0.00000000000E+00 -0.00000000000E+00 -0.13864180009E+03  0.13864180009E+03  0.00000000000E+00 0.  1.
         25    2    1    2    0    0  0.42920550391E+02  0.10958995514E+03  0.11111264032E+02  0.17211141477E+03  0.12508695772E+03 0.  0.
          5    1    3    3  502    0 -0.34186399966E+02  0.17387440698E+02  0.31899217622E+02  0.50060618469E+02  0.41800000000E+01 0. -1.
         -5    1    3    3    0  502  0.77106950357E+02  0.92202514440E+02 -0.20787953590E+02  0.12205079630E+03  0.41800000000E+01 0. -1.
        -11    1    1    2    0    0  0.37774927204E+01 -0.92823858954E+02  0.10083816103E+01  0.92906162744E+02  0.00000000000E+00 0. -1.
         11    1    1    2    0    0 -0.46698043112E+02 -0.16766096184E+02  0.38283724039E+02  0.62669392354E+02  0.00000000000E+00 0.  1.
</event>
<event>
 7    1  0.2626349E-009  0.9720036E+02  0.7561462E-02  0.1286296E+00
         -3   -1    0    0    0  501 -0.00000000000E+00  0.00000000000E+00  0.70662782852E+03  0.70662782852E+03  0.00000000000E+00 0.  1.
          3   -1    0    0  501    0  0.00000000000E+00 -0.00000000000E+00 -0.17820901835E+02  0.17820901835E+02  0.00000000000E+00 0. -1.
         25    2    1    2    0    0 -0.12098341392E+02  0.25009863993E+02  0.49812926865E+03  0.51434629461E+03  0.12508988499E+03 0.  0.
          5    1    3    3  502    0 -0.16095736091E+02 -0.48196637003E+02  0.26724842462E+03  0.27206833958E+03  0.41800000000E+01 0. -1.
         -5    1    3    3    0  502  0.39973946989E+01  0.73206500996E+02  0.23088084403E+03  0.24227795503E+03  0.41800000000E+01 0. -1.
        -11    1    1    2    0    0  0.33599032818E+02  0.40390287955E+01  0.15732678612E+03  0.16092521987E+03  0.00000000000E+00 0.  1.
         11    1    1    2    0    0 -0.21500691426E+02 -0.29048892788E+02  0.33350871915E+02  0.49177215878E+02  0.00000000000E+00 0. -1.
</event>
<event>
 7    1  0.2626349E-009  0.1078310E+03  0.7561462E-02  0.1264640E+00
         -2   -1    0    0    0  501 -0.00000000000E+00  0.00000000000E+00  0.44484735116E+03  0.44484735116E+03  0.00000000000E+00 0.  1.
          2   -1    0    0  501    0  0.00000000000E+00 -0.00000000000E+00 -0.40947301584E+02  0.40947301584E+02  0.00000000000E+00 0. -1.
         25    2    1    2    0    0 -0.39685581933E+02 -0.65176833209E+02  0.20810586320E+03  0.25451693828E+03  0.12509139289E+03 0.  0.
          5    1    3    3  502    0  0.12778347033E+02 -0.36386531012E+02  0.18690927268E+03  0.19089215386E+03  0.41800000000E+01 0.  1.
         -5    1    3    3    0  502 -0.52463928966E+02 -0.28790302197E+02  0.21196590521E+02  0.63624784423E+02  0.41800000000E+01 0.  1.
        -11    1    1    2    0    0  0.51329526816E+02  0.81808545266E+02  0.18397888123E+03  0.20778736040E+03  0.00000000000E+00 0.  1.
         11    1    1    2    0    0 -0.11643944883E+02 -0.16631712058E+02  0.11815305144E+02  0.23490354064E+02  0.00000000000E+00 0. -1.
</event>
<event>
 7    1  0.2626349E-009  0.1188368E+03  0.7561462E-02  0.1245028E+00
         -1   -1    0    0    0  501 -0.00000000000E+00  0.00000000000E+00  0.20060435961E+02  0.20060435961E+02  0.00000000000E+00 0.  1.
          1   -1    0    0  501    0  0.00000000000E+00 -0.00000000000E+00 -0.99404701137E+03  0.99404701137E+03  0.00000000000E+00 0. -1.
         25    2    1    2    0    0  0.51058630021E+02  0.51769193233E+02 -0.72814961590E+03  0.74238485016E+03  0.12508544895E+03 0.  0.
          5    1    3    3  502    0  0.47871759454E+02  0.90597179813E+02 -0.45325583816E+03  0.46471268712E+03  0.41800000000E+01 0. -1.
         -5    1    3    3    0  502  0.31868705669E+01 -0.38827986580E+02 -0.27489377774E+03  0.27767216303E+03  0.41800000000E+01 0. -1.
        -11    1    1    2    0    0 -0.16717101258E+02 -0.58588496671E+02 -0.71651696630E+02  0.94053384025E+02  0.00000000000E+00 0.  1.
         11    1    1    2    0    0 -0.34341528763E+02  0.68193034377E+01 -0.17418526288E+03  0.17766921315E+03  0.00000000000E+00 0. -1.
</event>
<event>
 7    1  0.2626349E-009  0.8352895E+02  0.7561462E-02  0.1319325E+00
          1   -1    0    0  501    0  0.00000000000E+00  0.00000000000E+00  0.74264778501E+03  0.74264778501E+03  0.00000000000E+00 0. -1.
         -1   -1    0    0    0  501 -0.00000000000E+00 -0.00000000000E+00 -0.18146937235E+02  0.18146937235E+02  0.00000000000E+00 0.  1.
         25    2    1    2    0    0 -0.88339707761E+01 -0.40882498672E+02  0.41425949335E+03  0.43475085853E+03  0.12509181995E+03 0.  0.
          5    1    3    3  502    0 -0.24432006981E+02  0.92295712124E+01  0.11972327774E+02  0.29033032605E+02  0.41800000000E+01 0. -1.
         -5    1    3    3    0  502  0.15598036205E+02 -0.50112069884E+02  0.40228716558E+03  0.40571782592E+03  0.41800000000E+01 0. -1.
        -11    1    1    2    0    0 -0.31555080109E+02  0.35031534020E+02  0.85600292604E+02  0.97725848937E+02  0.00000000000E+00 0.  1.
         11    1    1    2    0    0  0.40389050885E+02  0.58509646516E+01  0.22464106182E+03  0.22831801478E+03  0.00000000000E+00 0. -1.
</event>
<event>
 7    1  0.2626349E-009  0.1250911E+03  0.7561462E-02  0.1234927E+00
          2   -1    0    0  501    0  0.00000000000E+00  0.00000000000E+00  0.61933709563E+03  0.61933709563E+03  0.00000000000E+00 0. -1.
         -2   -1    0    0    0  501 -0.00000000000E+00 -0.00000000000E+00 -0.41914575194E+02  0.41914575194E+02  0.00000000000E+00 0.  1.
         25    2    1    2    0    0  0.77624547377E+02 -0.34164869426E+02  0.14194304755E+03  0.20733627616E+03  0.12509074308E+03 0.  0.
          5    1    3    3  502    0 -0.21150824543E+02  0.18322177285E+02  0.23250896039E+01  0.28389047201E+02  0.41800000000E+01 0. -1.
         -5    1    3    3    0  502  0.98775371919E+02 -0.52487046711E+02  0.13961795795E+03  0.17894722896E+03  0.41800000000E+01 0. -1.
        -11    1    1    2    0    0 -0.42185029651E+02 -0.18834941206E+02  0.76887521112E+02  0.89699624523E+02  0.00000000000E+00 0.  1.
         11    1    1    2    0    0 -0.35439517726E+02  0.52999810632E+02  0.35859195177E+03  0.36421577014E+03  0.00000000000E+00 0. -1.
</event>
<event>
 7    1  0.2626349E-009  0.1189869E+03  0.7561462E-02  0.1244778E+00
          4   -1    0    0  501    0  0.00000000000E+00  0.00000000000E+00  0.61176817471E+02  0.61176817471E+02  0.00000000000E+00 0.  1.
         -4   -1    0    0    0  501 -0.00000000000E+00 -0.00000000000E+00 -0.28570659409E+03  0.28570659409E+03  0.00000000000E+00 0. -1.
         25    2    1    2    0    0  0.37536943279E+02  0.62703182907E+02 -0.10245282459E+03  0.17743647826E+03  0.12508561585E+03 0.  0.
          5    1    3    3  502    0  0.42374574231E+02  0.94798795010E+02 -0.49315754785E+02  0.11503013582E+03  0.41800000000E+01 0. -1.
         -5    1    3    3    0  502 -0.48376309526E+01 -0.32095612103E+02 -0.53137069801E+02  0.62406342439E+02  0.41800000000E+01 0. -1.
        -11    1    1    2    0    0  0.19264373959E+02 -0.30373482993E+02 -0.63271440277E+01  0.36519820984E+02  0.00000000000E+00 0.  1.
         11    1    1    2    0    0 -0.56801317237E+02 -0.32329699914E+02 -0.11574980800E+03  0.13292711232E+03  0.00000000000E+00 0. -1.
</event>
<event>
 7    1  0.2626349E-009  0.1804592E+03  0.7561462E-02  0.1167359E+00
          1   -1    0    0  501    0  0.00000000000E+00  0.00000000000E+00  0.29703862197E+03  0.29703862197E+03  0.00000000000E+00 0. -1.
         -1   -1    0    0    0  501 -0.00000000000E+00 -0.00000000000E+00 -0.11909879417E+03  0.11909879417E+03  0.00000000000E+00 0.  1.
         25    2    1    2    0    0 -0.68794473664E+02  0.14108264900E+03  0.65469331004E+02  0.21111746617E+03  0.12508939909E+03 0.  0.
          5    1    3    3  502    0 -0.44236415058E+02  0.15692872240E+03  0.31501865801E+02  0.16611238449E+03  0.41800000000E+01 0.  1.
         -5    1    3    3    0  502 -0.24558058606E+02 -0.15846073401E+02  0.33967465203E+02  0.45005081680E+02  0.41800000000E+01 0.  1.
        -11    1    1    2    0    0  0.41951649902E+02 -0.24327099554E+02  0.50972817987E+02  0.70356072060E+02  0.00000000000E+00 0. -1.
         11    1    1    2    0    0  0.26842823763E+02 -0.11675554944E+03  0.61497678807E+02  0.13466387790E+03  0.00000000000E+00 0.  1.
</event>
<event>
 7    1  0.2626349E-009  0.8237122E+02  0.7561462E-02  0.1322454E+00
          1   -1    0    0  501    0  0.00000000000E+00  0.00000000000E+00  0.29342984164E+03  0.29342984164E+03  0.00000000000E+00 0. -1.
         -1   -1    0    0    0  501 -0.00000000000E+00 -0.00000000000E+00 -0.55949816155E+02  0.55949816155E+02  0.00000000000E+00 0.  1.
         25    2    1    2    0    0  0.59161106799E+02  0.12467159290E+02  0.16523282992E+03  0.21588120052E+03  0.12508932023E+03 0.  0.
          5    1    3    3  502    0  0.62013501136E+02 -0.14671706786E+02  0.18378141901E+02  0.66454208316E+02  0.41800000000E+01 0.  1.
         -5    1    3    3    0  502 -0.28523943367E+01  0.27138866076E+02  0.14685468802E+03  0.14942699220E+03  0.41800000000E+01 0.  1.
        -11    1    1    2    0    0 -0.83386661112E+01  0.13754801577E+02 -0.19567326587E+02  0.25329985959E+02  0.00000000000E+00 0.  1.
         11    1    1    2    0    0 -0.50822440688E+02 -0.26221960868E+02  0.91814522151E+02  0.10816847132E+03  0.00000000000E+00 0. -1.
</event>
<event>
 7    1  0.2626349E-009  0.8886637E+02  0.7561462E-02  0.1305620E+00
          2   -1    0    0  501    0  0.00000000000E+00  0.00000000000E+00  0.35971014486E+03  0.35971014486E+03  0.00000000000E+00 0. -1.
         -2   -1    0    0    0  501 -0.00000000000E+00 -0.00000000000E+00 -0.29708953893E+02  0.29708953893E+02  0.00000000000E+00 0.  1.
         25    2    1    2    0    0 -0.17321426877E+02  0.14104482371E+02  0.27911473914E+03  0.30667931924E+03  0.12509276156E+03 0.  0.
          5    1    3    3  502    0  0.80455634534E+01 -0.53749285018E+02  0.12057177520E+03  0.13232060348E+03  0.41800000000E+01 0.  1.
         -5    1    3    3    0  502 -0.25366990330E+02  0.67853767389E+02  0.15854296394E+03  0.17435871576E+03  0.41800000000E+01 0.  1.
        -11    1    1    2    0    0 -0.76167956799E+01 -0.22966935880E+02  0.50805607789E+02  0.56273488455E+02  0.00000000000E+00 0. -1.
         11    1    1    2    0    0  0.24938222557E+02  0.88624535085E+01  0.80844040842E-01  0.26466291056E+02  0.00000000000E+00 0.  1.
</event>
<event>
 7    1  0.4950052E-009  0.1107587E+03  0.7561462E-02  0.1259171E+00
          1   -1    0    0  501    0  0.00000000000E+00  0.00000000000E+00  0.20083213827E+03  0.20083213827E+03  0.00000000000E+00 0. -1.
         -1   -1    0    0    0  501 -0.00000000000E+00 -0.00000000000E+00 -0.81855276913E+02  0.81855276913E+02  0.00000000000E+00 0.  1.
         25    2    1    2    0    0  0.41958353898E+02 -0.19955188337E+02  0.12053796407E+03  0.17981962141E+03  0.12508789893E+03 0.  0.
          5    1    3    3  502    0  0.83161183789E+02 -0.20692928121E+01  0.10030420647E+03  0.13037818336E+03  0.41800000000E+01 0. -1.
         -5    1    3    3    0  502 -0.41202829891E+02 -0.17885895525E+02  0.20233757606E+02  0.49441438052E+02  0.41800000000E+01 0. -1.
        -11    1    1    2    0    0  0.23420689248E+02 -0.34464709013E+01  0.19100942714E+02  0.30417969345E+02  0.00000000000E+00 0. -1.
         11    1    1    2    0    0 -0.65379043145E+02  0.23401659238E+02 -0.20662045430E+02  0.72449824424E+02  0.00000000000E+00 0.  1.
</event>
<event>
 7    1  0.2626349E-009  0.8305485E+02  0.7561462E-02  0.1320599E+00
          2   -1    0    0  501    0  0.00000000000E+00  0.00000000000E+00  0.52028686596E+02  0.52028686596E+02  0.00000000000E+00 0.  1.
         -2   -1    0    0    0  501 -0.00000000000E+00 -0.00000000000E+00 -0.21731685437E+03  0.21731685437E+03  0.00000000000E+00 0. -1.
         25    2    1    2    0    0 -0.10336592455E+02 -0.22354417554E+01 -0.77541437918E+02  0.14755322694E+03  0.12508971917E+03 0.  0.
          5    1    3    3  502    0  0.28808016789E+02  0.33800760589E+02 -0.82669973178E+02  0.93937160447E+02  0.41800000000E+01 0. -1.
         -5    1    3    3    0  502 -0.39144609244E+02 -0.36036202344E+02  0.51285352591E+01  0.53616066493E+02  0.41800000000E+01 0. -1.
        -11    1    1    2    0    0 -0.21132723633E+02 -0.20395699337E+02 -0.41697801768E+01  0.29664180864E+02  0.00000000000E+00 0.  1.
         11    1    1    2    0    0  0.31469316088E+02  0.22631141093E+02 -0.83576949676E+02  0.92128133159E+02  0.00000000000E+00 0. -1.
</event>
<event>
 7    1  0.2626349E-009  0.1476571E+03  0.7561462E-02  0.1203382E+00
         -2   -1    0    0    0  501 -0.00000000000E+00  0.00000000000E+00  0.47377761313E+02  0.47377761313E+02  0.00000000000E+00 0.  1.
          2   -1    0    0  501    0  0.00000000000E+00 -0.00000000000E+00 -0.51917212218E+03  0.51917212218E+03  0.00000000000E+00 0. -1.
         25    2    1    2    0    0  0.96042576387E+01  0.12664544135E+03 -0.26227374651E+03  0.31712434500E+03  0.12509605309E+03 0.  0.
          5    1    3    3  502    0  0.44322974607E+02  0.11659591438E+03 -0.24875627016E+03  0.27830969741E+03  0.41800000000E+01 0.  1.
         -5    1    3    3    0  502 -0.34718716968E+02  0.10049526971E+02 -0.13517476350E+02  0.38814647585E+02  0.41800000000E+01 0.  1.
        -11    1    1    2    0    0 -0.23944314457E+02 -0.42643914464E+02 -0.60893617643E+02  0.78101640862E+02  0.00000000000E+00 0. -1.
         11    1    1    2    0    0  0.14340056818E+02 -0.84001526890E+02 -0.14862699672E+03  0.17132389764E+03  0.00000000000E+00 0.  1.
</event>
<event>
 7    1  0.2626349E-009  0.1290912E+03  0.7561462E-02  0.1228811E+00
          1   -1    0    0  501    0  0.00000000000E+00  0.00000000000E+00  0.43073156994E+03  0.43073156994E+03  0.00000000000E+00 0. -1.
         -1   -1    0    0    0  501 -0.00000000000E+00 -0.00000000000E+00 -0.64329985697E+02  0.64329985697E+02  0.00000000000E+00 0.  1.
         25    2    1    2    0    0  0.10666648832E+03 -0.38105883969E+02  0.27095122457E+03  0.31920479906E+03  0.12508932620E+03 0.  0.
          5    1    3    3  502    0  0.11729690976E+03 -0.26280007321E+02  0.27676084945E+03  0.30176687030E+03  0.41800000000E+01 0. -1.
         -5    1    3    3    0  502 -0.10630421437E+02 -0.11825876648E+02 -0.58096248802E+01  0.17437928767E+02  0.41800000000E+01 0. -1.
        -11    1    1    2    0    0 -0.58447765450E+02  0.43619665995E+02  0.10354781517E+03  0.12665293749E+03  0.00000000000E+00 0. -1.
         11    1    1    2    0    0 -0.48218722868E+02 -0.55137820261E+01 -0.80974554906E+01  0.49203819087E+02  0.00000000000E+00 0.  1.
</event>
<event>
 7    1  0.2626349E-009  0.8990031E+02  0.7561462E-02  0.1303093E+00
          2   -1    0    0  501    0  0.00000000000E+00  0.00000000000E+00  0.79192184420E+02  0.79192184420E+02  0.00000000000E+00 0. -1.
         -2   -1    0    0    0  501 -0.00000000000E+00 -0.00000000000E+00 -0.23395561513E+03  0.23395561513E+03  0.00000000000E+00 0.  1.
         25    2    1    2    0    0 -0.14000601436E+02  0.46529223038E+02 -0.97819552431E+01  0.13455244475E+03  0.12509072029E+03 0.  0.
          5    1    3    3  502    0 -0.17856238912E+02 -0.84968032832E+01 -0.57842472539E+02  0.61272056955E+02  0.41800000000E+01 0.  1.
         -5    1    3    3    0  502  0.38556374758E+01  0.55026026321E+02  0.48060517296E+02  0.73280387798E+02  0.41800000000E+01 0.  1.
        -11    1    1    2    0    0  0.37199800993E+02 -0.64814256122E+02 -0.10226335560E+03  0.12665901819E+03  0.00000000000E+00 0.  1.
         11    1    1    2    0    0 -0.23199199558E+02  0.18285033084E+02 -0.42718119861E+02  0.51936336600E+02  0.00000000000E+00 0. -1.
</event>
<event>
 7    1  0.2626349E-009  0.1414706E+03  0.7561462E-02  0.1211364E+00
         -2   -1    0    0    0  501 -0.00000000000E+00  0.00000000000E+00  0.24230899974E+03  0.24230899974E+03  0.00000000000E+00 0. -1.
          2   -1    0    0  501    0  0.00000000000E+00 -0.00000000000E+00 -0.90528662140E+02  0.90528662140E+02  0.00000000000E+00 0.  1.
         25    2    1    2    0    0  0.79153361088E+02  0.48943232295E+02  0.39734604529E+02  0.16089567568E+03  0.12509150689E+03 0.  0.
          5    1    3    3  502    0 -0.28166742300E+02 -0.13523475199E+02  0.52998012443E+01  0.31965763661E+02  0.41800000000E+01 0. -1.
         -5    1    3    3    0  502  0.10732010339E+03  0.62466707493E+02  0.34434803285E+02  0.12892991202E+03  0.41800000000E+01 0. -1.
        -11    1    1    2    0    0 -0.57910399081E+02 -0.74229157669E+02  0.64774614419E+02  0.11427743803E+03  0.00000000000E+00 0.  1.
         11    1    1    2    0    0 -0.21242962008E+02  0.25285925374E+02  0.47271118656E+02  0.57664548172E+02  0.00000000000E+00 0. -1.
</event>
<event>
 7    1  0.2626349E-009  0.1753059E+03  0.7561462E-02  0.1172425E+00
          2   -1    0    0  501    0  0.00000000000E+00  0.00000000000E+00  0.83849660518E+02  0.83849660518E+02  0.00000000000E+00 0. -1.
         -2   -1    0    0    0  501 -0.00000000000E+00 -0.00000000000E+00 -0.37562728685E+03  0.37562728685E+03  0.00000000000E+00 0.  1.
         25    2    1    2    0    0  0.40383109226E+02  0.13399169737E+03 -0.16357200713E+03  0.24897449544E+03  0.12509167594E+03 0.  0.
          5    1    3    3  502    0 -0.33298589178E+02  0.10073109960E+03 -0.10243146497E+03  0.14753043037E+03  0.41800000000E+01 0. -1.
         -5    1    3    3    0  502  0.73681698404E+02  0.33260597772E+02 -0.61140542158E+02  0.10144406508E+03  0.41800000000E+01 0. -1.
        -11    1    1    2    0    0 -0.64528764180E+02 -0.70564736625E+02 -0.53491536902E+02  0.10956590702E+03  0.00000000000E+00 0. -1.
         11    1    1    2    0    0  0.24145654955E+02 -0.63426960748E+02 -0.74714082303E+02  0.10093654490E+03  0.00000000000E+00 0.  1.
</event>
<event>
 7    1  0.2626349E-009  0.2129964E+03  0.7561462E-02  0.1139215E+00
          3   -1    0    0  501    0  0.00000000000E+00  0.00000000000E+00  0.52751919690E+02  0.52751919690E+02  0.00000000000E+00 0. -1.
         -3   -1    0    0    0  501 -0.00000000000E+00 -0.00000000000E+00 -0.10821244295E+04  0.10821244295E+04  0.00000000000E+00 0.  1.
         25    2    1    2    0    0 -0.21123504611E+03 -0.21518113663E+02 -0.51930571674E+03  0.57481155553E+03  0.12508646212E+03 0.  0.
          5    1    3    3  502    0 -0.43294940723E+02 -0.69580884396E+01 -0.21097044659E+02  0.48840808554E+02  0.41800000000E+01 0.  1.
         -5    1    3    3    0  502 -0.16794010539E+03 -0.14560025224E+02 -0.49820867208E+03  0.52597074697E+03  0.41800000000E+01 0.  1.
        -11    1    1    2    0    0  0.14465350345E+03  0.50884375566E+01 -0.23024512023E+03  0.27196202611E+03  0.00000000000E+00 0. -1.
         11    1    1    2    0    0  0.66581542659E+02  0.16429676107E+02 -0.27982167288E+03  0.28810276759E+03  0.00000000000E+00 0.  1.
</event>
<event>
 7    1  0.2626349E-009  0.3382094E+03  0.7561462E-02  0.1067561E+00
          2   -1    0    0  501    0  0.00000000000E+00  0.00000000000E+00  0.13210917371E+04  0.13210917371E+04  0.00000000000E+00 0. -1.
         -2   -1    0    0    0  501 -0.00000000000E+00 -0.00000000000E+00 -0.10784734358E+03  0.10784734358E+03  0.00000000000E+00 0.  1.
         25    2    1    2    0    0 -0.11621414442E+03  0.30352571073E+03  0.91164758404E+03  0.97590067876E+03  0.12508889999E+03 0.  0.
          5    1    3    3  502    0 -0.13051938475E+03  0.29676613683E+03  0.80232797947E+03  0.86536299251E+03  0.41800000000E+01 0.  1.
         -5    1    3    3    0  502  0.14305240330E+02  0.67595738912E+01  0.10931960457E+03  0.11053768625E+03  0.41800000000E+01 0.  1.
        -11    1    1    2    0    0  0.71168436734E+02 -0.76942098455E+02  0.11897193597E+03  0.15855394808E+03  0.00000000000E+00 0.  1.
         11    1    1    2    0    0  0.45045707683E+02 -0.22658361227E+03  0.18262487355E+03  0.29448445387E+03  0.00000000000E+00 0. -1.
</event>
<event>
 7    1  0.2626349E-009  0.1785351E+03  0.7561462E-02  0.1169228E+00
          1   -1    0    0  501    0  0.00000000000E+00  0.00000000000E+00  0.18684845128E+03  0.18684845128E+03  0.00000000000E+00 0. -1.
         -1   -1    0    0    0  501 -0.00000000000E+00 -0.00000000000E+00 -0.22403655455E+03  0.22403655455E+03  0.00000000000E+00 0.  1.
         25    2    1    2    0    0 -0.12306204092E+03 -0.80368921219E+02 -0.10864047514E+03  0.22148149144E+03  0.12509144176E+03 0.  0.
          5    1    3    3  502    0 -0.73098951303E+02 -0.10328007375E+03 -0.38608138719E+02  0.13235668132E+03  0.41800000000E+01 0.  1.
         -5    1    3    3    0  502 -0.49963089613E+02  0.22911152531E+02 -0.70032336425E+02  0.89124810121E+02  0.41800000000E+01 0.  1.
        -11    1    1    2    0    0  0.44143316990E+02 -0.19331319778E+02  0.17372446265E+02  0.51226304264E+02  0.00000000000E+00 0. -1.
         11    1    1    2    0    0  0.78918723927E+02  0.99700240998E+02  0.54079925611E+02  0.13817721012E+03  0.00000000000E+00 0.  1.
</event>
<event>
 7    1  0.2626349E-009  0.1183921E+03  0.7561462E-02  0.1245773E+00
          3   -1    0    0  501    0  0.00000000000E+00  0.00000000000E+00  0.12496291886E+03  0.12496291886E+03  0.00000000000E+00 0. -1.
         -3   -1    0    0    0  501 -0.00000000000E+00 -0.00000000000E+00 -0.12798150335E+03  0.12798150335E+03  0.00000000000E+00 0.  1.
         25    2    1    2    0    0 -0.31353583894E+01  0.54551460469E+02 -0.23263377841E+02  0.13846890327E+03  0.12508701017E+03 0.  0.
          5    1    3    3  502    0  0.46697809129E+02  0.59618729024E+02  0.12380338309E+02  0.76849355265E+02  0.41800000000E+01 0.  1.
         -5    1    3    3    0  502 -0.49833167518E+02 -0.50672685557E+01 -0.35643716150E+02  0.61619548006E+02  0.41800000000E+01 0.  1.
        -11    1    1    2    0    0 -0.46506319951E+02 -0.29455283980E+02  0.20799854164E+02  0.58847986227E+02  0.00000000000E+00 0. -1.
         11    1    1    2    0    0  0.49641678341E+02 -0.25096176488E+02 -0.55506081609E+00  0.55627532709E+02  0.00000000000E+00 0.  1.
</event>
<event>
 7    1  0.2626349E-009  0.9709026E+02  0.7561462E-02  0.1286537E+00
         -2   -1    0    0    0  501 -0.00000000000E+00  0.00000000000E+00  0.82432868408E+03  0.82432868408E+03  0.00000000000E+00 0.  1.
          2   -1    0    0  501    0  0.00000000000E+00 -0.00000000000E+00 -0.14811066094E+02  0.14811066094E+02  0.00000000000E+00 0. -1.
         25    2    1    2    0    0 -0.64669674595E+00 -0.16099401580E+02  0.40845618356E+03  0.42748505447E+03  0.12508960372E+03 0.  0.
          5    1    3    3  502    0 -0.47721046410E+02  0.10682038015E+02  0.31955310414E+03  0.32330026752E+03  0.41800000000E+01 0. -1.
         -5    1    3    3    0  502  0.47074349664E+02 -0.26781439595E+02  0.88903079415E+02  0.10418478695E+03  0.41800000000E+01 0. -1.
        -11    1    1    2    0    0 -0.29210705067E+02  0.42064001806E+02  0.26738913468E+03  0.27224914120E+03  0.00000000000E+00 0.  1.
         11    1    1    2    0    0  0.29857401813E+02 -0.25964600226E+02  0.13367229974E+03  0.13940555451E+03  0.00000000000E+00 0. -1.
</event>
<event>
 7    1  0.2626349E-009  0.6598077E+02  0.7561462E-02  0.1374320E+00
         -1   -1    0    0    0  501 -0.00000000000E+00  0.00000000000E+00  0.21718919205E+03  0.21718919205E+03  0.00000000000E+00 0.  1.
          1   -1    0    0  501    0  0.00000000000E+00 -0.00000000000E+00 -0.59872504012E+02  0.59872504012E+02  0.00000000000E+00 0. -1.
         25    2    1    2    0    0  0.30725295324E+01 -0.15913169264E+02  0.52668784488E+02  0.13668927617E+03  0.12508912009E+03 0.  0.
          5    1    3    3  502    0 -0.39135109463E+02  0.11592222886E+02 -0.21970901285E+02  0.46541694506E+02  0.41800000000E+01 0. -1.
         -5    1    3    3    0  502  0.42207638996E+02 -0.27505392150E+02  0.74639685773E+02  0.90147581661E+02  0.41800000000E+01 0. -1.
        -11    1    1    2    0    0 -0.12977713790E+02 -0.74781363941E+01 -0.13110429426E+02  0.19905449979E+02  0.00000000000E+00 0. -1.
         11    1    1    2    0    0  0.99051842576E+01  0.23391305658E+02  0.11775833298E+03  0.12046696992E+03  0.00000000000E+00 0.  1.
</event>
<event>
 7    1  0.2626349E-009  0.1470374E+03  0.7561462E-02  0.1204161E+00
         -1   -1    0    0    0  501 -0.00000000000E+00  0.00000000000E+00  0.14793327258E+03  0.14793327258E+03  0.00000000000E+00 0.  1.
          1   -1    0    0  501    0  0.00000000000E+00 -0.00000000000E+00 -0.16529366059E+03  0.16529366059E+03  0.00000000000E+00 0. -1.
         25    2    1    2    0    0 -0.71673475539E+02  0.86705670144E+02 -0.15633750635E+02  0.16896405402E+03  0.12509786993E+03 0.  0.
          5    1    3    3  502    0 -0.72722262415E+01 -0.29573891892E+02  0.12236995314E+02  0.33086504960E+02  0.41800000000E+01 0.  1.
         -5    1    3    3    0  502 -0.64401249298E+02  0.11627956204E+03 -0.27870745949E+02  0.13587754906E+03  0.41800000000E+01 0.  1.
        -11    1    1    2    0    0  0.51322040287E+02 -0.95310652411E+02  0.23454548199E+02  0.11076185315E+03  0.00000000000E+00 0.  1.
         11    1    1    2    0    0  0.20351435253E+02  0.86049822669E+01 -0.25181185565E+02  0.33501026001E+02  0.00000000000E+00 0. -1.
</event>
<event>
 7    1  0.2626349E-009  0.1397769E+03  0.7561462E-02  0.1213629E+00
         -2   -1    0    0    0  501 -0.00000000000E+00  0.00000000000E+00  0.10032279226E+03  0.10032279226E+03  0.00000000000E+00 0.  1.
          2   -1    0    0  501    0  0.00000000000E+00 -0.00000000000E+00 -0.31099128065E+03  0.31099128065E+03  0.00000000000E+00 0. -1.
         25    2    1    2    0    0 -0.10669263650E+03 -0.63830874147E+02 -0.37883192495E+02  0.18038591138E+03  0.12508493744E+03 0.  0.
          5    1    3    3  502    0 -0.11871128672E+02  0.21811397479E+02  0.27086134443E+02  0.36983669842E+02  0.41800000000E+01 0. -1.
         -5    1    3    3    0  502 -0.94821507828E+02 -0.85642271625E+02 -0.64969326938E+02  0.14340224154E+03  0.41800000000E+01 0. -1.
        -11    1    1    2    0    0  0.32465190944E+02  0.74235604753E+01 -0.11840410625E+03  0.12299849694E+03  0.00000000000E+00 0. -1.
         11    1    1    2    0    0  0.74227445555E+02  0.56407313671E+02 -0.54381189648E+02  0.10792966458E+03  0.00000000000E+00 0.  1.
</event>
<event>
 7    1  0.2626349E-009  0.9807896E+02  0.7561462E-02  0.1284388E+00
          2   -1    0    0  501    0  0.00000000000E+00  0.00000000000E+00  0.30937519036E+02  0.30937519036E+02  0.00000000000E+00 0. -1.
         -2   -1    0    0    0  501 -0.00000000000E+00 -0.00000000000E+00 -0.55759633555E+03  0.55759633555E+03  0.00000000000E+00 0.  1.
         25    2    1    2    0    0  0.12375239536E+02 -0.72833040119E+02 -0.31705781279E+03  0.34875696387E+03  0.12509182590E+03 0.  0.
          5    1    3    3  502    0  0.35812354517E+02 -0.52504675386E+02 -0.31024965556E+03  0.31672004491E+03  0.41800000000E+01 0. -1.
         -5    1    3    3    0  502 -0.23437114981E+02 -0.20328364734E+02 -0.68081572328E+01  0.32036918957E+02  0.41800000000E+01 0. -1.
        -11    1    1    2    0    0  0.25185284730E+02  0.53012406507E+02 -0.17628722613E+03  0.18580043032E+03  0.00000000000E+00 0.  1.
         11    1    1    2    0    0 -0.37560524266E+02  0.19820633612E+02 -0.33313777598E+02  0.53976460404E+02  0.00000000000E+00 0. -1.
</event>
<event>
 7    1  0.2626349E-009  0.1025150E+03  0.7561462E-02  0.1275094E+00
          1   -1    0    0  501    0  0.00000000000E+00  0.00000000000E+00  0.16614371499E+03  0.16614371499E+03  0.00000000000E+00 0. -1.
         -1   -1    0    0    0  501 -0.00000000000E+00 -0.00000000000E+00 -0.90008782867E+02  0.90008782867E+02  0.00000000000E+00 0.  1.
         25    2    1    2    0    0 -0.28777874961E+02  0.27990705382E+02  0.85276576023E+02  0.15662558420E+03  0.12509130079E+03 0.  0.
          5    1    3    3  502    0 -0.35595117244E+02 -0.32398568281E+02  0.82549468298E+02  0.95648140152E+02  0.41800000000E+01 0.  1.
         -5    1    3    3    0  502  0.68172422835E+01  0.60389273663E+02  0.27271077252E+01  0.60977444046E+02  0.41800000000E+01 0.  1.
        -11    1    1    2    0    0  0.48657948575E+02  0.12895180511E+02 -0.17518047950E+02  0.53298814658E+02  0.00000000000E+00 0.  1.
         11    1    1    2    0    0 -0.19880073614E+02 -0.40885885893E+02  0.83764040464E+01  0.46228098997E+02  0.00000000000E+00 0. -1.
</event>
<event>
 7    1  0.2626349E-009  0.1025155E+03  0.7561462E-02  0.1275093E+00
          1   -1    0    0  501    0  0.00000000000E+00  0.00000000000E+00  0.10561815230E+03  0.10561815230E+03  0.00000000000E+00 0. -1.
         -1   -1    0    0    0  501 -0.00000000000E+00 -0.00000000000E+00 -0.15823068422E+03  0.15823068422E+03  0.00000000000E+00 0.  1.
         25    2    1    2    0    0  0.85957846074E+01  0.18871413287E+02  0.39059915678E+02  0.13267931492E+03  0.12509238922E+03 0.  0.
          5    1    3    3  502    0 -0.14143071437E+02 -0.49210529342E+02  0.11250915655E+01  0.51385220626E+02  0.41800000000E+01 0. -1.
         -5    1    3    3    0  502  0.22738856044E+02  0.68081942629E+02  0.37934824113E+02  0.81294094292E+02  0.41800000000E+01 0. -1.
        -11    1    1    2    0    0 -0.43293071401E+02 -0.24279052198E+01 -0.15827862925E+02  0.46159571053E+02  0.00000000000E+00 0.  1.
         11    1    1    2    0    0  0.34697286793E+02 -0.16443508067E+02 -0.75844584675E+02  0.85009950553E+02  0.00000000000E+00 0. -1.
</event>
<event>
 7    1  0.2626349E-009  0.1246348E+03  0.7561462E-02  0.1235641E+00
         -1   -1    0    0    0  501 -0.00000000000E+00  0.00000000000E+00  0.81082993881E+03  0.81082993881E+03  0.00000000000E+00 0.  1.
          1   -1    0    0  501    0  0.00000000000E+00 -0.00000000000E+00 -0.24143475722E+02  0.24143475722E+02  0.00000000000E+00 0. -1.
         25    2    1    2    0    0 -0.32692510261E+02  0.72349235620E+02  0.31472749650E+03  0.34785630121E+03  0.12508955637E+03 0.  0.
          5    1    3    3  502    0 -0.50912190651E+02  0.89774729413E+02  0.15607535410E+03  0.18715913484E+03  0.41800000000E+01 0. -1.
         -5    1    3    3    0  502  0.18219680391E+02 -0.17425493794E+02  0.15865214241E+03  0.16069716637E+03  0.41800000000E+01 0. -1.
        -11    1    1    2    0    0  0.47746627882E+02 -0.12660343274E+01  0.17544447025E+03  0.18182988054E+03  0.00000000000E+00 0. -1.
         11    1    1    2    0    0 -0.15054117621E+02 -0.71083201292E+02  0.29651449634E+03  0.30528723279E+03  0.00000000000E+00 0.  1.
</event>
<event>
 7    1  0.2626349E-009  0.2371743E+03  0.7561462E-02  0.1121690E+00
          1   -1    0    0  501    0  0.00000000000E+00  0.00000000000E+00  0.94445601507E+02  0.94445601507E+02  0.00000000000E+00 0. -1.
         -1   -1    0    0    0  501 -0.00000000000E+00 -0.00000000000E+00 -0.70584712187E+03  0.70584712187E+03  0.00000000000E+00 0.  1.
         25    2    1    2    0    0  0.15306959900E+03 -0.16578005292E+03 -0.22109444639E+03  0.33976838164E+03  0.12508585394E+03 0.  0.
          5    1    3    3  502    0 -0.10582384584E+02 -0.23032780909E+02  0.50834613902E+01  0.26187971277E+02  0.41800000000E+01 0. -1.
         -5    1    3    3    0  502  0.16365198359E+03 -0.14274727201E+03 -0.22617790778E+03  0.31358041037E+03  0.41800000000E+01 0. -1.
        -11    1    1    2    0    0 -0.81058764379E+02  0.12418086485E+03 -0.31572250961E+03  0.34881530006E+03  0.00000000000E+00 0.  1.
         11    1    1    2    0    0 -0.72010834622E+02  0.41599188071E+02 -0.74584564363E+02  0.11170904168E+03  0.00000000000E+00 0. -1.
</event>
<event>
 7    1  0.2626349E-009  0.1999950E+03  0.7561462E-02  0.1149743E+00
         -1   -1    0    0    0  501 -0.00000000000E+00  0.00000000000E+00  0.31612159357E+02  0.31612159357E+02  0.00000000000E+00 0.  1.
          1   -1    0    0  501    0  0.00000000000E+00 -0.00000000000E+00 -0.19689648642E+04  0.19689648642E+04  0.00000000000E+00 0. -1.
         25    2    1    2    0    0  0.50532135458E+02  0.16049268000E+03 -0.15892567139E+04  0.16030273889E+04  0.12509400384E+03 0.  0.
          5    1    3    3  502    0 -0.39770881426E+02  0.26365283386E+02 -0.35399671748E+03  0.35722261906E+03  0.41800000000E+01 0.  1.
         -5    1    3    3    0  502  0.90303016884E+02  0.13412739661E+03 -0.12352599964E+04  0.12458047698E+04  0.41800000000E+01 0.  1.
        -11    1    1    2    0    0  0.25878351895E+02 -0.43152567820E+02 -0.70220596902E+02  0.86387299041E+02  0.00000000000E+00 0.  1.
         11    1    1    2    0    0 -0.76410487354E+02 -0.11734011218E+03 -0.27787539407E+03  0.31116233566E+03  0.00000000000E+00 0. -1.
</event>
<event>
 7    1  0.2626349E-009  0.1215528E+03  0.7561462E-02  0.1240557E+00
          1   -1    0    0  501    0  0.00000000000E+00  0.00000000000E+00  0.19358619110E+03  0.19358619110E+03  0.00000000000E+00 0. -1.
         -1   -1    0    0    0  501 -0.00000000000E+00 -0.00000000000E+00 -0.87562227360E+02  0.87562227360E+02  0.00000000000E+00 0.  1.
         25    2    1    2    0    0 -0.11313759536E+02  0.65168010659E+02  0.30019469253E+02  0.14464905955E+03  0.12508921267E+03 0.  0.
          5    1    3    3  502    0 -0.61646819598E+02  0.26077279171E+02 -0.12093623768E+02  0.68147509062E+02  0.41800000000E+01 0. -1.
         -5    1    3    3    0  502  0.50333060063E+02  0.39090731488E+02  0.42113093021E+02  0.76501550489E+02  0.41800000000E+01 0. -1.
        -11    1    1    2    0    0  0.49905760645E+02 -0.22812309255E+02  0.47133668158E+02  0.72336498901E+02  0.00000000000E+00 0. -1.
         11    1    1    2    0    0 -0.38592001110E+02 -0.42355701403E+02  0.28870826325E+02  0.64162860003E+02  0.00000000000E+00 0.  1.
</event>
<event>
 7    1  0.2626349E-009  0.1058708E+03  0.7561462E-02  0.1268413E+00
         -1   -1    0    0    0  501 -0.00000000000E+00  0.00000000000E+00  0.65709276554E+02  0.65709276554E+02  0.00000000000E+00 0.  1.
          1   -1    0    0  501    0  0.00000000000E+00 -0.00000000000E+00 -0.20049871667E+03  0.20049871667E+03  0.00000000000E+00 0. -1.
         25    2    1    2    0    0  0.21517257510E+02 -0.31628384650E+02 -0.77259386172E+02  0.15192007706E+03  0.12508936796E+03 0.  0.
          5    1    3    3  502    0  0.64236844481E+02 -0.40247247774E+02 -0.17620655954E+02  0.77936981328E+02  0.41800000000E+01 0. -1.
         -5    1    3    3    0  502 -0.42719586971E+02  0.86188631249E+01 -0.59638730218E+02  0.73983095735E+02  0.41800000000E+01 0. -1.
        -11    1    1    2    0    0 -0.42864043692E+02 -0.11100277678E+02 -0.71267407095E+01  0.44847885561E+02  0.00000000000E+00 0.  1.
         11    1    1    2    0    0  0.21346786183E+02  0.42728662327E+02 -0.50403313238E+02  0.69440030602E+02  0.00000000000E+00 0. -1.
</event>
<event>
 7    1  0.2626349E-009  0.1064180E+03  0.7561462E-02  0.1267351E+00
          2   -1    0    0  501    0  0.00000000000E+00  0.00000000000E+00  0.28701336108E+03  0.28701336108E+03  0.00000000000E+00 0. -1.
         -2   -1    0    0    0  501 -0.00000000000E+00 -0.00000000000E+00 -0.68154089824E+02  0.68154089824E+02  0.00000000000E+00 0.  1.
         25    2    1    2    0    0  0.88449390132E+02  0.24418801737E+01  0.12120598138E+03  0.19536397293E+03  0.12508770765E+03 0.  0.
          5    1    3    3  502    0  0.34193024693E+02 -0.13413335834E+00  0.13486892162E+03  0.13919870455E+03  0.41800000000E+01 0. -1.
         -5    1    3    3    0  502  0.54256365439E+02  0.25760135320E+01 -0.13662940244E+02  0.56165268383E+02  0.41800000000E+01 0. -1.
        -11    1    1    2    0    0 -0.66318775508E+02  0.38994980039E+02  0.44540266355E+02  0.88896702864E+02  0.00000000000E+00 0.  1.
         11    1    1    2    0    0 -0.22130614624E+02 -0.41436860213E+02  0.53113023522E+02  0.70906775104E+02  0.00000000000E+00 0. -1.
</event>
<event>
 7    1  0.2626349E-009  0.2175507E+03  0.7561462E-02  0.1135722E+00
          1   -1    0    0  501    0  0.00000000000E+00  0.00000000000E+00  0.28133387055E+03  0.28133387055E+03  0.00000000000E+00 0. -1.
         -1   -1    0    0    0  501 -0.00000000000E+00 -0.00000000000E+00 -0.20174467265E+03  0.20174467265E+03  0.00000000000E+00 0.  1.
         25    2    1    2    0    0 -0.10576667097E+03  0.17912471943E+03 -0.63347635091E+01  0.24281491953E+03  0.12508677835E+03 0.  0.
          5    1    3    3  502    0 -0.14556808319E+02  0.10641945964E+03 -0.49539961258E+02  0.11835827905E+03  0.41800000000E+01 0. -1.
         -5    1    3    3    0  502 -0.91209862647E+02  0.72705259790E+02  0.43205197749E+02  0.12445664047E+03  0.41800000000E+01 0. -1.
        -11    1    1    2    0    0  0.12645126961E+02 -0.53299418400E+01  0.33561498897E+02  0.36258540016E+02  0.00000000000E+00 0.  1.
         11    1    1    2    0    0  0.93121544005E+02 -0.17379477759E+03  0.52362462512E+02  0.20400508365E+03  0.00000000000E+00 0. -1.
</event>
<event>
 7    1  0.2626349E-009  0.1240409E+03  0.7561462E-02  0.1236576E+00
          1   -1    0    0  501    0  0.00000000000E+00  0.00000000000E+00  0.94583852684E+02  0.94583852684E+02  0.00000000000E+00 0. -1.
         -1   -1    0    0    0  501 -0.00000000000E+00 -0.00000000000E+00 -0.23317371143E+03  0.23317371143E+03  0.00000000000E+00 0.  1.
         25    2    1    2    0    0 -0.55629766465E+02 -0.55784308649E+02 -0.64619062102E+01  0.14796823115E+03  0.12508509579E+03 0.  0.
          5    1    3    3  502    0 -0.91548346091E+02 -0.21870463622E+02  0.12184176460E+02  0.95001807388E+02  0.41800000000E+01 0. -1.
         -5    1    3    3    0  502  0.35918579625E+02 -0.33913845027E+02 -0.18646082670E+02  0.52966423759E+02  0.41800000000E+01 0. -1.
        -11    1    1    2    0    0  0.21839482856E+02 -0.14561131947E+02 -0.84223874882E+02  0.88219332775E+02  0.00000000000E+00 0.  1.
         11    1    1    2    0    0  0.33790283610E+02  0.70345440596E+02 -0.47904077650E+02  0.91570000189E+02  0.00000000000E+00 0. -1.
</event>
<event>
 7    1  0.2626349E-009  0.9149343E+02  0.7561462E-02  0.1299275E+00
         -2   -1    0    0    0  501 -0.00000000000E+00  0.00000000000E+00  0.88643896839E+02  0.88643896839E+02  0.00000000000E+00 0.  1.
          2   -1    0    0  501    0  0.00000000000E+00 -0.00000000000E+00 -0.16485505482E+03  0.16485505482E+03  0.00000000000E+00 0. -1.
         25    2    1    2    0    0  0.78988222995E+01 -0.38957204138E+02 -0.68059889210E+01  0.13143129941E+03  0.12509120605E+03 0.  0.
          5    1    3    3  502    0  0.36775382654E+02 -0.41814091081E+02  0.45125661754E+02  0.71795854553E+02  0.41800000000E+01 0.  1.
         -5    1    3    3    0  502 -0.28876560355E+02  0.28568869426E+01 -0.51931650675E+02  0.59635444852E+02  0.41800000000E+01 0.  1.
        -11    1    1    2    0    0  0.40407662800E+02  0.10449833662E+02 -0.16242931430E+02  0.44786282029E+02  0.00000000000E+00 0.  1.
         11    1    1    2    0    0 -0.48306485099E+02  0.28507370476E+02 -0.53162237631E+02  0.77281370227E+02  0.00000000000E+00 0. -1.
</event>
<event>
 7    1  0.2626349E-009  0.7744046E+02  0.7561462E-02  0.1336476E+00
         -3   -1    0    0    0  501 -0.00000000000E+00  0.00000000000E+00  0.58832503356E+03  0.58832503356E+03  0.00000000000E+00 0.  1.
          3   -1    0    0  501    0  0.00000000000E+00 -0.00000000000E+00 -0.22823563450E+02  0.22823563450E+02  0.00000000000E+00 0. -1.
         25    2    1    2    0    0  0.91212406080E+01  0.38505965127E+02  0.38012325160E+03  0.40212888296E+03  0.12509214894E+03 0.  0.
          5    1    3    3  502    0  0.63260523230E+01  0.54488736985E+02  0.38137931154E+03  0.38532673547E+03  0.41800000000E+01 0. -1.
         -5    1    3    3    0  502  0.27951882850E+01 -0.15982771858E+02 -0.12560599412E+01  0.16802147493E+02  0.41800000000E+01 0. -1.
        -11    1    1    2    0    0 -0.17072571022E+02  0.18720194807E+02  0.11599993596E+03  0.11873459276E+03  0.00000000000E+00 0.  1.
         11    1    1    2    0    0  0.79513304141E+01 -0.57226159934E+02  0.69378282546E+02  0.90285121283E+02  0.00000000000E+00 0. -1.
</event>
<event>
 7    1  0.2626349E-009  0.1710181E+03  0.7561462E-02  0.1176790E+00
          1   -1    0    0  501    0  0.00000000000E+00  0.00000000000E+00  0.34731721607E+03  0.34731721607E+03  0.00000000000E+00 0. -1.
         -1   -1    0    0    0  501 -0.00000000000E+00 -0.00000000000E+00 -0.95160447825E+02  0.95160447825E+02  0.00000000000E+00 0.  1.
         25    2    1    2    0    0  0.70244978652E+02  0.12213959270E+03  0.87179881210E+02  0.20760630051E+03  0.12509039608E+03 0.  0.
          5    1    3    3  502    0 -0.17550742528E+02  0.83053597120E+02  0.12668469010E+02  0.85929570376E+02  0.41800000000E+01 0. -1.
         -5    1    3    3    0  502  0.87795721180E+02  0.39085995579E+02  0.74511412200E+02  0.12167673013E+03  0.41800000000E+01 0. -1.
        -11    1    1    2    0    0 -0.81536841146E+02 -0.69875693669E+02  0.13836583758E+03  0.17514557956E+03  0.00000000000E+00 0. -1.
         11    1    1    2    0    0  0.11291862494E+02 -0.52263899031E+02  0.26611049453E+02  0.59725783825E+02  0.00000000000E+00 0.  1.
</event>
<event>
 7    1  0.2626349E-009  0.1155996E+03  0.7561462E-02  0.1250538E+00
          1   -1    0    0  501    0  0.00000000000E+00  0.00000000000E+00  0.46314449482E+03  0.46314449482E+03  0.00000000000E+00 0. -1.
         -1   -1    0    0    0  501 -0.00000000000E+00 -0.00000000000E+00 -0.44575440185E+02  0.44575440185E+02  0.00000000000E+00 0.  1.
         25    2    1    2    0    0  0.72568388601E+02  0.58262886749E+02  0.20915239539E+03  0.26087112936E+03  0.12509311188E+03 0.  0.
          5    1    3    3  502    0  0.72526080412E+02  0.77869479233E+02  0.88222698754E+02  0.13829101602E+03  0.41800000000E+01 0.  1.
         -5    1    3    3    0  502  0.42308189566E-01 -0.19606592484E+02  0.12092969664E+03  0.12258011334E+03  0.41800000000E+01 0.  1.
        -11    1    1    2    0    0  0.42678297967E+01 -0.16827918224E+02 -0.26086341675E+01  0.17555573905E+02  0.00000000000E+00 0.  1.
         11    1    1    2    0    0 -0.76836218398E+02 -0.41434968525E+02  0.21202529341E+03  0.22929323174E+03  0.00000000000E+00 0. -1.
</event>
<event>
 7    1  0.2626349E-009  0.8647686E+02  0.7561462E-02  0.1311615E+00
          1   -1    0    0  501    0  0.00000000000E+00  0.00000000000E+00  0.20476662025E+03  0.20476662025E+03  0.00000000000E+00 0.  1.
         -1   -1    0    0    0  501 -0.00000000000E+00 -0.00000000000E+00 -0.81491235556E+02  0.81491235556E+02  0.00000000000E+00 0. -1.
         25    2    1    2    0    0  0.42705517085E+02  0.49383820464E+02  0.95928008416E+02  0.17062264552E+03  0.12508949377E+03 0.  0.
          5    1    3    3  502    0  0.10570821729E+02  0.46327598185E+02 -0.18870671698E+02  0.51298764858E+02  0.41800000000E+01 0.  1.
         -5    1    3    3    0  502  0.32134695356E+02  0.30562222790E+01  0.11479868011E+03  0.11932388066E+03  0.41800000000E+01 0.  1.
        -11    1    1    2    0    0 -0.22340293622E+02 -0.63900527918E+02  0.48177745173E+02  0.83087070699E+02  0.00000000000E+00 0.  1.
         11    1    1    2    0    0 -0.20365223463E+02  0.14516707454E+02 -0.20830368897E+02  0.32548139584E+02  0.00000000000E+00 0. -1.
</event>
<event>
 7    1  0.2626349E-009  0.1019266E+03  0.7561462E-02  0.1276296E+00
          2   -1    0    0  501    0  0.00000000000E+00  0.00000000000E+00  0.33837554929E+03  0.33837554929E+03  0.00000000000E+00 0. -1.
         -2   -1    0    0    0  501 -0.00000000000E+00 -0.00000000000E+00 -0.38061306573E+02  0.38061306573E+02  0.00000000000E+00 0.  1.
         25    2    1    2    0    0 -0.10440228786E+02 -0.31488928490E+02  0.17061124262E+03  0.21414310862E+03  0.12509406007E+03 0.  0.
          5    1    3    3  502    0  0.11827710159E+02 -0.76946406109E+02  0.11372256664E+03  0.13788016066E+03  0.41800000000E+01 0.  1.
         -5    1    3    3    0  502 -0.22267938946E+02  0.45457477619E+02  0.56888675976E+02  0.76262947954E+02  0.41800000000E+01 0.  1.
        -11    1    1    2    0    0 -0.22806737371E+02  0.34886556623E+02  0.17474472764E+02  0.45194870294E+02  0.00000000000E+00 0.  1.
         11    1    1    2    0    0  0.33246966158E+02 -0.33976281331E+01  0.11222852733E+03  0.11709887695E+03  0.00000000000E+00 0. -1.
</event>
<event>
 7    1  0.2626349E-009  0.1266940E+03  0.7561462E-02  0.1232445E+00
          4   -1    0    0  501    0  0.00000000000E+00  0.00000000000E+00  0.22354932530E+02  0.22354932530E+02  0.00000000000E+00 0. -1.
         -4   -1    0    0    0  501 -0.00000000000E+00 -0.00000000000E+00 -0.10025277319E+04  0.10025277319E+04  0.00000000000E+00 0.  1.
         25    2    1    2    0    0 -0.70284680099E+02  0.35088935966E+02 -0.75230270296E+03  0.76666700509E+03  0.12509104738E+03 0.  0.
          5    1    3    3  502    0  0.27348762434E+02 -0.18682656335E+02 -0.24379205474E+03  0.24606713476E+03  0.41800000000E+01 0. -1.
         -5    1    3    3    0  502 -0.97633442532E+02  0.53771592301E+02 -0.50851064822E+03  0.52059987033E+03  0.41800000000E+01 0. -1.
        -11    1    1    2    0    0  0.38290781666E+02 -0.57726775101E+02 -0.19541405317E+03  0.20732876476E+03  0.00000000000E+00 0.  1.
         11    1    1    2    0    0  0.31993898433E+02  0.22637839135E+02 -0.32456043287E+02  0.50886894614E+02  0.00000000000E+00 0. -1.
</event>
<event>
 7    1  0.2626349E-009  0.1165511E+03  0.7561462E-02  0.1248898E+00
         -1   -1    0    0    0  501 -0.00000000000E+00  0.00000000000E+00  0.18942762872E+02  0.18942762872E+02  0.00000000000E+00 0.  1.
          1   -1    0    0  501    0  0.00000000000E+00 -0.00000000000E+00 -0.84144292498E+03  0.84144292498E+03  0.00000000000E+00 0. -1.
         25    2    1    2    0    0  0.56414053497E+02  0.73526142661E+01 -0.49637532860E+03  0.51504618416E+03  0.12508996201E+03 0.  0.
          5    1    3    3  502    0  0.59813433875E+02 -0.40669094842E+02 -0.16553866396E+03  0.18069904209E+03  0.41800000000E+01 0. -1.
         -5    1    3    3    0  502 -0.33993803783E+01  0.48021709108E+02 -0.33083666465E+03  0.33434714206E+03  0.41800000000E+01 0. -1.
        -11    1    1    2    0    0 -0.43873511117E+02 -0.50790916204E+02 -0.21930717344E+03  0.22934741871E+03  0.00000000000E+00 0. -1.
         11    1    1    2    0    0 -0.12540542380E+02  0.43438301938E+02 -0.10681766006E+03  0.11599208499E+03  0.00000000000E+00 0.  1.
</event>
<event>
 7    1  0.2626349E-009  0.4221000E+03  0.7561462E-02  0.1036385E+00
          1   -1    0    0  501    0  0.00000000000E+00  0.00000000000E+00  0.12103563730E+03  0.12103563730E+03  0.00000000000E+00 0. -1.
         -1   -1    0    0    0  501 -0.00000000000E+00 -0.00000000000E+00 -0.17605889437E+04  0.17605889437E+04  0.00000000000E+00 0.  1.
         25    2    1    2    0    0  0.40540059878E+03 -0.11661327678E+03 -0.11360196900E+04  0.12182514235E+04  0.12508993998E+03 0.  0.
          5    1    3    3  502    0  0.10714445357E+03 -0.26821898254E+02 -0.47237744556E+03  0.48513634334E+03  0.41800000000E+01 0. -1.
         -5    1    3    3    0  502  0.29825614521E+03 -0.89791378531E+02 -0.66364224441E+03  0.73311508017E+03  0.41800000000E+01 0. -1.
        -11    1    1    2    0    0 -0.35411899154E+03  0.10751509202E+03 -0.38564465921E+03  0.53449186931E+03  0.00000000000E+00 0. -1.
         11    1    1    2    0    0 -0.51281607245E+02  0.90981847602E+01 -0.11788895727E+03  0.12888128823E+03  0.00000000000E+00 0.  1.
</event>
<event>
 7    1  0.2626349E-009  0.1286126E+03  0.7561462E-02  0.1229529E+00
          2   -1    0    0  501    0  0.00000000000E+00  0.00000000000E+00  0.46771939395E+03  0.46771939395E+03  0.00000000000E+00 0. -1.
         -2   -1    0    0    0  501 -0.00000000000E+00 -0.00000000000E+00 -0.61757300135E+02  0.61757300135E+02  0.00000000000E+00 0.  1.
         25    2    1    2    0    0 -0.39063038496E+02  0.11352807795E+03  0.13244391729E+03  0.21818123144E+03  0.12508842100E+03 0.  0.
          5    1    3    3  502    0 -0.28145778514E+02  0.95328866170E+02  0.17244152850E+02  0.10096836525E+03  0.41800000000E+01 0.  1.
         -5    1    3    3    0  502 -0.10917259982E+02  0.18199211780E+02  0.11519976444E+03  0.11721286620E+03  0.41800000000E+01 0.  1.
        -11    1    1    2    0    0 -0.12184322148E+02 -0.62909579996E+02  0.19250822466E+03  0.20289280304E+03  0.00000000000E+00 0. -1.
         11    1    1    2    0    0  0.51247360644E+02 -0.50618497954E+02  0.81009951858E+02  0.10840265960E+03  0.00000000000E+00 0.  1.
</event>
<event>
 7    1  0.2626349E-009  0.1128451E+03  0.7561462E-02  0.1255390E+00
          2   -1    0    0  501    0  0.00000000000E+00  0.00000000000E+00  0.20303002964E+03  0.20303002964E+03  0.00000000000E+00 0. -1.
         -2   -1    0    0    0  501 -0.00000000000E+00 -0.00000000000E+00 -0.89216466977E+02  0.89216466977E+02  0.00000000000E+00 0.  1.
         25    2    1    2    0    0  0.20789391377E+02 -0.64721720070E+02  0.27800997749E+02  0.14505513071E+03  0.12508795156E+03 0.  0.
          5    1    3    3  502    0  0.51485606361E+02 -0.29421022121E+02  0.62806454021E+02  0.86478247391E+02  0.41800000000E+01 0.  1.
         -5    1    3    3    0  502 -0.30696214985E+02 -0.35300697949E+02 -0.35005456272E+02  0.58576883315E+02  0.41800000000E+01 0.  1.
        -11    1    1    2    0    0 -0.50705217725E+02  0.72401888598E+02  0.60265142510E+02  0.10698102626E+03  0.00000000000E+00 0. -1.
         11    1    1    2    0    0  0.29915826348E+02 -0.76801685281E+01  0.25747422403E+02  0.40210339654E+02  0.00000000000E+00 0.  1.
</event>
<event>
 7    1  0.2626349E-009  0.1008063E+03  0.7561462E-02  0.1278610E+00
         -1   -1    0    0    0  501 -0.00000000000E+00  0.00000000000E+00  0.10089123810E+03  0.10089123810E+03  0.00000000000E+00 0.  1.
          1   -1    0    0  501    0  0.00000000000E+00 -0.00000000000E+00 -0.18364594596E+03  0.18364594596E+03  0.00000000000E+00 0. -1.
         25    2    1    2    0    0  0.58263020398E+02 -0.46926008626E+02 -0.10124083953E+02  0.14610465687E+03  0.12508974319E+03 0.  0.
          5    1    3    3  502    0  0.68893865944E+02 -0.16461585206E+02  0.43611106203E+02  0.83287151088E+02  0.41800000000E+01 0.  1.
         -5    1    3    3    0  502 -0.10630845546E+02 -0.30464423420E+02 -0.53735190156E+02  0.62817505780E+02  0.41800000000E+01 0.  1.
        -11    1    1    2    0    0 -0.48704906124E+02 -0.15317687859E+01  0.21916707696E+01  0.48778249425E+02  0.00000000000E+00 0.  1.
         11    1    1    2    0    0 -0.95581142736E+01  0.48457777412E+02 -0.74822294680E+02  0.89654277764E+02  0.00000000000E+00 0. -1.
</event>
<event>
 7    1  0.2626349E-009  0.1024181E+03  0.7561462E-02  0.1275292E+00
         -1   -1    0    0    0  501 -0.00000000000E+00  0.00000000000E+00  0.67805329080E+02  0.67805329080E+02  0.00000000000E+00 0.  1.
          1   -1    0    0  501    0  0.00000000000E+00 -0.00000000000E+00 -0.22179385273E+03  0.22179385273E+03  0.00000000000E+00 0. -1.
         25    2    1    2    0    0  0.76363882654E+01 -0.31742864710E+02 -0.14170375511E+03  0.19181874084E+03  0.12509416948E+03 0.  0.
          5    1    3    3  502    0 -0.47300965185E+02 -0.78677494430E+01 -0.13094110878E+02  0.49881969973E+02  0.41800000000E+01 0.  1.
         -5    1    3    3    0  502  0.54937353450E+02 -0.23875115267E+02 -0.12860964423E+03  0.14193677086E+03  0.41800000000E+01 0.  1.
        -11    1    1    2    0    0  0.18196929892E+02  0.57419307288E+02 -0.11660414281E+02  0.61352020082E+02  0.00000000000E+00 0. -1.
         11    1    1    2    0    0 -0.25833318157E+02 -0.25676442578E+02 -0.62435425863E+00  0.36428420893E+02  0.00000000000E+00 0.  1.
</event>
<event>
 7    1  0.2626349E-009  0.9162675E+02  0.7561462E-02  0.1298959E+00
          1   -1    0    0  501    0  0.00000000000E+00  0.00000000000E+00  0.35277657837E+03  0.35277657837E+03  0.00000000000E+00 0.  1.
         -1   -1    0    0    0  501 -0.00000000000E+00 -0.00000000000E+00 -0.45751300067E+02  0.45751300067E+02  0.00000000000E+00 0. -1.
         25    2    1    2    0    0  0.10541133348E+02  0.15568688861E+02  0.26553921113E+03  0.29412894850E+03  0.12508903282E+03 0.  0.
          5    1    3    3  502    0  0.40231616132E+02  0.39078370767E+02  0.24392295798E+03  0.25032295905E+03  0.41800000000E+01 0. -1.
         -5    1    3    3    0  502 -0.29690482784E+02 -0.23509681906E+02  0.21616253151E+02  0.43805989449E+02  0.41800000000E+01 0. -1.
        -11    1    1    2    0    0  0.38140974885E+02 -0.12317747037E+01 -0.10585310104E+01  0.38175538267E+02  0.00000000000E+00 0. -1.
         11    1    1    2    0    0 -0.48682108233E+02 -0.14336914157E+02  0.42544598177E+02  0.66223391665E+02  0.00000000000E+00 0.  1.
</event>
<event>
 7    1  0.2626349E-009  0.1150594E+03  0.7561462E-02  0.1251477E+00
          1   -1    0    0  501    0  0.00000000000E+00  0.00000000000E+00  0.16921576980E+04  0.16921576980E+04  0.00000000000E+00 0. -1.
         -1   -1    0    0    0  501 -0.00000000000E+00 -0.00000000000E+00 -0.11989947667E+02  0.11989947667E+02  0.00000000000E+00 0.  1.
         25    2    1    2    0    0  0.25430120220E+02 -0.33235038746E+02  0.13979763121E+04  0.14041852736E+04  0.12508898739E+03 0.  0.
          5    1    3    3  502    0 -0.33214235493E+02  0.27938057584E+02  0.63779543676E+03  0.63928414031E+03  0.41800000000E+01 0.  1.
         -5    1    3    3    0  502  0.58644355712E+02 -0.61173096329E+02  0.76018087532E+03  0.76490113333E+03  0.41800000000E+01 0.  1.
        -11    1    1    2    0    0 -0.58982873247E+02  0.34054241502E+02  0.19304477396E+03  0.20470699904E+03  0.00000000000E+00 0.  1.
         11    1    1    2    0    0  0.33552753028E+02 -0.81920275658E+00  0.89146664305E+02  0.95255373001E+02  0.00000000000E+00 0. -1.
</event>
<event>
 7    1  0.2626349E-009  0.1241644E+03  0.7561462E-02  0.1236381E+00
         -3   -1    0    0    0  501 -0.00000000000E+00  0.00000000000E+00  0.80126072572E+03  0.80126072572E+03  0.00000000000E+00 0.  1.
          3   -1    0    0  501    0  0.00000000000E+00 -0.00000000000E+00 -0.35426512907E+02  0.35426512907E+02  0.00000000000E+00 0. -1.
         25    2    1    2    0    0  0.31439639048E+02 -0.82317162901E+02  0.64113294761E+03  0.65913754155E+03  0.12508507488E+03 0.  0.
          5    1    3    3  502    0 -0.30802366373E+02 -0.58661782607E+02  0.15743731786E+03  0.17086243580E+03  0.41800000000E+01 0. -1.
         -5    1    3    3    0  502  0.62242005421E+02 -0.23655380294E+02  0.48369562975E+03  0.48827510575E+03  0.41800000000E+01 0. -1.
        -11    1    1    2    0    0  0.45251739801E+01 -0.12777375094E+02  0.48872265521E+02  0.50717224401E+02  0.00000000000E+00 0.  1.
         11    1    1    2    0    0 -0.35964813028E+02  0.95094537995E+02  0.75828999689E+02  0.12683247268E+03  0.00000000000E+00 0. -1.
</event>
<event>
 7    1  0.2626349E-009  0.8637324E+02  0.7561462E-02  0.1311880E+00
         -3   -1    0    0    0  501 -0.00000000000E+00  0.00000000000E+00  0.71214068500E+02  0.71214068500E+02  0.00000000000E+00 0.  1.
          3   -1    0    0  501    0  0.00000000000E+00 -0.00000000000E+00 -0.30923254790E+03  0.30923254790E+03  0.00000000000E+00 0. -1.
         25    2    1    2    0    0  0.27130566230E+02 -0.46210180755E+00 -0.47005036907E+01  0.12809165148E+03  0.12509634400E+03 0.  0.
          5    1    3    3  502    0  0.54814025002E+02  0.86261577503E+01  0.44167069001E+02  0.71043580417E+02  0.41800000000E+01 0.  1.
         -5    1    3    3    0  502 -0.27683458772E+02 -0.90882595579E+01 -0.48867572691E+02  0.57048071064E+02  0.41800000000E+01 0.  1.
        -11    1    1    2    0    0 -0.29100678476E+02 -0.38718443895E+02 -0.75240807710E+02  0.89482660500E+02  0.00000000000E+00 0.  1.
         11    1    1    2    0    0  0.19701122458E+01  0.39180545703E+02 -0.15807716800E+03  0.16287230442E+03  0.00000000000E+00 0. -1.
</event>
<event>
 7    1  0.2626349E-009  0.1135203E+03  0.7561462E-02  0.1254186E+00
         -2   -1    0    0    0  501 -0.00000000000E+00  0.00000000000E+00  0.17242264297E+02  0.17242264297E+02  0.00000000000E+00 0.  1.
          2   -1    0    0  501    0  0.00000000000E+00 -0.00000000000E+00 -0.10835086886E+04  0.10835086886E+04  0.00000000000E+00 0. -1.
         25    2    1    2    0    0 -0.82448897446E+02 -0.65892317148E+00 -0.58285012777E+03  0.60179702309E+03  0.12508849143E+03 0.  0.
          5    1    3    3  502    0 -0.78683349043E+02 -0.23600742530E+02 -0.17610907358E+03  0.19437063220E+03  0.41800000000E+01 0. -1.
         -5    1    3    3    0  502 -0.37655484034E+01  0.22941819358E+02 -0.40674105419E+03  0.40742639089E+03  0.41800000000E+01 0. -1.
        -11    1    1    2    0    0  0.11450455198E+02 -0.38443160035E+02 -0.11717182504E+03  0.12384759206E+03  0.00000000000E+00 0.  1.
         11    1    1    2    0    0  0.70998442248E+02  0.39102083206E+02 -0.36624447145E+03  0.37510633770E+03  0.00000000000E+00 0. -1.
</event>
<event>
 7    1  0.2626349E-009  0.1469883E+03  0.7561462E-02  0.1204223E+00
          1   -1    0    0  501    0  0.00000000000E+00  0.00000000000E+00  0.92557126888E+02  0.92557126888E+02  0.00000000000E+00 0. -1.
         -1   -1    0    0    0  501 -0.00000000000E+00 -0.00000000000E+00 -0.28680140348E+03  0.28680140348E+03  0.00000000000E+00 0.  1.
         25    2    1    2    0    0 -0.10979642494E+03 -0.58712181994E+02 -0.10725159231E+03  0.20652672690E+03  0.12509200465E+03 0.  0.
          5    1    3    3  502    0 -0.88358133045E+02 -0.93293879806E+02 -0.10424302282E+03  0.16551431325E+03  0.41800000000E+01 0.  1.
         -5    1    3    3    0  502 -0.21438291899E+02  0.34581697812E+02 -0.30085694867E+01  0.41012413651E+02  0.41800000000E+01 0.  1.
        -11    1    1    2    0    0  0.64854505370E+02  0.35195842354E+02 -0.19544190278E+01  0.73815133540E+02  0.00000000000E+00 0.  1.
         11    1    1    2    0    0  0.44941919574E+02  0.23516339640E+02 -0.85038265256E+02  0.99016669923E+02  0.00000000000E+00 0. -1.
</event>
<event>
 7    1  0.2626349E-009  0.1120293E+03  0.7561462E-02  0.1256857E+00
          2   -1    0    0  501    0  0.00000000000E+00  0.00000000000E+00  0.86618360875E+03  0.86618360875E+03  0.00000000000E+00 0. -1.
         -2   -1    0    0    0  501 -0.00000000000E+00 -0.00000000000E+00 -0.17157704708E+02  0.17157704708E+02  0.00000000000E+00 0.  1.
         25    2    1    2    0    0  0.13642387072E+02  0.24016151720E+02  0.64215416979E+03  0.65480736494E+03  0.12509123522E+03 0.  0.
          5    1    3    3  502    0  0.66575899096E+02 -0.61990254094E+01  0.33059769622E+03  0.33731748754E+03  0.41800000000E+01 0.  1.
         -5    1    3    3    0  502 -0.52933512023E+02  0.30215177130E+02  0.31155647357E+03  0.31748987740E+03  0.41800000000E+01 0.  1.
        -11    1    1    2    0    0 -0.19963452657E+02 -0.58033506139E+02  0.14844261796E+03  0.16062888315E+03  0.00000000000E+00 0.  1.
         11    1    1    2    0    0  0.63210655843E+01  0.34017354418E+02  0.58429116292E+02  0.67905065366E+02  0.00000000000E+00 0. -1.
</event>
<event>
 7    1  0.2626349E-009  0.1051201E+03  0.7561462E-02  0.1269883E+00
         -2   -1    0    0    0  501 -0.00000000000E+00  0.00000000000E+00  0.22885440354E+02  0.22885440354E+02  0.00000000000E+00 0.  1.
          2   -1    0    0  501    0  0.00000000000E+00 -0.00000000000E+00 -0.73710043193E+03  0.73710043193E+03  0.00000000000E+00 0. -1.
         25    2    1    2    0    0 -0.54368564932E+01 -0.51284762805E+02 -0.53719016500E+03  0.55396792986E+03  0.12508999816E+03 0.  0.
          5    1    3    3  502    0  0.19303506836E+02 -0.71011466564E+02 -0.16871058536E+03  0.18410863036E+03  0.41800000000E+01 0.  1.
         -5    1    3    3    0  502 -0.24740363329E+02  0.19726703759E+02 -0.36847957964E+03  0.36985929950E+03  0.41800000000E+01 0.  1.
        -11    1    1    2    0    0  0.94908742796E+01 -0.25766168361E+02 -0.58013248927E+02  0.64183402665E+02  0.00000000000E+00 0.  1.
         11    1    1    2    0    0 -0.40540177864E+01  0.77050931166E+02 -0.11901157765E+03  0.14183453976E+03  0.00000000000E+00 0. -1.
</event>
<event>
 7    1  0.2626349E-009  0.1215878E+03  0.7561462E-02  0.1240501E+00
         -2   -1    0    0    0  501 -0.00000000000E+00  0.00000000000E+00  0.79555051414E+02  0.79555051414E+02  0.00000000000E+00 0.  1.
          2   -1    0    0  501    0  0.00000000000E+00 -0.00000000000E+00 -0.20306634871E+03  0.20306634871E+03  0.00000000000E+00 0. -1.
         25    2    1    2    0    0 -0.58486347717E+02 -0.27780296829E+02 -0.90648568260E+02  0.16750223311E+03  0.12508971744E+03 0.  0.
          5    1    3    3  502    0  0.23473835102E+02  0.27055215264E+02 -0.42193265616E+01  0.36308135783E+02  0.41800000000E+01 0.  1.
         -5    1    3    3    0  502 -0.81960182819E+02 -0.54835512093E+02 -0.86429241698E+02  0.13119409733E+03  0.41800000000E+01 0.  1.
        -11    1    1    2    0    0 -0.10825421220E+02  0.36944113397E+02 -0.15940657448E+01  0.38530485396E+02  0.00000000000E+00 0. -1.
         11    1    1    2    0    0  0.69311768937E+02 -0.91638165671E+01 -0.31268663290E+02  0.76588681613E+02  0.00000000000E+00 0.  1.
</event>
<event>
 7    1  0.2626349E-009  0.8795814E+02  0.7561462E-02  0.1307873E+00
          1   -1    0    0  501    0  0.00000000000E+00  0.00000000000E+00  0.26558431541E+03  0.26558431541E+03  0.00000000000E+00 0. -1.
         -1   -1    0    0    0  501 -0.00000000000E+00 -0.00000000000E+00 -0.78423976817E+02  0.78423976817E+02  0.00000000000E+00 0.  1.
         25    2    1    2    0    0  0.37234072218E+02 -0.54736713306E+02  0.18318599550E+03  0.23148913623E+03  0.12509047657E+03 0.  0.
          5    1    3    3  502    0  0.12678012251E+02 -0.58327877771E+02  0.15345628131E+02  0.61772437403E+02  0.41800000000E+01 0. -1.
         -5    1    3    3    0  502  0.24556059967E+02  0.35911644654E+01  0.16784036737E+03  0.16971669883E+03  0.41800000000E+01 0. -1.
        -11    1    1    2    0    0 -0.27611139830E+02  0.68651155142E+02 -0.25724530845E+02  0.78339693848E+02  0.00000000000E+00 0.  1.
         11    1    1    2    0    0 -0.96229323882E+01 -0.13914441837E+02  0.29698873934E+02  0.34179462142E+02  0.00000000000E+00 0. -1.
</event>
<event>
 7    1  0.2626349E-009  0.1313312E+03  0.7561462E-02  0.1225494E+00
          1   -1    0    0  501    0  0.00000000000E+00  0.00000000000E+00  0.45160471948E+03  0.45160471948E+03  0.00000000000E+00 0. -1.
         -1   -1    0    0    0  501 -0.00000000000E+00 -0.00000000000E+00 -0.55986915175E+02  0.55986915175E+02  0.00000000000E+00 0.  1.
         25    2    1    2    0    0 -0.31709526485E+02 -0.10359601832E+03  0.27666789798E+03  0.32238896734E+03  0.12510751938E+03 0.  0.
          5    1    3    3  502    0 -0.56522220606E+02 -0.14759147656E+02  0.17740577893E+03  0.18682311597E+03  0.41800000000E+01 0. -1.
         -5    1    3    3    0  502  0.24812694121E+02 -0.88836870668E+02  0.99262119050E+02  0.13556585137E+03  0.41800000000E+01 0. -1.
        -11    1    1    2    0    0  0.35130621499E+02  0.73390915536E+02  0.23002129940E+02  0.84554627501E+02  0.00000000000E+00 0.  1.
         11    1    1    2    0    0 -0.34210950141E+01  0.30205102788E+02  0.95947776385E+02  0.10064803982E+03  0.00000000000E+00 0. -1.
</event>
<event>
 7    1  0.2626349E-009  0.8014538E+02  0.7561462E-02  0.1328639E+00
          1   -1    0    0  501    0  0.00000000000E+00  0.00000000000E+00  0.35341185249E+03  0.35341185249E+03  0.00000000000E+00 0. -1.
         -1   -1    0    0    0  501 -0.00000000000E+00 -0.00000000000E+00 -0.34657245157E+02  0.34657245157E+02  0.00000000000E+00 0.  1.
         25    2    1    2    0    0 -0.23807581961E+01 -0.18546284483E+02  0.21225990125E+03  0.24708779965E+03  0.12509389424E+03 0.  0.
          5    1    3    3  502    0  0.26321223336E+02 -0.34046143181E+02  0.13023722862E+02  0.45155690899E+02  0.41800000000E+01 0. -1.
         -5    1    3    3    0  502 -0.28701981533E+02  0.15499858697E+02  0.19923617839E+03  0.20193210875E+03  0.41800000000E+01 0. -1.
        -11    1    1    2    0    0  0.20862059057E+02  0.46323159303E+02  0.33868844439E+02  0.61058653929E+02  0.00000000000E+00 0.  1.
         11    1    1    2    0    0 -0.18481300861E+02 -0.27776874819E+02  0.72625861640E+02  0.79922644071E+02  0.00000000000E+00 0. -1.
</event>
<event>
 7    1  0.2626349E-009  0.1450357E+03  0.7561462E-02  0.1206709E+00
          2   -1    0    0  501    0  0.00000000000E+00  0.00000000000E+00  0.15700064412E+04  0.15700064412E+04  0.00000000000E+00 0. -1.
         -2   -1    0    0    0  501 -0.00000000000E+00 -0.00000000000E+00 -0.26721087576E+02  0.26721087576E+02  0.00000000000E+00 0.  1.
         25    2    1    2    0    0  0.32881189063E+02  0.12014976262E+03  0.12752254804E+04  0.12873871946E+04  0.12509446398E+03 0.  0.
          5    1    3    3  502    0 -0.28024019532E+02  0.47986853266E+02  0.84805555374E+03  0.84988456768E+03  0.41800000000E+01 0.  1.
         -5    1    3    3    0  502  0.60905208596E+02  0.72162909354E+02  0.42716992670E+03  0.43750262696E+03  0.41800000000E+01 0.  1.
        -11    1    1    2    0    0 -0.46912366958E+02 -0.51130737734E+02  0.67632569881E+02  0.96898333440E+02  0.00000000000E+00 0.  1.
         11    1    1    2    0    0  0.14031177895E+02 -0.69019024886E+02  0.20042730334E+03  0.21244200072E+03  0.00000000000E+00 0. -1.
</event>
<event>
 7    1  0.2626349E-009  0.1348435E+03  0.7561462E-02  0.1220441E+00
         -3   -1    0    0    0  501 -0.00000000000E+00  0.00000000000E+00  0.61640765601E+02  0.61640765601E+02  0.00000000000E+00 0.  1.
          3   -1    0    0  501    0  0.00000000000E+00 -0.00000000000E+00 -0.34602175811E+03  0.34602175811E+03  0.00000000000E+00 0. -1.
         25    2    1    2    0    0 -0.75265624036E+02 -0.58794129612E+02 -0.12760007314E+03  0.20260978361E+03  0.12508909589E+03 0.  0.
          5    1    3    3  502    0  0.24047533359E+02  0.22744755293E+01 -0.66588325755E+02  0.70957273245E+02  0.41800000000E+01 0. -1.
         -5    1    3    3    0  502 -0.99313157395E+02 -0.61068605141E+02 -0.61011747384E+02  0.13165251036E+03  0.41800000000E+01 0. -1.
        -11    1    1    2    0    0  0.19128858424E+02 -0.22617219787E+02 -0.58815392747E+02  0.65853642871E+02  0.00000000000E+00 0.  1.
         11    1    1    2    0    0  0.56136765613E+02  0.81411349399E+02 -0.97965526627E+02  0.13919909724E+03  0.00000000000E+00 0. -1.
</event>
<event>
 7    1  0.2626349E-009  0.1462903E+03  0.7561462E-02  0.1205107E+00
          2   -1    0    0  501    0  0.00000000000E+00  0.00000000000E+00  0.25131826404E+03  0.25131826404E+03  0.00000000000E+00 0. -1.
         -2   -1    0    0    0  501 -0.00000000000E+00 -0.00000000000E+00 -0.96418823163E+02  0.96418823163E+02  0.00000000000E+00 0.  1.
         25    2    1    2    0    0  0.81863291228E+02 -0.71390442011E+02  0.54146661379E+02  0.17429556992E+03  0.12509552787E+03 0.  0.
          5    1    3    3  502    0 -0.18349650160E+02  0.20728025613E+02  0.18388560541E+02  0.33495854454E+02  0.41800000000E+01 0.  1.
         -5    1    3    3    0  502  0.10021294139E+03 -0.92118467623E+02  0.35758100839E+02  0.14079971546E+03  0.41800000000E+01 0.  1.
        -11    1    1    2    0    0 -0.48603305905E+02  0.80393176047E+02  0.36988489381E+02  0.10096282705E+03  0.00000000000E+00 0.  1.
         11    1    1    2    0    0 -0.33259985324E+02 -0.90027340363E+01  0.63764290114E+02  0.72478690231E+02  0.00000000000E+00 0. -1.
</event>
<event>
 7    1  0.2626349E-009  0.1428777E+03  0.7561462E-02  0.1209508E+00
         -3   -1    0    0    0  501 -0.00000000000E+00  0.00000000000E+00  0.40799647187E+03  0.40799647187E+03  0.00000000000E+00 0.  1.
          3   -1    0    0  501    0  0.00000000000E+00 -0.00000000000E+00 -0.79484526219E+02  0.79484526219E+02  0.00000000000E+00 0. -1.
         25    2    1    2    0    0 -0.96576051754E+02 -0.61791527459E+02  0.53995051974E+02  0.17806861293E+03  0.12509132118E+03 0.  0.
          5    1    3    3  502    0 -0.12470845661E+03 -0.40588758576E+02  0.28208451464E+02  0.13421190561E+03  0.41800000000E+01 0. -1.
         -5    1    3    3    0  502  0.28132404855E+02 -0.21202768883E+02  0.25786600510E+02  0.43856707321E+02  0.41800000000E+01 0. -1.
        -11    1    1    2    0    0  0.71546119415E+02  0.27583263624E+02  0.24759776573E+03  0.25919941596E+03  0.00000000000E+00 0.  1.
         11    1    1    2    0    0  0.25029932339E+02  0.34208263834E+02  0.26919127948E+02  0.50212969211E+02  0.00000000000E+00 0. -1.
</event>
<event>
 7    1  0.2626349E-009  0.2660051E+03  0.7561462E-02  0.1103588E+00
         -1   -1    0    0    0  501 -0.00000000000E+00  0.00000000000E+00  0.10171264758E+03  0.10171264758E+03  0.00000000000E+00 0.  1.
          1   -1    0    0  501    0  0.00000000000E+00 -0.00000000000E+00 -0.96838318816E+03  0.96838318816E+03  0.00000000000E+00 0. -1.
         25    2    1    2    0    0 -0.25317853890E+03 -0.56919414544E+01 -0.69431763477E+03  0.74957056697E+03  0.12508911287E+03 0.  0.
          5    1    3    3  502    0 -0.44345364331E+02  0.40862597419E+02 -0.23813719278E+03  0.24568894600E+03  0.41800000000E+01 0.  1.
         -5    1    3    3    0  502 -0.20883317457E+03 -0.46554538873E+02 -0.45618044199E+03  0.50388162096E+03  0.41800000000E+01 0.  1.
        -11    1    1    2    0    0  0.66636380098E+02  0.22336912315E+02 -0.68866737115E+01  0.70617073567E+02  0.00000000000E+00 0.  1.
         11    1    1    2    0    0  0.18654215880E+03 -0.16644970861E+02 -0.16546623210E+03  0.24990819520E+03  0.00000000000E+00 0. -1.
</event>
<event>
 7    1  0.2626349E-009  0.1663399E+03  0.7561462E-02  0.1181719E+00
          3   -1    0    0  501    0  0.00000000000E+00  0.00000000000E+00  0.80893831639E+02  0.80893831639E+02  0.00000000000E+00 0. -1.
         -3   -1    0    0    0  501 -0.00000000000E+00 -0.00000000000E+00 -0.40041122914E+03  0.40041122914E+03  0.00000000000E+00 0.  1.
         25    2    1    2    0    0 -0.70115942139E+02 -0.12528487902E+03 -0.16812761392E+03  0.25402455993E+03  0.12509610797E+03 0.  0.
          5    1    3    3  502    0 -0.68953516408E+02 -0.72467828105E+01 -0.84061739781E+02  0.10904564082E+03  0.41800000000E+01 0.  1.
         -5    1    3    3    0  502 -0.11624257310E+01 -0.11803809621E+03 -0.84065874138E+02  0.14497891911E+03  0.41800000000E+01 0.  1.
        -11    1    1    2    0    0  0.63874040863E+02  0.97030428494E+02 -0.58653291235E+02  0.13013456775E+03  0.00000000000E+00 0.  1.
         11    1    1    2    0    0  0.62419012764E+01  0.28254450531E+02 -0.92736492347E+02  0.97145933107E+02  0.00000000000E+00 0. -1.
</event>
<event>
 7    1  0.2626349E-009  0.8611650E+02  0.7561462E-02  0.1312538E+00
         -2   -1    0    0    0  501 -0.00000000000E+00  0.00000000000E+00  0.52350180426E+02  0.52350180426E+02  0.00000000000E+00 0.  1.
          2   -1    0    0  501    0  0.00000000000E+00 -0.00000000000E+00 -0.29644560863E+03  0.29644560863E+03  0.00000000000E+00 0. -1.
         25    2    1    2    0    0 -0.34513570886E+02  0.31633314958E+02 -0.19283895619E+03  0.23457544674E+03  0.12508766526E+03 0.  0.
          5    1    3    3  502    0 -0.34982889819E+02 -0.37214049207E+02 -0.13554177809E+03  0.14490594897E+03  0.41800000000E+01 0. -1.
         -5    1    3    3    0  502  0.46931893334E+00  0.68847364165E+02 -0.57297178095E+02  0.89669497770E+02  0.41800000000E+01 0. -1.
        -11    1    1    2    0    0  0.17526160002E+02 -0.30259135187E+02  0.20454931570E+02  0.40511551096E+02  0.00000000000E+00 0.  1.
         11    1    1    2    0    0  0.16987410884E+02 -0.13741797717E+01 -0.71711403590E+02  0.73708791222E+02  0.00000000000E+00 0. -1.
</event>
<event>
 7    1  0.2626349E-009  0.9945104E+02  0.7561462E-02  0.1281455E+00
          1   -1    0    0  501    0  0.00000000000E+00  0.00000000000E+00  0.15820667579E+03  0.15820667579E+03  0.00000000000E+00 0. -1.
         -1   -1    0    0    0  501 -0.00000000000E+00 -0.00000000000E+00 -0.76752303032E+02  0.76752303032E+02  0.00000000000E+00 0.  1.
         25    2    1    2    0    0  0.11289160597E+02 -0.17345445203E+02  0.46358018128E+02  0.13499984608E+03  0.12509029931E+03 0.  0.
          5    1    3    3  502    0  0.44033820004E+02 -0.53830190931E+02  0.35168060966E+01  0.69760354679E+02  0.41800000000E+01 0.  1.
         -5    1    3    3    0  502 -0.32744659406E+02  0.36484745729E+02  0.42841212032E+02  0.65239491406E+02  0.41800000000E+01 0.  1.
        -11    1    1    2    0    0 -0.16387518437E+02 -0.29050213085E+02 -0.10240278163E+02  0.34890241295E+02  0.00000000000E+00 0.  1.
         11    1    1    2    0    0  0.50983578400E+01  0.46395658287E+02  0.45336632793E+02  0.65068891443E+02  0.00000000000E+00 0. -1.
</event>
<event>
 7    1  0.2626349E-009  0.1180379E+03  0.7561462E-02  0.1246369E+00
         -1   -1    0    0    0  501 -0.00000000000E+00  0.00000000000E+00  0.41340112145E+02  0.41340112145E+02  0.00000000000E+00 0.  1.
          1   -1    0    0  501    0  0.00000000000E+00 -0.00000000000E+00 -0.42622768265E+03  0.42622768265E+03  0.00000000000E+00 0. -1.
         25    2    1    2    0    0  0.64213428782E+02 -0.12940188360E+02 -0.14031173503E+03  0.19906260433E+03  0.12509086516E+03 0.  0.
          5    1    3    3  502    0  0.94419832266E+02 -0.34605771911E+02 -0.11956277218E+03  0.15628625361E+03  0.41800000000E+01 0.  1.
         -5    1    3    3    0  502 -0.30206403484E+02  0.21665583551E+02 -0.20748962844E+02  0.42776350723E+02  0.41800000000E+01 0.  1.
        -11    1    1    2    0    0 -0.58026617489E+02  0.39860211311E+02 -0.10630011334E+03  0.12749760342E+03  0.00000000000E+00 0.  1.
         11    1    1    2    0    0 -0.61868112928E+01 -0.26920022950E+02 -0.13827572214E+03  0.14100758704E+03  0.00000000000E+00 0. -1.
</event>
<event>
 7    1  0.2894211E-009  0.1250723E+03  0.7561462E-02  0.1234956E+00
         -1   -1    0    0    0  501 -0.00000000000E+00  0.00000000000E+00  0.29548637657E+03  0.29548637657E+03  0.00000000000E+00 0.  1.
          1   -1    0    0  501    0  0.00000000000E+00 -0.00000000000E+00 -0.63198707065E+02  0.63198707065E+02  0.00000000000E+00 0. -1.
         25    2    1    2    0    0 -0.53546465869E+02 -0.36887734217E+02  0.59426761799E+02  0.15299177442E+03  0.12508802532E+03 0.  0.
          5    1    3    3  502    0 -0.78904049797E+02 -0.64287598489E+02  0.33054110260E+02  0.10709244137E+03  0.41800000000E+01 0. -1.
         -5    1    3    3    0  502  0.25357583927E+02  0.27399864272E+02  0.26372651539E+02  0.45899333045E+02  0.41800000000E+01 0. -1.
        -11    1    1    2    0    0  0.28872400956E+02  0.66305530691E+02  0.12404455006E+03  0.14358652213E+03  0.00000000000E+00 0.  1.
         11    1    1    2    0    0  0.24674064913E+02 -0.29417796474E+02  0.48816357645E+02  0.62106787089E+02  0.00000000000E+00 0. -1.
</event>
<event>
 7    1  0.2626349E-009  0.1068986E+03  0.7561462E-02  0.1266423E+00
         -2   -1    0    0    0  501 -0.00000000000E+00  0.00000000000E+00  0.39547082518E+02  0.39547082518E+02  0.00000000000E+00 0.  1.
          2   -1    0    0  501    0  0.00000000000E+00 -0.00000000000E+00 -0.30374883203E+03  0.30374883203E+03  0.00000000000E+00 0. -1.
         25    2    1    2    0    0  0.12556147393E+02 -0.64099249894E+01 -0.14434556883E+03  0.19152345756E+03  0.12508735979E+03 0.  0.
          5    1    3    3  502    0 -0.31148604144E+02 -0.49856242832E+02 -0.97789875870E+02  0.11417623532E+03  0.41800000000E+01 0.  1.
         -5    1    3    3    0  502  0.43704751537E+02  0.43446317843E+02 -0.46555692963E+02  0.77347222240E+02  0.41800000000E+01 0.  1.
        -11    1    1    2    0    0 -0.34977414191E+02  0.39730475527E+02 -0.69468355561E+02  0.87337177728E+02  0.00000000000E+00 0.  1.
         11    1    1    2    0    0  0.22421266799E+02 -0.33320550538E+02 -0.50387825117E+02  0.64435279257E+02  0.00000000000E+00 0. -1.
</event>
<event>
 7    1  0.2626349E-009  0.1763809E+03  0.7561462E-02  0.1171352E+00
         -2   -1    0    0    0  501 -0.00000000000E+00  0.00000000000E+00  0.54299869652E+03  0.54299869652E+03  0.00000000000E+00 0.  1.
          2   -1    0    0  501    0  0.00000000000E+00 -0.00000000000E+00 -0.59032182958E+02  0.59032182958E+02  0.00000000000E+00 0. -1.
         25    2    1    2    0    0 -0.14246113867E+03  0.98796750663E+01  0.28242718235E+03  0.34030337855E+03  0.12509393313E+03 0.  0.
          5    1    3    3  502    0 -0.12106187044E+03 -0.43325053465E+02  0.16212395764E+03  0.20696542410E+03  0.41800000000E+01 0.  1.
         -5    1    3    3    0  502 -0.21399268228E+02  0.53204728532E+02  0.12030322472E+03  0.13333795445E+03  0.41800000000E+01 0.  1.
        -11    1    1    2    0    0  0.36819100887E+02 -0.42327963086E+02  0.59788477433E+02  0.81987588591E+02  0.00000000000E+00 0.  1.
         11    1    1    2    0    0  0.10564203778E+03  0.32448288020E+02  0.14175085377E+03  0.17973991234E+03  0.00000000000E+00 0. -1.
</event>
<event>
 7    1  0.2626349E-009  0.1057748E+03  0.7561462E-02  0.1268600E+00
         -1   -1    0    0    0  501 -0.00000000000E+00  0.00000000000E+00  0.35351149584E+02  0.35351149584E+02  0.00000000000E+00 0.  1.
          1   -1    0    0  501    0  0.00000000000E+00 -0.00000000000E+00 -0.37544730168E+03  0.37544730168E+03  0.00000000000E+00 0. -1.
         25    2    1    2    0    0  0.12043304106E+00 -0.26989636872E+02 -0.24265927847E+03  0.27433470880E+03  0.12509017556E+03 0.  0.
          5    1    3    3  502    0  0.24482875732E+02 -0.65769472201E+02 -0.19848418268E+03  0.21056703886E+03  0.41800000000E+01 0. -1.
         -5    1    3    3    0  502 -0.24362442691E+02  0.38779835329E+02 -0.44175095785E+02  0.63767669941E+02  0.41800000000E+01 0. -1.
        -11    1    1    2    0    0  0.14189640373E+02 -0.31763128220E+02 -0.30600074822E+02  0.46331488076E+02  0.00000000000E+00 0. -1.
         11    1    1    2    0    0 -0.14310073414E+02  0.58752765091E+02 -0.66836798803E+02  0.90132254389E+02  0.00000000000E+00 0.  1.
</event>
<event>
 7    1  0.2626349E-009  0.9944555E+02  0.7561462E-02  0.1281466E+00
          2   -1    0    0  501    0  0.00000000000E+00  0.00000000000E+00  0.46184108853E+03  0.46184108853E+03  0.00000000000E+00 0. -1.
         -2   -1    0    0    0  501 -0.00000000000E+00 -0.00000000000E+00 -0.30617104485E+02  0.30617104485E+02  0.00000000000E+00 0.  1.
         25    2    1    2    0    0 -0.24747500411E+02 -0.22496820232E+02  0.32314585893E+03  0.34812222920E+03  0.12508914672E+03 0.  0.
          5    1    3    3  502    0 -0.49772064598E+02  0.33282473252E+02  0.99204230267E+02  0.11594797602E+03  0.41800000000E+01 0.  1.
         -5    1    3    3    0  502  0.25024564187E+02 -0.55779293483E+02  0.22394162866E+03  0.23217425319E+03  0.41800000000E+01 0.  1.
        -11    1    1    2    0    0  0.41664968495E+02  0.36684413806E+02  0.29804900036E+02  0.63008315976E+02  0.00000000000E+00 0.  1.
         11    1    1    2    0    0 -0.16917468084E+02 -0.14187593575E+02  0.78273225076E+02  0.81327647831E+02  0.00000000000E+00 0. -1.
</event>
<event>
 7    1  0.2626349E-009  0.8333736E+02  0.7561462E-02  0.1319839E+00
          2   -1    0    0  501    0  0.00000000000E+00  0.00000000000E+00  0.10285257834E+04  0.10285257834E+04  0.00000000000E+00 0. -1.
         -2   -1    0    0    0  501 -0.00000000000E+00 -0.00000000000E+00 -0.11611823968E+02  0.11611823968E+02  0.00000000000E+00 0.  1.
         25    2    1    2    0    0 -0.14576397777E+02 -0.10715956571E+02  0.60099845960E+03  0.61414504546E+03  0.12509070838E+03 0.  0.
          5    1    3    3  502    0 -0.63914377108E+01  0.31546157950E+02  0.53012260408E+03  0.53111529663E+03  0.41800000000E+01 0. -1.
         -5    1    3    3    0  502 -0.81849600658E+01 -0.42262114521E+02  0.70875855519E+02  0.83029748829E+02  0.41800000000E+01 0. -1.
        -11    1    1    2    0    0  0.23732696120E+02 -0.36134144140E+02  0.23129304162E+03  0.23529850900E+03  0.00000000000E+00 0. -1.
         11    1    1    2    0    0 -0.91562983437E+01  0.46850100712E+02  0.18462245818E+03  0.19069405287E+03  0.00000000000E+00 0.  1.
</event>
<event>
 7    1  0.2626349E-009  0.1131683E+03  0.7561462E-02  0.1254813E+00
          1   -1    0    0  501    0  0.00000000000E+00  0.00000000000E+00  0.58917446611E+03  0.58917446611E+03  0.00000000000E+00 0. -1.
         -1   -1    0    0    0  501 -0.00000000000E+00 -0.00000000000E+00 -0.28443215255E+02  0.28443215255E+02  0.00000000000E+00 0.  1.
         25    2    1    2    0    0  0.32952002916E+02 -0.43477343362E+02  0.41029344610E+03  0.43239374939E+03  0.12509008240E+03 0.  0.
          5    1    3    3  502    0  0.77804895052E+02 -0.65082271208E+01  0.23323458379E+03  0.24599146772E+03  0.41800000000E+01 0.  1.
         -5    1    3    3    0  502 -0.44852892136E+02 -0.36969116241E+02  0.17705886231E+03  0.18640228166E+03  0.41800000000E+01 0.  1.
        -11    1    1    2    0    0 -0.42948497835E+02 -0.23069011407E+01  0.12437368832E+03  0.13160056841E+03  0.00000000000E+00 0. -1.
         11    1    1    2    0    0  0.99964949187E+01  0.45784244503E+02  0.26064116440E+02  0.53623363575E+02  0.00000000000E+00 0.  1.
</event>
<event>
 7    1  0.3269170E-009  0.1010190E+03  0.7561462E-02  0.1278168E+00
          1   -1    0    0  501    0  0.00000000000E+00  0.00000000000E+00  0.10327867666E+04  0.10327867666E+04  0.00000000000E+00 0. -1.
         -1   -1    0    0    0  501 -0.00000000000E+00 -0.00000000000E+00 -0.15759504590E+02  0.15759504590E+02  0.00000000000E+00 0.  1.
         25    2    1    2    0    0 -0.15083092497E+02  0.50485459625E+02  0.73748441871E+03  0.74987155838E+03  0.12509118637E+03 0.  0.
          5    1    3    3  502    0 -0.40261822090E+02  0.78305489821E+02  0.36564307827E+03  0.37611846158E+03  0.41800000000E+01 0. -1.
         -5    1    3    3    0  502  0.25178729593E+02 -0.27820030196E+02  0.37184134044E+03  0.37375309680E+03  0.41800000000E+01 0. -1.
        -11    1    1    2    0    0  0.36024299125E+02 -0.32965558245E+02  0.26133257844E+03  0.26585558996E+03  0.00000000000E+00 0. -1.
         11    1    1    2    0    0 -0.20941206628E+02 -0.17519901380E+02  0.18210264880E+02  0.32819122876E+02  0.00000000000E+00 0.  1.
</event>
<event>
 7    1  0.2626349E-009  0.2284762E+03  0.7561462E-02  0.1127717E+00
          2   -1    0    0  501    0  0.00000000000E+00  0.00000000000E+00  0.30911971220E+03  0.30911971220E+03  0.00000000000E+00 0.  1.
         -2   -1    0    0    0  501 -0.00000000000E+00 -0.00000000000E+00 -0.26449170245E+03  0.26449170245E+03  0.00000000000E+00 0. -1.
         25    2    1    2    0    0 -0.11366132116E+03  0.18365444466E+03 -0.12995581552E+03  0.28139609002E+03  0.12508954599E+03 0.  0.
          5    1    3    3  502    0 -0.12661083232E+03  0.11901582810E+03 -0.12700688313E+03  0.21527491949E+03  0.41800000000E+01 0. -1.
         -5    1    3    3    0  502  0.12949511154E+02  0.64638616558E+02 -0.29489323945E+01  0.66121170528E+02  0.41800000000E+01 0. -1.
        -11    1    1    2    0    0  0.38829229298E+02 -0.44335154671E+02  0.10290129078E+03  0.11858326456E+03  0.00000000000E+00 0.  1.
         11    1    1    2    0    0  0.74832091862E+02 -0.13931928999E+03  0.71682534488E+02  0.17363206008E+03  0.00000000000E+00 0. -1.
</event>
<event>
 7    1  0.2626349E-009  0.1143053E+03  0.7561462E-02  0.1252799E+00
          1   -1    0    0  501    0  0.00000000000E+00  0.00000000000E+00  0.14246218208E+04  0.14246218208E+04  0.00000000000E+00 0. -1.
         -1   -1    0    0    0  501 -0.00000000000E+00 -0.00000000000E+00 -0.20256819542E+02  0.20256819542E+02  0.00000000000E+00 0.  1.
         25    2    1    2    0    0 -0.67756907999E+02 -0.19253035241E+02  0.12027004886E+04  0.12112387920E+04  0.12509703404E+03 0.  0.
          5    1    3    3  502    0 -0.37933876910E+02 -0.71326228589E+02  0.57498243344E+03  0.58064505601E+03  0.41800000000E+01 0.  1.
         -5    1    3    3    0  502 -0.29823031089E+02  0.52073193348E+02  0.62771805519E+03  0.63059373599E+03  0.41800000000E+01 0.  1.
        -11    1    1    2    0    0  0.35832666162E+02 -0.16655727792E+02  0.17350619598E+03  0.17794885017E+03  0.00000000000E+00 0. -1.
         11    1    1    2    0    0  0.31924241837E+02  0.35908763034E+02  0.28158316599E+02  0.55690998134E+02  0.00000000000E+00 0.  1.
</event>
<event>
 7    1  0.2626349E-009  0.1096481E+03  0.7561462E-02  0.1261223E+00
          2   -1    0    0  501    0  0.00000000000E+00  0.00000000000E+00  0.49048367578E+03  0.49048367578E+03  0.00000000000E+00 0. -1.
         -2   -1    0    0    0  501 -0.00000000000E+00 -0.00000000000E+00 -0.44345393543E+02  0.44345393543E+02  0.00000000000E+00 0.  1.
         25    2    1    2    0    0  0.91926856144E+02  0.29962558726E+02  0.29020339734E+03  0.33047559332E+03  0.12509118331E+03 0.  0.
          5    1    3    3  502    0 -0.64103714324E+01  0.13230470735E+02 -0.71025976597E+01  0.16854005794E+02  0.41800000000E+01 0. -1.
         -5    1    3    3    0  502  0.98337227576E+02  0.16732087991E+02  0.29730599500E+03  0.31362158752E+03  0.41800000000E+01 0. -1.
        -11    1    1    2    0    0 -0.86099166390E+02 -0.14063365736E+02  0.57528082996E+02  0.10450035905E+03  0.00000000000E+00 0.  1.
         11    1    1    2    0    0 -0.58276897541E+01 -0.15899192990E+02  0.98406801895E+02  0.99853116951E+02  0.00000000000E+00 0. -1.
</event>
<event>
 7    1  0.2626349E-009  0.1226729E+03  0.7561462E-02  0.1238752E+00
          1   -1    0    0  501    0  0.00000000000E+00  0.00000000000E+00  0.29732981918E+03  0.29732981918E+03  0.00000000000E+00 0. -1.
         -1   -1    0    0    0  501 -0.00000000000E+00 -0.00000000000E+00 -0.57377488359E+02  0.57377488359E+02  0.00000000000E+00 0.  1.
         25    2    1    2    0    0  0.15974767957E+02 -0.66678518632E+02  0.10743663765E+03  0.17858060894E+03  0.12508870741E+03 0.  0.
          5    1    3    3  502    0 -0.45550494614E+02 -0.31157643980E+01  0.10028530412E+02  0.46931858791E+02  0.41800000000E+01 0.  1.
         -5    1    3    3    0  502  0.61525262571E+02 -0.63562754234E+02  0.97408107237E+02  0.13164875015E+03  0.41800000000E+01 0.  1.
        -11    1    1    2    0    0 -0.19839980766E+02 -0.17629161192E+02  0.57006235774E+02  0.62881818344E+02  0.00000000000E+00 0. -1.
         11    1    1    2    0    0  0.38652128090E+01  0.84307679824E+02  0.75509457398E+02  0.11324488025E+03  0.00000000000E+00 0.  1.
</event>
<event>
 7    1  0.4290591E-009  0.1329621E+03  0.7561462E-02  0.1223126E+00
         -1   -1    0    0    0  501 -0.00000000000E+00  0.00000000000E+00  0.32192168931E+02  0.32192168931E+02  0.00000000000E+00 0.  1.
          1   -1    0    0  501    0  0.00000000000E+00 -0.00000000000E+00 -0.69755385651E+03  0.69755385651E+03  0.00000000000E+00 0. -1.
         25    2    1    2    0    0  0.25372928226E+02 -0.99573816233E+02 -0.37501926132E+03  0.40846801497E+03  0.12509173644E+03 0.  0.
          5    1    3    3  502    0 -0.18675527727E+02 -0.87036687664E+02 -0.12075313950E+03  0.15007649194E+03  0.41800000000E+01 0.  1.
         -5    1    3    3    0  502  0.44048455953E+02 -0.12537128570E+02 -0.25426612182E+03  0.25839152303E+03  0.41800000000E+01 0.  1.
        -11    1    1    2    0    0 -0.54637802495E+02  0.55224748044E+02 -0.21865893587E+03  0.23204911656E+03  0.00000000000E+00 0. -1.
         11    1    1    2    0    0  0.29264874268E+02  0.44349068190E+02 -0.71683490380E+02  0.89228893909E+02  0.00000000000E+00 0.  1.
</event>
<event>
 7    1  0.2626349E-009  0.1239783E+03  0.7561462E-02  0.1236675E+00
         -2   -1    0    0    0  501 -0.00000000000E+00  0.00000000000E+00  0.39522971568E+03  0.39522971568E+03  0.00000000000E+00 0.  1.
          2   -1    0    0  501    0  0.00000000000E+00 -0.00000000000E+00 -0.53715338877E+02  0.53715338877E+02  0.00000000000E+00 0. -1.
         25    2    1    2    0    0  0.11244968921E+02  0.72027957830E+02  0.87199960572E+02  0.16901317433E+03  0.12508854439E+03 0.  0.
          5    1    3    3  502    0 -0.49136045094E+02  0.34439858637E+02  0.51837129152E+01  0.60372163039E+02  0.41800000000E+01 0. -1.
         -5    1    3    3    0  502  0.60381014015E+02  0.37588099193E+02  0.82016247657E+02  0.10864101129E+03  0.41800000000E+01 0. -1.
        -11    1    1    2    0    0  0.33971667314E+02 -0.61306329800E+02  0.14102835188E+03  0.15748503512E+03  0.00000000000E+00 0.  1.
         11    1    1    2    0    0 -0.45216636235E+02 -0.10721628030E+02  0.11328606436E+03  0.12244684511E+03  0.00000000000E+00 0. -1.
</event>
<event>
 7    1  0.2626349E-009  0.1117084E+03  0.7561462E-02  0.1257439E+00
         -2   -1    0    0    0  501 -0.00000000000E+00  0.00000000000E+00  0.45813306602E+03  0.45813306602E+03  0.00000000000E+00 0.  1.
          2   -1    0    0  501    0  0.00000000000E+00 -0.00000000000E+00 -0.36926297548E+02  0.36926297548E+02  0.00000000000E+00 0. -1.
         25    2    1    2    0    0  0.54690645033E+02  0.37673606852E+02  0.18236372195E+03  0.23089688951E+03  0.12508588726E+03 0.  0.
          5    1    3    3  502    0  0.13336270272E+02  0.61228324619E+02  0.27013580775E+02  0.68366437575E+02  0.41800000000E+01 0.  1.
         -5    1    3    3    0  502  0.41354374762E+02 -0.23554717767E+02  0.15535014118E+03  0.16253045193E+03  0.41800000000E+01 0.  1.
        -11    1    1    2    0    0 -0.78620202613E+02 -0.15333680748E+02  0.16759917215E+03  0.18575720855E+03  0.00000000000E+00 0.  1.
         11    1    1    2    0    0  0.23929557579E+02 -0.22339926104E+02  0.71243874375E+02  0.78405265513E+02  0.00000000000E+00 0. -1.
</event>
<event>
 7    1  0.2626349E-009  0.1103334E+03  0.7561462E-02  0.1259954E+00
          1   -1    0    0  501    0  0.00000000000E+00  0.00000000000E+00  0.23223270992E+03  0.23223270992E+03  0.00000000000E+00 0. -1.
         -1   -1    0    0    0  501 -0.00000000000E+00 -0.00000000000E+00 -0.68900742024E+02  0.68900742024E+02  0.00000000000E+00 0.  1.
         25    2    1    2    0    0  0.47597607891E+02  0.11134982261E+02  0.38720797745E+02  0.13977651380E+03  0.12509457832E+03 0.  0.
          5    1    3    3  502    0  0.89751819243E+02  0.20831122960E+01  0.34448150359E+02  0.96249030527E+02  0.41800000000E+01 0.  1.
         -5    1    3    3    0  502 -0.42154211352E+02  0.90518699653E+01  0.42726473856E+01  0.43527483275E+02  0.41800000000E+01 0.  1.
        -11    1    1    2    0    0 -0.36960075245E+02  0.28351768395E+02  0.23259736845E+02  0.52066162633E+02  0.00000000000E+00 0.  1.
         11    1    1    2    0    0 -0.10637532646E+02 -0.39486750656E+02  0.10135143330E+03  0.10929077551E+03  0.00000000000E+00 0. -1.
</event>
<event>
 7    1  0.2626349E-009  0.1964766E+03  0.7561462E-02  0.1152746E+00
          1   -1    0    0  501    0  0.00000000000E+00  0.00000000000E+00  0.30929842906E+03  0.30929842906E+03  0.00000000000E+00 0. -1.
         -1   -1    0    0    0  501 -0.00000000000E+00 -0.00000000000E+00 -0.13499598192E+03  0.13499598192E+03  0.00000000000E+00 0.  1.
         25    2    1    2    0    0  0.25168758830E+02 -0.16583051741E+03  0.47419223574E+02  0.21454270238E+03  0.12508701553E+03 0.  0.
          5    1    3    3  502    0  0.72392434616E+02 -0.11431412195E+03  0.11513778299E+02  0.13586177739E+03  0.41800000000E+01 0.  1.
         -5    1    3    3    0  502 -0.47223675786E+02 -0.51516395468E+02  0.35905445275E+02  0.78680924989E+02  0.41800000000E+01 0.  1.
        -11    1    1    2    0    0  0.24829647954E+02  0.10937063031E+03  0.52529242712E+02  0.12384574087E+03  0.00000000000E+00 0.  1.
         11    1    1    2    0    0 -0.49998406784E+02  0.56459887108E+02  0.74353980850E+02  0.10590596773E+03  0.00000000000E+00 0. -1.
</event>
<event>
 7    1  0.2626349E-009  0.1061404E+03  0.7561462E-02  0.1267889E+00
          2   -1    0    0  501    0  0.00000000000E+00  0.00000000000E+00  0.59002454206E+03  0.59002454206E+03  0.00000000000E+00 0. -1.
         -2   -1    0    0    0  501 -0.00000000000E+00 -0.00000000000E+00 -0.34383806073E+02  0.34383806073E+02  0.00000000000E+00 0.  1.
         25    2    1    2    0    0 -0.70929931558E+02  0.34392860732E+02  0.21531756242E+03  0.26119462216E+03  0.12508818450E+03 0.  0.
          5    1    3    3  502    0 -0.21206264849E+02  0.68991993268E+02  0.17208486281E+03  0.18665549339E+03  0.41800000000E+01 0.  1.
         -5    1    3    3    0  502 -0.49723666709E+02 -0.34599132536E+02  0.43232699604E+02  0.74539128773E+02  0.41800000000E+01 0.  1.
        -11    1    1    2    0    0  0.56174321924E+02 -0.30844025155E+02  0.34199317948E+03  0.34794574741E+03  0.00000000000E+00 0. -1.
         11    1    1    2    0    0  0.14755609634E+02 -0.35488355766E+01 -0.16700059048E+01  0.15267978561E+02  0.00000000000E+00 0.  1.
</event>
<event>
 7    1  0.2626349E-009  0.1074079E+03  0.7561462E-02  0.1265447E+00
         -1   -1    0    0    0  501 -0.00000000000E+00  0.00000000000E+00  0.32666343210E+02  0.32666343210E+02  0.00000000000E+00 0.  1.
          1   -1    0    0  501    0  0.00000000000E+00 -0.00000000000E+00 -0.62567973654E+03  0.62567973654E+03  0.00000000000E+00 0. -1.
         25    2    1    2    0    0 -0.41291450766E+02  0.74076784721E+02 -0.39753951892E+03  0.42529866469E+03  0.12509568797E+03 0.  0.
          5    1    3    3  502    0 -0.73330241804E+02  0.42679926668E+02 -0.34850778927E+03  0.35871165591E+03  0.41800000000E+01 0. -1.
         -5    1    3    3    0  502  0.32038791038E+02  0.31396858053E+02 -0.49031729653E+02  0.66587008789E+02  0.41800000000E+01 0. -1.
        -11    1    1    2    0    0  0.20735786073E+02 -0.38274256307E+02 -0.12237329053E+02  0.45217737032E+02  0.00000000000E+00 0.  1.
         11    1    1    2    0    0  0.20555664693E+02 -0.35802528414E+02 -0.18323654535E+03  0.18782967802E+03  0.00000000000E+00 0. -1.
</event>
<event>
 7    1  0.2626349E-009  0.8102686E+02  0.7561462E-02  0.1326162E+00
         -2   -1    0    0    0  501 -0.00000000000E+00  0.00000000000E+00  0.63840730051E+02  0.63840730051E+02  0.00000000000E+00 0.  1.
          2   -1    0    0  501    0  0.00000000000E+00 -0.00000000000E+00 -0.33121004238E+03  0.33121004238E+03  0.00000000000E+00 0. -1.
         25    2    1    2    0    0 -0.38651394951E+01  0.46971224813E+02 -0.26085746444E+03  0.29311413549E+03  0.12509214366E+03 0.  0.
          5    1    3    3  502    0 -0.19633170874E+02  0.11016788125E+02 -0.25149770108E+03  0.25253791214E+03  0.41800000000E+01 0. -1.
         -5    1    3    3    0  502  0.15768031379E+02  0.35954436689E+02 -0.93597633622E+01  0.40576223350E+02  0.41800000000E+01 0. -1.
        -11    1    1    2    0    0  0.45691596417E+02 -0.19801616966E+02 -0.13444672761E+02  0.51580861211E+02  0.00000000000E+00 0.  1.
         11    1    1    2    0    0 -0.41826456922E+02 -0.27169607847E+02  0.69328248697E+01  0.50355775735E+02  0.00000000000E+00 0. -1.
</event>
<event>
 7    1  0.2626349E-009  0.1172078E+03  0.7561462E-02  0.1247776E+00
         -1   -1    0    0    0  501 -0.00000000000E+00  0.00000000000E+00  0.29867926291E+02  0.29867926291E+02  0.00000000000E+00 0.  1.
          1   -1    0    0  501    0  0.00000000000E+00 -0.00000000000E+00 -0.76661682254E+03  0.76661682254E+03  0.00000000000E+00 0. -1.
         25    2    1    2    0    0  0.13927873243E+02  0.78561970044E+02 -0.60387474681E+03  0.62183445232E+03  0.12508959777E+03 0.  0.
          5    1    3    3  502    0  0.60488226160E+02  0.69850413395E+02 -0.29042980867E+03  0.30480297230E+03  0.41800000000E+01 0. -1.
         -5    1    3    3    0  502 -0.46560352917E+02  0.87115566493E+01 -0.31344493813E+03  0.31703148002E+03  0.41800000000E+01 0. -1.
        -11    1    1    2    0    0 -0.32657827218E+02 -0.57938624902E+02 -0.39826231094E+02  0.77521265581E+02  0.00000000000E+00 0.  1.
         11    1    1    2    0    0  0.18729953975E+02 -0.20623345143E+02 -0.93047918352E+02  0.97129030936E+02  0.00000000000E+00 0. -1.
</event>
<event>
 7    1  0.2626349E-009  0.1912677E+03  0.7561462E-02  0.1157323E+00
          2   -1    0    0  501    0  0.00000000000E+00  0.00000000000E+00  0.55038036560E+03  0.55038036560E+03  0.00000000000E+00 0. -1.
         -2   -1    0    0    0  501 -0.00000000000E+00 -0.00000000000E+00 -0.85041007339E+02  0.85041007339E+02  0.00000000000E+00 0.  1.
         25    2    1    2    0    0 -0.98122264898E+02  0.15514552088E+03  0.29522421042E+03  0.36946157012E+03  0.12508559414E+03 0.  0.
          5    1    3    3  502    0 -0.49051575016E+01  0.61506794327E+02  0.21476215666E+02  0.65466377308E+02  0.41800000000E+01 0. -1.
         -5    1    3    3    0  502 -0.93217107396E+02  0.93638726554E+02  0.27374799476E+03  0.30399519282E+03  0.41800000000E+01 0. -1.
        -11    1    1    2    0    0  0.39718407113E+02 -0.10228143945E+03  0.14781622203E+03  0.18408878351E+03  0.00000000000E+00 0.  1.
         11    1    1    2    0    0  0.58403857785E+02 -0.52864081429E+02  0.22298925811E+02  0.81871019303E+02  0.00000000000E+00 0. -1.
</event>
<event>
 7    1  0.2626349E-009  0.8976614E+02  0.7561462E-02  0.1303419E+00
         -1   -1    0    0    0  501 -0.00000000000E+00  0.00000000000E+00  0.36782175064E+02  0.36782175064E+02  0.00000000000E+00 0.  1.
          1   -1    0    0  501    0  0.00000000000E+00 -0.00000000000E+00 -0.46547695778E+03  0.46547695778E+03  0.00000000000E+00 0. -1.
         25    2    1    2    0    0  0.44770446750E+02  0.50080255297E+02 -0.18346691704E+03  0.23199128485E+03  0.12508965475E+03 0.  0.
          5    1    3    3  502    0  0.28288873694E+02  0.23844625206E+02 -0.19510926700E+03  0.19863012107E+03  0.41800000000E+01 0.  1.
         -5    1    3    3    0  502  0.16481573056E+02  0.26235630092E+02  0.11642349957E+02  0.33361163787E+02  0.41800000000E+01 0.  1.
        -11    1    1    2    0    0 -0.58522175807E+02  0.59731991366E+00 -0.10037484369E+03  0.11619083913E+03  0.00000000000E+00 0.  1.
         11    1    1    2    0    0  0.13751729057E+02 -0.50677575211E+02 -0.14485302199E+03  0.15407700886E+03  0.00000000000E+00 0. -1.
</event>
<event>
 7    1  0.2894278E-009  0.1349512E+03  0.7561462E-02  0.1220289E+00
          1   -1    0    0  501    0  0.00000000000E+00  0.00000000000E+00  0.16165090923E+03  0.16165090923E+03  0.00000000000E+00 0. -1.
         -1   -1    0    0    0  501 -0.00000000000E+00 -0.00000000000E+00 -0.14355730289E+03  0.14355730289E+03  0.00000000000E+00 0.  1.
         25    2    1    2    0    0 -0.80970214287E+02  0.69039687105E+02  0.93476119238E+01  0.16449335712E+03  0.12509209684E+03 0.  0.
          5    1    3    3  502    0 -0.94588284431E+02  0.94761681901E+02  0.14147737019E+02  0.13470096797E+03  0.41800000000E+01 0. -1.
         -5    1    3    3    0  502  0.13618070143E+02 -0.25721994796E+02 -0.48001250953E+01  0.29792389157E+02  0.41800000000E+01 0. -1.
        -11    1    1    2    0    0  0.63306960015E+02 -0.56808736221E+02 -0.34999640085E+02  0.91978141444E+02  0.00000000000E+00 0.  1.
         11    1    1    2    0    0  0.17663254272E+02 -0.12230950884E+02  0.43745634496E+02  0.48736713558E+02  0.00000000000E+00 0. -1.
</event>
<event>
 7    1  0.2626349E-009  0.1329755E+03  0.7561462E-02  0.1223106E+00
          1   -1    0    0  501    0  0.00000000000E+00  0.00000000000E+00  0.28637418123E+02  0.28637418123E+02  0.00000000000E+00 0. -1.
         -1   -1    0    0    0  501 -0.00000000000E+00 -0.00000000000E+00 -0.85677758433E+03  0.85677758433E+03  0.00000000000E+00 0.  1.
         25    2    1    2    0    0  0.82597094664E+02  0.42678385935E+02 -0.62381880930E+03  0.64299393786E+03  0.12509025789E+03 0.  0.
          5    1    3    3  502    0  0.51407362428E+02  0.76822625272E+02 -0.53322059672E+03  0.54118953226E+03  0.41800000000E+01 0. -1.
         -5    1    3    3    0  502  0.31189732235E+02 -0.34144239338E+02 -0.90598212582E+02  0.10180440560E+03  0.41800000000E+01 0. -1.
        -11    1    1    2    0    0 -0.10032023357E+03 -0.43269147362E+02 -0.15210689870E+03  0.18727754006E+03  0.00000000000E+00 0. -1.
         11    1    1    2    0    0  0.17723138910E+02  0.59076142717E+00 -0.52214458213E+02  0.55143524537E+02  0.00000000000E+00 0.  1.
</event>
<event>
 7    1  0.2626349E-009  0.1796614E+03  0.7561462E-02  0.1168131E+00
          3   -1    0    0  501    0  0.00000000000E+00  0.00000000000E+00  0.57413724832E+03  0.57413724832E+03  0.00000000000E+00 0. -1.
         -3   -1    0    0    0  501 -0.00000000000E+00 -0.00000000000E+00 -0.61112973367E+02  0.61112973367E+02  0.00000000000E+00 0.  1.
         25    2    1    2    0    0  0.35611488646E+02  0.14040379954E+03  0.18960150781E+03  0.26939961768E+03  0.12508404051E+03 0.  0.
          5    1    3    3  502    0 -0.32205178174E+02  0.11291727557E+03  0.10630993356E+03  0.15845112495E+03  0.41800000000E+01 0.  1.
         -5    1    3    3    0  502  0.67816666819E+02  0.27486523975E+02  0.83291574245E+02  0.11094849273E+03  0.41800000000E+01 0.  1.
        -11    1    1    2    0    0 -0.59821378173E+02 -0.60657000781E+02  0.19445156690E+03  0.21229526820E+03  0.00000000000E+00 0. -1.
         11    1    1    2    0    0  0.24209889527E+02 -0.79746798761E+02  0.12897120024E+03  0.15355533581E+03  0.00000000000E+00 0.  1.
</event>
<event>
 7    1  0.2626349E-009  0.1456049E+03  0.7561462E-02  0.1205980E+00
         -3   -1    0    0    0  501 -0.00000000000E+00  0.00000000000E+00  0.56208142462E+02  0.56208142462E+02  0.00000000000E+00 0.  1.
          3   -1    0    0  501    0  0.00000000000E+00 -0.00000000000E+00 -0.66556787473E+03  0.66556787473E+03  0.00000000000E+00 0. -1.
         25    2    1    2    0    0 -0.32744830158E+02  0.10035331316E+03 -0.95537680022E+02  0.18952136098E+03  0.12509151289E+03 0.  0.
          5    1    3    3  502    0 -0.71013810043E+02  0.94467489378E+02 -0.46908053455E+02  0.12721991057E+03  0.41800000000E+01 0. -1.
         -5    1    3    3    0  502  0.38268979885E+02  0.58858237855E+01 -0.48629626567E+02  0.62301450409E+02  0.41800000000E+01 0. -1.
        -11    1    1    2    0    0  0.51126615689E+02 -0.25884544356E+02 -0.29131034315E+03  0.29689334195E+03  0.00000000000E+00 0.  1.
         11    1    1    2    0    0 -0.18381785531E+02 -0.74468768808E+02 -0.22251170910E+03  0.23536131426E+03  0.00000000000E+00 0. -1.
</event>
<event>
 7    1  0.2626349E-009  0.1192720E+03  0.7561462E-02  0.1244303E+00
         -1   -1    0    0    0  501 -0.00000000000E+00  0.00000000000E+00  0.37483721819E+02  0.37483721819E+02  0.00000000000E+00 0.  1.
          1   -1    0    0  501    0  0.00000000000E+00 -0.00000000000E+00 -0.72010259138E+03  0.72010259138E+03  0.00000000000E+00 0. -1.
         25    2    1    2    0    0 -0.10381469674E+02  0.97989369551E+02 -0.48292728332E+03  0.50850438365E+03  0.12509298843E+03 0.  0.
          5    1    3    3  502    0 -0.41482199653E+01  0.30859315949E+02 -0.13419296810E+02  0.34162187234E+02  0.41800000000E+01 0. -1.
         -5    1    3    3    0  502 -0.62332497090E+01  0.67130053602E+02 -0.46950798651E+03  0.47434219641E+03  0.41800000000E+01 0. -1.
        -11    1    1    2    0    0  0.22584205029E+02 -0.11580432194E+03 -0.19347292920E+03  0.22661081534E+03  0.00000000000E+00 0. -1.
         11    1    1    2    0    0 -0.12202735355E+02  0.17814952387E+02 -0.62186570436E+01  0.22471114216E+02  0.00000000000E+00 0.  1.
</event>
<event>
 7    1  0.2626349E-009  0.9334312E+02  0.7561462E-02  0.1294952E+00
         -1   -1    0    0    0  501 -0.00000000000E+00  0.00000000000E+00  0.40990115837E+02  0.40990115837E+02  0.00000000000E+00 0.  1.
          1   -1    0    0  501    0  0.00000000000E+00 -0.00000000000E+00 -0.43400391460E+03  0.43400391460E+03  0.00000000000E+00 0. -1.
         25    2    1    2    0    0  0.62081283547E+02 -0.16491777295E+02 -0.13788464009E+03  0.19694185763E+03  0.12509139391E+03 0.  0.
          5    1    3    3  502    0  0.48459198225E+02  0.26744789689E+02 -0.41395571742E+01  0.55661351059E+02  0.41800000000E+01 0. -1.
         -5    1    3    3    0  502  0.13622085321E+02 -0.43236566984E+02 -0.13374508292E+03  0.14128050657E+03  0.41800000000E+01 0. -1.
        -11    1    1    2    0    0 -0.23024914423E+02  0.35426038287E+02 -0.38642392681E+02  0.57257186318E+02  0.00000000000E+00 0.  1.
         11    1    1    2    0    0 -0.39056369124E+02 -0.18934260991E+02 -0.21648676600E+03  0.22079498649E+03  0.00000000000E+00 0. -1.
</event>
<event>
 7    1  0.2626349E-009  0.2196383E+03  0.7561462E-02  0.1134153E+00
         -2   -1    0    0    0  501 -0.00000000000E+00  0.00000000000E+00  0.48497886255E+02  0.48497886255E+02  0.00000000000E+00 0.  1.
          2   -1    0    0  501    0  0.00000000000E+00 -0.00000000000E+00 -0.10177412635E+04  0.10177412635E+04  0.00000000000E+00 0. -1.
         25    2    1    2    0    0 -0.18740822257E+03 -0.33302531796E+02 -0.57925676368E+03  0.62242867436E+03  0.12509258926E+03 0.  0.
          5    1    3    3  502    0  0.18683436351E+02 -0.17716290343E+01 -0.47222692602E+02  0.50986905769E+02  0.41800000000E+01 0.  1.
         -5    1    3    3    0  502 -0.20609165892E+03 -0.31530902762E+02 -0.53203407108E+03  0.57144176859E+03  0.41800000000E+01 0.  1.
        -11    1    1    2    0    0  0.95751719625E+02  0.63639556015E+02 -0.19965083098E+03  0.23038845286E+03  0.00000000000E+00 0.  1.
         11    1    1    2    0    0  0.91656502941E+02 -0.30337024219E+02 -0.19033578260E+03  0.21342202254E+03  0.00000000000E+00 0. -1.
</event>
<event>
 7    1  0.2626349E-009  0.9034420E+02  0.7561462E-02  0.1302020E+00
          1   -1    0    0  501    0  0.00000000000E+00  0.00000000000E+00  0.53665807375E+03  0.53665807375E+03  0.00000000000E+00 0. -1.
         -1   -1    0    0    0  501 -0.00000000000E+00 -0.00000000000E+00 -0.23379857844E+02  0.23379857844E+02  0.00000000000E+00 0.  1.
         25    2    1    2    0    0 -0.93374773270E+01 -0.22975242175E+02  0.27561187121E+03  0.30368240581E+03  0.12508417091E+03 0.  0.
          5    1    3    3  502    0  0.14898103752E+01  0.34006134383E+02  0.22185621638E+03  0.22449117991E+03  0.41800000000E+01 0.  1.
         -5    1    3    3    0  502 -0.10827287702E+02 -0.56981376558E+02  0.53755654826E+02  0.79191225898E+02  0.41800000000E+01 0.  1.
        -11    1    1    2    0    0  0.16197087405E+02 -0.30390756735E+02  0.47150121405E+02  0.58387307558E+02  0.00000000000E+00 0.  1.
         11    1    1    2    0    0 -0.68596100780E+01  0.53365998910E+02  0.19051622329E+03  0.19796821823E+03  0.00000000000E+00 0. -1.
</event>
<event>
 7    1  0.2626349E-009  0.7149737E+02  0.7561462E-02  0.1355074E+00
          1   -1    0    0  501    0  0.00000000000E+00  0.00000000000E+00  0.14878350928E+03  0.14878350928E+03  0.00000000000E+00 0. -1.
         -1   -1    0    0    0  501 -0.00000000000E+00 -0.00000000000E+00 -0.94066814233E+02  0.94066814233E+02  0.00000000000E+00 0.  1.
         25    2    1    2    0    0  0.40098754555E+01  0.69499939037E+01  0.79711625367E+02  0.14853955075E+03  0.12508266627E+03 0.  0.
          5    1    3    3  502    0 -0.27979331858E+02 -0.12357356773E+02  0.10080725865E+03  0.10542828403E+03  0.41800000000E+01 0. -1.
         -5    1    3    3    0  502  0.31989207313E+02  0.19307350677E+02 -0.21095633281E+02  0.43111266720E+02  0.41800000000E+01 0. -1.
        -11    1    1    2    0    0 -0.24441135171E+02 -0.33222597540E+02  0.13523875671E+02  0.43405129754E+02  0.00000000000E+00 0. -1.
         11    1    1    2    0    0  0.20431259716E+02  0.26272603637E+02 -0.38518805989E+02  0.50905643010E+02  0.00000000000E+00 0.  1.
</event>
<event>
 7    1  0.2626349E-009  0.1070776E+03  0.7561462E-02  0.1266080E+00
          1   -1    0    0  501    0  0.00000000000E+00  0.00000000000E+00  0.69644127877E+02  0.69644127877E+02  0.00000000000E+00 0. -1.
         -1   -1    0    0    0  501 -0.00000000000E+00 -0.00000000000E+00 -0.25638630691E+03  0.25638630691E+03  0.00000000000E+00 0.  1.
         25    2    1    2    0    0 -0.26407715772E+02  0.71454686064E+02 -0.82821078592E+02  0.16825789990E+03  0.12509296626E+03 0.  0.
          5    1    3    3  502    0 -0.47807502860E+02  0.26594946270E+02 -0.10118791060E+03  0.11510566514E+03  0.41800000000E+01 0.  1.
         -5    1    3    3    0  502  0.21399787089E+02  0.44859739794E+02  0.18366832008E+02  0.53152234758E+02  0.41800000000E+01 0.  1.
        -11    1    1    2    0    0  0.46670521713E+02 -0.75488270701E+02 -0.54353938756E+02  0.10407193315E+03  0.00000000000E+00 0. -1.
         11    1    1    2    0    0 -0.20262805941E+02  0.40335846369E+01 -0.49567161684E+02  0.53700601738E+02  0.00000000000E+00 0.  1.
</event>
<event>
 7    1  0.2626349E-009  0.1513424E+03  0.7561462E-02  0.1198833E+00
          1   -1    0    0  501    0  0.00000000000E+00  0.00000000000E+00  0.15278007946E+03  0.15278007946E+03  0.00000000000E+00 0. -1.
         -1   -1    0    0    0  501 -0.00000000000E+00 -0.00000000000E+00 -0.21127466595E+03  0.21127466595E+03  0.00000000000E+00 0.  1.
         25    2    1    2    0    0 -0.22923840446E+02  0.13617373261E+03 -0.13935667411E+00  0.18632152017E+03  0.12508757550E+03 0.  0.
          5    1    3    3  502    0 -0.30257754900E+02  0.12689057727E+03  0.46094143226E+02  0.13841565219E+03  0.41800000000E+01 0.  1.
         -5    1    3    3    0  502  0.73339144542E+01  0.92831553446E+01 -0.46233499900E+02  0.47905867985E+02  0.41800000000E+01 0.  1.
        -11    1    1    2    0    0 -0.23710064106E+02 -0.93332358709E+02 -0.61618491246E+02  0.11432381548E+03  0.00000000000E+00 0.  1.
         11    1    1    2    0    0  0.46633904552E+02 -0.42841373902E+02  0.32632614285E+01  0.63409409765E+02  0.00000000000E+00 0. -1.
</event>
<event>
 7    1  0.2626349E-009  0.1199773E+03  0.7561462E-02  0.1243134E+00
          1   -1    0    0  501    0  0.00000000000E+00  0.00000000000E+00  0.30990876957E+03  0.30990876957E+03  0.00000000000E+00 0.  1.
         -1   -1    0    0    0  501 -0.00000000000E+00 -0.00000000000E+00 -0.52845371762E+02  0.52845371762E+02  0.00000000000E+00 0. -1.
         25    2    1    2    0    0 -0.58648989822E+02  0.25116677552E+02  0.16392786686E+03  0.21585088155E+03  0.12509478819E+03 0.  0.
          5    1    3    3  502    0 -0.96228515332E+02  0.31521039615E+02  0.12836253154E+03  0.16354789820E+03  0.41800000000E+01 0. -1.
         -5    1    3    3    0  502  0.37579525510E+02 -0.64043620630E+01  0.35565335320E+02  0.52302983351E+02  0.41800000000E+01 0. -1.
        -11    1    1    2    0    0  0.14786419098E+02 -0.48394008426E+02  0.81452100667E+02  0.95890890831E+02  0.00000000000E+00 0.  1.
         11    1    1    2    0    0  0.43862570724E+02  0.23277330874E+02  0.11683430281E+02  0.51012368954E+02  0.00000000000E+00 0. -1.
</event>
<event>
 7    1  0.2626349E-009  0.1221379E+03  0.7561462E-02  0.1239611E+00
          1   -1    0    0  501    0  0.00000000000E+00  0.00000000000E+00  0.87258798208E+02  0.87258798208E+02  0.00000000000E+00 0. -1.
         -1   -1    0    0    0  501 -0.00000000000E+00 -0.00000000000E+00 -0.33434752597E+03  0.33434752597E+03  0.00000000000E+00 0.  1.
         25    2    1    2    0    0  0.36724737477E+02  0.11320840680E+03 -0.20182716502E+03  0.26560717161E+03  0.12509242726E+03 0.  0.
          5    1    3    3  502    0  0.31457141215E+02  0.41737642100E+02 -0.11145431462E+01  0.52443275145E+02  0.41800000000E+01 0. -1.
         -5    1    3    3    0  502  0.52675962618E+01  0.71470764698E+02 -0.20071262187E+03  0.21316389646E+03  0.41800000000E+01 0. -1.
        -11    1    1    2    0    0 -0.31633431636E+01 -0.32444994457E+02 -0.59058896234E+02  0.67458414077E+02  0.00000000000E+00 0.  1.
         11    1    1    2    0    0 -0.33561394314E+02 -0.80763412341E+02  0.13797333491E+02  0.88540738492E+02  0.00000000000E+00 0. -1.
</event>
<event>
 7    1  0.2626349E-009  0.9709139E+02  0.7561462E-02  0.1286534E+00
          1   -1    0    0  501    0  0.00000000000E+00  0.00000000000E+00  0.81429773598E+02  0.81429773598E+02  0.00000000000E+00 0. -1.
         -1   -1    0    0    0  501 -0.00000000000E+00 -0.00000000000E+00 -0.19440048332E+03  0.19440048332E+03  0.00000000000E+00 0.  1.
         25    2    1    2    0    0 -0.55116227035E+02 -0.19082812084E+02 -0.36892474671E+02  0.14286580821E+03  0.12509049632E+03 0.  0.
          5    1    3    3  502    0 -0.42148359623E+02 -0.68191710493E+02 -0.43782314417E+02  0.91438269092E+02  0.41800000000E+01 0. -1.
         -5    1    3    3    0  502 -0.12967867413E+02  0.49108898408E+02  0.68898397461E+01  0.51427539119E+02  0.41800000000E+01 0. -1.
        -11    1    1    2    0    0  0.13286086745E+02  0.16289437904E+02  0.19452040947E+02  0.28639968318E+02  0.00000000000E+00 0. -1.
         11    1    1    2    0    0  0.41830140291E+02  0.27933741802E+01 -0.95530275996E+02  0.10432448039E+03  0.00000000000E+00 0.  1.
</event>
<event>
 7    1  0.2707335E-009  0.1085781E+03  0.7561462E-02  0.1263226E+00
          4   -1    0    0  501    0  0.00000000000E+00  0.00000000000E+00  0.87174599180E+03  0.87174599180E+03  0.00000000000E+00 0. -1.
         -4   -1    0    0    0  501 -0.00000000000E+00 -0.00000000000E+00 -0.18930851690E+02  0.18930851690E+02  0.00000000000E+00 0.  1.
         25    2    1    2    0    0  0.17070896249E+02  0.52992641482E+02  0.60951983420E+03  0.62470923255E+03  0.12509021307E+03 0.  0.
          5    1    3    3  502    0  0.59941584769E+02 -0.24807274291E+01  0.18817815688E+03  0.19755414124E+03  0.41800000000E+01 0.  1.
         -5    1    3    3    0  502 -0.42870688519E+02  0.55473368911E+02  0.42134167732E+03  0.42715509132E+03  0.41800000000E+01 0.  1.
        -11    1    1    2    0    0 -0.97064286411E+01  0.15287576409E+02  0.62224912405E+01  0.19147954112E+02  0.00000000000E+00 0.  1.
         11    1    1    2    0    0 -0.73644676082E+01 -0.68280217891E+02  0.23707281467E+03  0.24681965683E+03  0.00000000000E+00 0. -1.
</event>
<event>
 7    1  0.2626349E-009  0.1068662E+03  0.7561462E-02  0.1266486E+00
          1   -1    0    0  501    0  0.00000000000E+00  0.00000000000E+00  0.29564027545E+03  0.29564027545E+03  0.00000000000E+00 0. -1.
         -1   -1    0    0    0  501 -0.00000000000E+00 -0.00000000000E+00 -0.86824490180E+02  0.86824490180E+02  0.00000000000E+00 0.  1.
         25    2    1    2    0    0  0.63013894578E+02 -0.70965045899E+02  0.27334327866E+02  0.15937661329E+03  0.12508777212E+03 0.  0.
          5    1    3    3  502    0  0.59642452797E+02 -0.13933510884E+02 -0.38223330907E+02  0.72317773243E+02  0.41800000000E+01 0. -1.
         -5    1    3    3    0  502  0.33714417815E+01 -0.57031535015E+02  0.65557658773E+02  0.87058840043E+02  0.41800000000E+01 0. -1.
        -11    1    1    2    0    0 -0.26624254608E+02  0.26011630704E+02  0.52268209820E+01  0.37586906269E+02  0.00000000000E+00 0.  1.
         11    1    1    2    0    0 -0.36389639970E+02  0.44953415195E+02  0.17625463642E+03  0.18550124607E+03  0.00000000000E+00 0. -1.
</event>
<event>
 7    1  0.2626349E-009  0.8845148E+02  0.7561462E-02  0.1306646E+00
         -1   -1    0    0    0  501 -0.00000000000E+00  0.00000000000E+00  0.22516669108E+03  0.22516669108E+03  0.00000000000E+00 0.  1.
          1   -1    0    0  501    0  0.00000000000E+00 -0.00000000000E+00 -0.17559415702E+03  0.17559415702E+03  0.00000000000E+00 0. -1.
         25    2    1    2    0    0 -0.71482073007E+02  0.44978446249E+01 -0.12806317143E+03  0.19281075680E+03  0.12508355085E+03 0.  0.
          5    1    3    3  502    0 -0.48152156930E+02 -0.34238488956E+02 -0.24960518924E+01  0.59284121129E+02  0.41800000000E+01 0. -1.
         -5    1    3    3    0  502 -0.23329916077E+02  0.38736333581E+02 -0.12556711954E+03  0.13352663567E+03  0.41800000000E+01 0. -1.
        -11    1    1    2    0    0  0.29220268139E+02  0.28669068924E+01  0.15811660234E+03  0.16081947383E+03  0.00000000000E+00 0.  1.
         11    1    1    2    0    0  0.42261804868E+02 -0.73647515174E+01  0.19519103157E+02  0.47130617476E+02  0.00000000000E+00 0. -1.
</event>
<event>
 7    1  0.2626349E-009  0.1583126E+03  0.7561462E-02  0.1190615E+00
         -2   -1    0    0    0  501 -0.00000000000E+00  0.00000000000E+00  0.21052980396E+04  0.21052980396E+04  0.00000000000E+00 0.  1.
          2   -1    0    0  501    0  0.00000000000E+00 -0.00000000000E+00 -0.19346993754E+02  0.19346993754E+02  0.00000000000E+00 0. -1.
         25    2    1    2    0    0 -0.99817562876E+02  0.10454635238E+03  0.15560093336E+04  0.15677073417E+04  0.12509107654E+03 0.  0.
          5    1    3    3  502    0 -0.91742347945E+02  0.93999571028E+02  0.15432036268E+04  0.15487890379E+04  0.41800000000E+01 0. -1.
         -5    1    3    3    0  502 -0.80752149309E+01  0.10546781349E+02  0.12805706776E+02  0.18918303810E+02  0.41800000000E+01 0. -1.
        -11    1    1    2    0    0  0.26129756748E+02 -0.93119113615E+02  0.29641104102E+03  0.31179069701E+03  0.00000000000E+00 0. -1.
         11    1    1    2    0    0  0.73687806129E+02 -0.11427238762E+02  0.23353067120E+03  0.24514699457E+03  0.00000000000E+00 0.  1.
</event>
<event>
 7    1  0.2626349E-009  0.9720170E+02  0.7561462E-02  0.1286293E+00
          2   -1    0    0  501    0  0.00000000000E+00  0.00000000000E+00  0.20401700222E+03  0.20401700222E+03  0.00000000000E+00 0. -1.
         -2   -1    0    0    0  501 -0.00000000000E+00 -0.00000000000E+00 -0.58186461917E+02  0.58186461917E+02  0.00000000000E+00 0.  1.
         25    2    1    2    0    0  0.90344392421E+01 -0.11295083855E+02  0.91239050018E+02  0.15550432862E+03  0.12509129450E+03 0.  0.
          5    1    3    3  502    0  0.55829257380E+02 -0.41761650398E+02  0.47810454144E+02  0.84641912484E+02  0.41800000000E+01 0. -1.
         -5    1    3    3    0  502 -0.46794818138E+02  0.30466566543E+02  0.43428595874E+02  0.70862416139E+02  0.41800000000E+01 0. -1.
        -11    1    1    2    0    0  0.29032185594E+02  0.91328160699E+01 -0.97075587700E+01  0.31945466455E+02  0.00000000000E+00 0.  1.
         11    1    1    2    0    0 -0.38066624837E+02  0.21622677852E+01  0.64299049050E+02  0.74753669055E+02  0.00000000000E+00 0. -1.
</event>
<event>
 7    1  0.2626349E-009  0.1749821E+03  0.7561462E-02  0.1172750E+00
         -2   -1    0    0    0  501 -0.00000000000E+00  0.00000000000E+00  0.36388900634E+02  0.36388900634E+02  0.00000000000E+00 0.  1.
          2   -1    0    0  501    0  0.00000000000E+00 -0.00000000000E+00 -0.11008726958E+04  0.11008726958E+04  0.00000000000E+00 0. -1.
         25    2    1    2    0    0 -0.14490169456E+03 -0.47645326022E+02 -0.73704265379E+03  0.76298415594E+03  0.12508545288E+03 0.  0.
          5    1    3    3  502    0 -0.99810448005E+02  0.55263228872E+01 -0.22554321937E+03  0.24673848905E+03  0.41800000000E+01 0.  1.
         -5    1    3    3    0  502 -0.45091246560E+02 -0.53171648909E+02 -0.51149943443E+03  0.51624566689E+03  0.41800000000E+01 0.  1.
        -11    1    1    2    0    0  0.42629571978E+02  0.63597029863E+02 -0.16096609185E+03  0.17824686628E+03  0.00000000000E+00 0. -1.
         11    1    1    2    0    0  0.10227212259E+03 -0.15951703841E+02 -0.16647504954E+03  0.19603057423E+03  0.00000000000E+00 0.  1.
</event>
<event>
 7    1  0.2626349E-009  0.1019343E+03  0.7561462E-02  0.1276280E+00
          3   -1    0    0  501    0  0.00000000000E+00  0.00000000000E+00  0.23952295856E+02  0.23952295856E+02  0.00000000000E+00 0. -1.
         -3   -1    0    0    0  501 -0.00000000000E+00 -0.00000000000E+00 -0.61413271058E+03  0.61413271058E+03  0.00000000000E+00 0.  1.
         25    2    1    2    0    0  0.48602081441E+02  0.13076303645E+02 -0.27251952627E+03  0.30405300763E+03  0.12509271448E+03 0.  0.
          5    1    3    3  502    0  0.59372930651E+02 -0.36510099071E+02 -0.22038121340E+03  0.23117846753E+03  0.41800000000E+01 0. -1.
         -5    1    3    3    0  502 -0.10770849210E+02  0.49586402717E+02 -0.52138312866E+02  0.72874540105E+02  0.41800000000E+01 0. -1.
        -11    1    1    2    0    0 -0.51706347272E+02 -0.34060006449E+02 -0.30031333466E+03  0.30662962897E+03  0.00000000000E+00 0.  1.
         11    1    1    2    0    0  0.31042658317E+01  0.20983702804E+02 -0.17347553794E+02  0.27402369831E+02  0.00000000000E+00 0. -1.
</event>
<event>
 7    1  0.2626349E-009  0.1186587E+03  0.7561462E-02  0.1245326E+00
          2   -1    0    0  501    0  0.00000000000E+00  0.00000000000E+00  0.40535221568E+02  0.40535221568E+02  0.00000000000E+00 0.  1.
         -2   -1    0    0    0  501 -0.00000000000E+00 -0.00000000000E+00 -0.41515415573E+03  0.41515415573E+03  0.00000000000E+00 0. -1.
         25    2    1    2    0    0 -0.67545783845E+02 -0.23997002974E+02 -0.21999406120E+03  0.26303296126E+03  0.12510260861E+03 0.  0.
          5    1    3    3  502    0 -0.60088447300E+02  0.34258257331E+02 -0.56985419464E+02  0.89716554357E+02  0.41800000000E+01 0.  1.
         -5    1    3    3    0  502 -0.74573365446E+01 -0.58255260306E+02 -0.16300864173E+03  0.17331640690E+03  0.41800000000E+01 0.  1.
        -11    1    1    2    0    0  0.12895523589E+02  0.47818833358E+02 -0.40816278810E+02  0.64178687804E+02  0.00000000000E+00 0. -1.
         11    1    1    2    0    0  0.54650260256E+02 -0.23821830384E+02 -0.11380859415E+03  0.12847772823E+03  0.00000000000E+00 0.  1.
</event>
<event>
 7    1  0.2626349E-009  0.1965001E+03  0.7561462E-02  0.1152726E+00
         -2   -1    0    0    0  501 -0.00000000000E+00  0.00000000000E+00  0.60985482353E+03  0.60985482353E+03  0.00000000000E+00 0.  1.
          2   -1    0    0  501    0  0.00000000000E+00 -0.00000000000E+00 -0.77700682154E+02  0.77700682154E+02  0.00000000000E+00 0. -1.
         25    2    1    2    0    0 -0.10185073313E+03  0.14783703955E+03  0.18865950862E+03  0.28891238199E+03  0.12509433309E+03 0.  0.
          5    1    3    3  502    0 -0.11873650651E+03  0.86532948677E+02  0.92873573925E+02  0.17386570196E+03  0.41800000000E+01 0. -1.
         -5    1    3    3    0  502  0.16885773374E+02  0.61304090873E+02  0.95785934693E+02  0.11504668003E+03  0.41800000000E+01 0. -1.
        -11    1    1    2    0    0  0.94482819868E+02 -0.11597164424E+03  0.33170937125E+03  0.36387845840E+03  0.00000000000E+00 0.  1.
         11    1    1    2    0    0  0.73679132666E+01 -0.31865395311E+02  0.11785261515E+02  0.34764665297E+02  0.00000000000E+00 0. -1.
</event>
<event>
 7    1  0.2626349E-009  0.1068599E+03  0.7561462E-02  0.1266498E+00
          2   -1    0    0  501    0  0.00000000000E+00  0.00000000000E+00  0.10605416523E+04  0.10605416523E+04  0.00000000000E+00 0. -1.
         -2   -1    0    0    0  501 -0.00000000000E+00 -0.00000000000E+00 -0.18092493957E+02  0.18092493957E+02  0.00000000000E+00 0.  1.
         25    2    1    2    0    0 -0.63468315516E+02 -0.51746535724E+02  0.47121437011E+03  0.49436416016E+03  0.12508800592E+03 0.  0.
          5    1    3    3  502    0 -0.39302108560E+02 -0.71019940959E+01  0.42074857488E+03  0.42266053721E+03  0.41800000000E+01 0. -1.
         -5    1    3    3    0  502 -0.24166206956E+02 -0.44644541628E+02  0.50465795230E+02  0.71703622949E+02  0.41800000000E+01 0. -1.
        -11    1    1    2    0    0 -0.10287061173E+02 -0.18245809403E+02  0.10687937513E+03  0.10891250625E+03  0.00000000000E+00 0. -1.
         11    1    1    2    0    0  0.73755376690E+02  0.69992345127E+02  0.46435541312E+03  0.47535747986E+03  0.00000000000E+00 0.  1.
</event>
<event>
 7    1  0.2626349E-009  0.1337192E+03  0.7561462E-02  0.1222039E+00
          1   -1    0    0  501    0  0.00000000000E+00  0.00000000000E+00  0.13833082796E+04  0.13833082796E+04  0.00000000000E+00 0. -1.
         -1   -1    0    0    0  501 -0.00000000000E+00 -0.00000000000E+00 -0.16549692611E+02  0.16549692611E+02  0.00000000000E+00 0.  1.
         25    2    1    2    0    0  0.74808711372E+02  0.35034786839E+02  0.10371530746E+04  0.10479300724E+04  0.12508859681E+03 0.  0.
          5    1    3    3  502    0 -0.33112622452E+02  0.23984377481E+02  0.31187938182E+03  0.31457577360E+03  0.41800000000E+01 0. -1.
         -5    1    3    3    0  502  0.10792133382E+03  0.11050409358E+02  0.72527369275E+03  0.73335429885E+03  0.41800000000E+01 0. -1.
        -11    1    1    2    0    0  0.84102206075E+00 -0.41811587032E+02  0.71015935734E+02  0.82414678646E+02  0.00000000000E+00 0. -1.
         11    1    1    2    0    0 -0.75649733433E+02  0.67768001930E+01  0.25858957668E+03  0.26951322111E+03  0.00000000000E+00 0.  1.
</event>
<event>
 7    1  0.2626349E-009  0.1619433E+03  0.7561462E-02  0.1186520E+00
          2   -1    0    0  501    0  0.00000000000E+00  0.00000000000E+00  0.10485578128E+04  0.10485578128E+04  0.00000000000E+00 0. -1.
         -2   -1    0    0    0  501 -0.00000000000E+00 -0.00000000000E+00 -0.33336860106E+02  0.33336860106E+02  0.00000000000E+00 0.  1.
         25    2    1    2    0    0 -0.13863611961E+03 -0.54810426491E+02  0.61546634686E+03  0.64549791016E+03  0.12507826106E+03 0.  0.
          5    1    3    3  502    0 -0.54153309307E+02 -0.18043172029E+02  0.61914524279E+02  0.84314990852E+02  0.41800000000E+01 0. -1.
         -5    1    3    3    0  502 -0.84482810301E+02 -0.36767254462E+02  0.55355182258E+03  0.56118291931E+03  0.41800000000E+01 0. -1.
        -11    1    1    2    0    0  0.12620995016E+03  0.85248088407E+01  0.27293934631E+03  0.30082804166E+03  0.00000000000E+00 0.  1.
         11    1    1    2    0    0  0.12426169447E+02  0.46285617651E+02  0.12681525948E+03  0.13556872104E+03  0.00000000000E+00 0. -1.
</event>
<event>
 7    1  0.2626349E-009  0.1472169E+03  0.7561462E-02  0.1203935E+00
         -1   -1    0    0    0  501 -0.00000000000E+00  0.00000000000E+00  0.51805247791E+02  0.51805247791E+02  0.00000000000E+00 0.  1.
          1   -1    0    0  501    0  0.00000000000E+00 -0.00000000000E+00 -0.52465411752E+03  0.52465411752E+03  0.00000000000E+00 0. -1.
         25    2    1    2    0    0 -0.11738809416E+03  0.14863016961E+02 -0.31883900473E+03  0.36236494010E+03  0.12509662246E+03 0.  0.
          5    1    3    3  502    0  0.29857054285E+00  0.49204321816E+02 -0.98318304603E+02  0.11002325141E+03  0.41800000000E+01 0. -1.
         -5    1    3    3    0  502 -0.11768666470E+03 -0.34341304856E+02 -0.22052070013E+03  0.25234168869E+03  0.41800000000E+01 0. -1.
        -11    1    1    2    0    0  0.50426829785E+02  0.91466190086E+01 -0.82593242880E+01  0.51910906746E+02  0.00000000000E+00 0.  1.
         11    1    1    2    0    0  0.66961264370E+02 -0.24009635969E+02 -0.14575054071E+03  0.16218351847E+03  0.00000000000E+00 0. -1.
</event>
<event>
 7    1  0.2626349E-009  0.1003993E+03  0.7561462E-02  0.1279459E+00
         -3   -1    0    0    0  501 -0.00000000000E+00  0.00000000000E+00  0.17006284207E+03  0.17006284207E+03  0.00000000000E+00 0.  1.
          3   -1    0    0  501    0  0.00000000000E+00 -0.00000000000E+00 -0.83011273859E+02  0.83011273859E+02  0.00000000000E+00 0. -1.
         25    2    1    2    0    0 -0.18635283918E+02  0.47162422819E+02  0.45570281864E+02  0.14245672671E+03  0.12508277444E+03 0.  0.
          5    1    3    3  502    0 -0.60152445735E+02  0.25147127104E+02 -0.13649084953E+02  0.66741775894E+02  0.41800000000E+01 0. -1.
         -5    1    3    3    0  502  0.41517161817E+02  0.22015295715E+02  0.59219366817E+02  0.75714950815E+02  0.41800000000E+01 0. -1.
        -11    1    1    2    0    0  0.76831053983E+01 -0.66028534924E+02  0.53842218822E+02  0.85544035797E+02  0.00000000000E+00 0.  1.
         11    1    1    2    0    0  0.10952178520E+02  0.18866112105E+02 -0.12360932474E+02  0.25073353424E+02  0.00000000000E+00 0. -1.
</event>
<event>
 7    1  0.2626349E-009  0.1840259E+03  0.7561462E-02  0.1163963E+00
          2   -1    0    0  501    0  0.00000000000E+00  0.00000000000E+00  0.19188243149E+03  0.19188243149E+03  0.00000000000E+00 0.  1.
         -2   -1    0    0    0  501 -0.00000000000E+00 -0.00000000000E+00 -0.20387448259E+03  0.20387448259E+03  0.00000000000E+00 0. -1.
         25    2    1    2    0    0 -0.10368677527E+03 -0.11634850420E+03  0.46162355754E+02  0.20509727815E+03  0.12508400625E+03 0.  0.
          5    1    3    3  502    0  0.24096989007E+02 -0.45863491293E+02 -0.63916224417E-02  0.51976890573E+02  0.41800000000E+01 0. -1.
         -5    1    3    3    0  502 -0.12778376427E+03 -0.70485012910E+02  0.46168747377E+02  0.15312038757E+03  0.41800000000E+01 0. -1.
        -11    1    1    2    0    0  0.95063744719E+01  0.59113067700E+02 -0.53596261029E+02  0.80357234427E+02  0.00000000000E+00 0. -1.
         11    1    1    2    0    0  0.94180400794E+02  0.57235436502E+02 -0.45581458308E+01  0.11030240151E+03  0.00000000000E+00 0.  1.
</event>
<event>
 7    1  0.2626349E-009  0.1114647E+03  0.7561462E-02  0.1257881E+00
         -2   -1    0    0    0  501 -0.00000000000E+00  0.00000000000E+00  0.29029810972E+02  0.29029810972E+02  0.00000000000E+00 0. -1.
          2   -1    0    0  501    0  0.00000000000E+00 -0.00000000000E+00 -0.43144318579E+03  0.43144318579E+03  0.00000000000E+00 0.  1.
         25    2    1    2    0    0  0.17156442160E+02  0.13965236263E+02 -0.22261444339E+03  0.25630945232E+03  0.12509186069E+03 0.  0.
          5    1    3    3  502    0  0.28654251265E+02  0.66450607645E+02 -0.14036739397E+03  0.15797856520E+03  0.41800000000E+01 0.  1.
         -5    1    3    3    0  502 -0.11497809105E+02 -0.52485371382E+02 -0.82247049418E+02  0.98330887117E+02  0.41800000000E+01 0.  1.
        -11    1    1    2    0    0  0.29194873490E+02 -0.35061124292E+02 -0.78927417446E+02  0.91165565316E+02  0.00000000000E+00 0. -1.
         11    1    1    2    0    0 -0.46351315650E+02  0.21095888028E+02 -0.10087151398E+03  0.11299797913E+03  0.00000000000E+00 0.  1.
</event>
<event>
 7    1  0.2626349E-009  0.1107569E+03  0.7561462E-02  0.1259175E+00
          2   -1    0    0  501    0  0.00000000000E+00  0.00000000000E+00  0.10080835611E+04  0.10080835611E+04  0.00000000000E+00 0. -1.
         -2   -1    0    0    0  501 -0.00000000000E+00 -0.00000000000E+00 -0.17285385754E+02  0.17285385754E+02  0.00000000000E+00 0.  1.
         25    2    1    2    0    0  0.10715290597E+02 -0.32341376143E+02  0.79416146805E+03  0.80467390328E+03  0.12508745430E+03 0.  0.
          5    1    3    3  502    0  0.61562304153E+02 -0.44168431587E+02  0.52610088844E+03  0.53154528016E+03  0.41800000000E+01 0.  1.
         -5    1    3    3    0  502 -0.50847013555E+02  0.11827055444E+02  0.26806057960E+03  0.27312862312E+03  0.41800000000E+01 0.  1.
        -11    1    1    2    0    0 -0.39707070556E+02  0.46373292845E+02  0.86006847121E+02  0.10547185166E+03  0.00000000000E+00 0. -1.
         11    1    1    2    0    0  0.28991779959E+02 -0.14031916701E+02  0.11062986018E+03  0.11522319191E+03  0.00000000000E+00 0.  1.
</event>
<event>
 7    1  0.2626349E-009  0.1143058E+03  0.7561462E-02  0.1252798E+00
         -1   -1    0    0    0  501 -0.00000000000E+00  0.00000000000E+00  0.29643014580E+03  0.29643014580E+03  0.00000000000E+00 0.  1.
          1   -1    0    0  501    0  0.00000000000E+00 -0.00000000000E+00 -0.62196326502E+02  0.62196326502E+02  0.00000000000E+00 0. -1.
         25    2    1    2    0    0 -0.28859033972E+02 -0.46416667883E+02  0.20892189657E+03  0.24956637607E+03  0.12509063235E+03 0.  0.
          5    1    3    3  502    0  0.37417168865E+02 -0.42119930725E+02  0.43627255797E+02  0.71378868992E+02  0.41800000000E+01 0. -1.
         -5    1    3    3    0  502 -0.66276202837E+02 -0.42967371578E+01  0.16529464077E+03  0.17818750708E+03  0.41800000000E+01 0. -1.
        -11    1    1    2    0    0  0.33205719262E+01  0.70434326351E+02  0.11824153577E+02  0.71497070809E+02  0.00000000000E+00 0.  1.
         11    1    1    2    0    0  0.25538462046E+02 -0.24017658468E+02  0.13487769155E+02  0.37563025421E+02  0.00000000000E+00 0. -1.
</event>
<event>
 7    1  0.2626349E-009  0.1552560E+03  0.7561462E-02  0.1194159E+00
         -2   -1    0    0    0  501 -0.00000000000E+00  0.00000000000E+00  0.52119971339E+02  0.52119971339E+02  0.00000000000E+00 0.  1.
          2   -1    0    0  501    0  0.00000000000E+00 -0.00000000000E+00 -0.53591977078E+03  0.53591977078E+03  0.00000000000E+00 0. -1.
         25    2    1    2    0    0  0.10738310698E+03  0.35516650867E+02 -0.15701716100E+03  0.23042193131E+03  0.12508922186E+03 0.  0.
          5    1    3    3  502    0 -0.21582365918E+02 -0.15604989002E+02 -0.43238639462E+02  0.50954553701E+02  0.41800000000E+01 0. -1.
         -5    1    3    3    0  502  0.12896547290E+03  0.51121639868E+02 -0.11377852154E+03  0.17946737761E+03  0.41800000000E+01 0. -1.
        -11    1    1    2    0    0 -0.52553721396E+01  0.25338508542E+02 -0.47662402540E+02  0.54234339374E+02  0.00000000000E+00 0.  1.
         11    1    1    2    0    0 -0.10212773484E+03 -0.60855159409E+02 -0.27912023591E+03  0.30338347144E+03  0.00000000000E+00 0. -1.
</event>
<event>
 7    1  0.2626349E-009  0.2515704E+03  0.7561462E-02  0.1112316E+00
         -1   -1    0    0    0  501 -0.00000000000E+00  0.00000000000E+00  0.76589901270E+02  0.76589901270E+02  0.00000000000E+00 0.  1.
          1   -1    0    0  501    0  0.00000000000E+00 -0.00000000000E+00 -0.12915200730E+04  0.12915200730E+04  0.00000000000E+00 0. -1.
         25    2    1    2    0    0 -0.23747232802E+03 -0.53188154940E+02 -0.98123029141E+03  0.10186670669E+04  0.12509045505E+03 0.  0.
          5    1    3    3  502    0 -0.12769286397E+03 -0.35843081784E+02 -0.29483287529E+03  0.32331732211E+03  0.41800000000E+01 0.  1.
         -5    1    3    3    0  502 -0.10977946405E+03 -0.17345073156E+02 -0.68639741611E+03  0.69534974476E+03  0.41800000000E+01 0.  1.
        -11    1    1    2    0    0  0.95807182969E+02 -0.22780252415E+02 -0.10013737240E+03  0.14044731952E+03  0.00000000000E+00 0. -1.
         11    1    1    2    0    0  0.14166514505E+03  0.75968407355E+02 -0.13356250796E+03  0.20899558792E+03  0.00000000000E+00 0.  1.
</event>
<event>
 7    1  0.2626349E-009  0.1350805E+03  0.7561462E-02  0.1220106E+00
          1   -1    0    0  501    0  0.00000000000E+00  0.00000000000E+00  0.47732054364E+02  0.47732054364E+02  0.00000000000E+00 0. -1.
         -1   -1    0    0    0  501 -0.00000000000E+00 -0.00000000000E+00 -0.41385108870E+03  0.41385108870E+03  0.00000000000E+00 0.  1.
         25    2    1    2    0    0 -0.61675661339E+02 -0.55688631018E+02 -0.24546367479E+03  0.28775509142E+03  0.12508183789E+03 0.  0.
          5    1    3    3  502    0 -0.61299813216E+02 -0.91022442329E+02 -0.15021627855E+03  0.18607835674E+03  0.41800000000E+01 0.  1.
         -5    1    3    3    0  502 -0.37584812344E+00  0.35333811310E+02 -0.95247396239E+02  0.10167673467E+03  0.41800000000E+01 0.  1.
        -11    1    1    2    0    0  0.51657218757E+02 -0.14663299598E+02 -0.45330996919E+02  0.70273607325E+02  0.00000000000E+00 0. -1.
         11    1    1    2    0    0  0.10018442583E+02  0.70351930617E+02 -0.75324362632E+02  0.10355444432E+03  0.00000000000E+00 0.  1.
</event>
<event>
 7    1  0.2626349E-009  0.1171950E+03  0.7561462E-02  0.1247797E+00
         -1   -1    0    0    0  501 -0.00000000000E+00  0.00000000000E+00  0.78779264569E+02  0.78779264569E+02  0.00000000000E+00 0.  1.
          1   -1    0    0  501    0  0.00000000000E+00 -0.00000000000E+00 -0.24684334225E+03  0.24684334225E+03  0.00000000000E+00 0. -1.
         25    2    1    2    0    0  0.71072864591E+02  0.19334434354E+02 -0.13068115119E+03  0.19532013134E+03  0.12508884041E+03 0.  0.
          5    1    3    3  502    0  0.59388945966E+02  0.65608799811E+02 -0.11445496666E+03  0.14473760157E+03  0.41800000000E+01 0. -1.
         -5    1    3    3    0  502  0.11683918625E+02 -0.46274365457E+02 -0.16226184536E+02  0.50582529766E+02  0.41800000000E+01 0. -1.
        -11    1    1    2    0    0 -0.57751871678E+02  0.16163227739E+02 -0.61073354259E+02  0.85594878431E+02  0.00000000000E+00 0. -1.
         11    1    1    2    0    0 -0.13320992913E+02 -0.35497662092E+02  0.23690427771E+02  0.44707597052E+02  0.00000000000E+00 0.  1.
</event>
<event>
 7    1  0.2626349E-009  0.1495569E+03  0.7561462E-02  0.1201019E+00
          1   -1    0    0  501    0  0.00000000000E+00  0.00000000000E+00  0.79662587164E+03  0.79662587164E+03  0.00000000000E+00 0. -1.
         -1   -1    0    0    0  501 -0.00000000000E+00 -0.00000000000E+00 -0.33280451698E+02  0.33280451698E+02  0.00000000000E+00 0.  1.
         25    2    1    2    0    0 -0.11385921172E+03  0.35195463466E+02  0.34987250124E+03  0.39020778603E+03  0.12509479769E+03 0.  0.
          5    1    3    3  502    0 -0.13020177680E+03  0.37563209801E+02  0.34749787516E+03  0.37300903883E+03  0.41800000000E+01 0.  1.
         -5    1    3    3    0  502  0.16342565078E+02 -0.23677463351E+01  0.23746260869E+01  0.17198747196E+02  0.41800000000E+01 0.  1.
        -11    1    1    2    0    0  0.10540459708E+02 -0.41669453114E+02  0.84205994806E+02  0.94541494461E+02  0.00000000000E+00 0.  1.
         11    1    1    2    0    0  0.10331875201E+03  0.64739896473E+01  0.32926692390E+03  0.34515704285E+03  0.00000000000E+00 0. -1.
</event>
<event>
 7    1  0.2626349E-009  0.8978689E+02  0.7561462E-02  0.1303369E+00
         -1   -1    0    0    0  501 -0.00000000000E+00  0.00000000000E+00  0.10342374577E+03  0.10342374577E+03  0.00000000000E+00 0.  1.
          1   -1    0    0  501    0  0.00000000000E+00 -0.00000000000E+00 -0.15604854373E+03  0.15604854373E+03  0.00000000000E+00 0. -1.
         25    2    1    2    0    0 -0.36675985676E+02 -0.54704278609E+02 -0.35567538257E+02  0.14577993527E+03  0.12509617791E+03 0.  0.
          5    1    3    3  502    0 -0.22507121722E+02 -0.46846540785E+02 -0.81580251036E+02  0.96819309390E+02  0.41800000000E+01 0.  1.
         -5    1    3    3    0  502 -0.14168863953E+02 -0.78577378248E+01  0.46012712779E+02  0.48960625882E+02  0.41800000000E+01 0.  1.
        -11    1    1    2    0    0  0.21621442098E+02  0.79117670390E+02 -0.21195854158E+02  0.84713380052E+02  0.00000000000E+00 0. -1.
         11    1    1    2    0    0  0.15054543578E+02 -0.24413391781E+02  0.41385944569E+01  0.28978974182E+02  0.00000000000E+00 0.  1.
</event>
<event>
 7    1  0.2626349E-009  0.1149649E+03  0.7561462E-02  0.1251642E+00
         -2   -1    0    0    0  501 -0.00000000000E+00  0.00000000000E+00  0.45030306445E+02  0.45030306445E+02  0.00000000000E+00 0.  1.
          2   -1    0    0  501    0  0.00000000000E+00 -0.00000000000E+00 -0.36613790841E+03  0.36613790841E+03  0.00000000000E+00 0. -1.
         25    2    1    2    0    0  0.35472542360E+02  0.57940896057E+02 -0.18789646013E+03  0.23573055618E+03  0.12509343183E+03 0.  0.
          5    1    3    3  502    0  0.63764399859E+02  0.69803846016E+02 -0.81409397052E+02  0.12483364104E+03  0.41800000000E+01 0.  1.
         -5    1    3    3    0  502 -0.28291857499E+02 -0.11862949960E+02 -0.10648706308E+03  0.11089691513E+03  0.41800000000E+01 0.  1.
        -11    1    1    2    0    0 -0.52377196654E+02 -0.97693378796E+01 -0.10339807951E+03  0.11631841444E+03  0.00000000000E+00 0. -1.
         11    1    1    2    0    0  0.16904654295E+02 -0.48171558177E+02 -0.29813062323E+02  0.59119244237E+02  0.00000000000E+00 0.  1.
</event>
<event>
 7    1  0.2626349E-009  0.8496642E+02  0.7561462E-02  0.1315520E+00
         -2   -1    0    0    0  501 -0.00000000000E+00  0.00000000000E+00  0.19569472589E+03  0.19569472589E+03  0.00000000000E+00 0.  1.
          2   -1    0    0  501    0  0.00000000000E+00 -0.00000000000E+00 -0.77312339420E+02  0.77312339420E+02  0.00000000000E+00 0. -1.
         25    2    1    2    0    0 -0.57058185069E+02  0.41212493340E+01  0.49596435481E+02  0.14621631498E+03  0.12508710235E+03 0.  0.
          5    1    3    3  502    0 -0.56944836914E+02 -0.12429380696E+02  0.87171433884E+02  0.10494539171E+03  0.41800000000E+01 0.  1.
         -5    1    3    3    0  502 -0.11334815475E+00  0.16550630030E+02 -0.37574998403E+02  0.41270923266E+02  0.41800000000E+01 0.  1.
        -11    1    1    2    0    0  0.70793816562E+02 -0.19870306562E+02  0.74957561637E+02  0.10500109329E+03  0.00000000000E+00 0.  1.
         11    1    1    2    0    0 -0.13735631493E+02  0.15749057228E+02 -0.61716106465E+01  0.21789657043E+02  0.00000000000E+00 0. -1.
</event>
<event>
 7    1  0.2626349E-009  0.7565136E+02  0.7561462E-02  0.1341866E+00
          2   -1    0    0  501    0  0.00000000000E+00  0.00000000000E+00  0.27011404990E+03  0.27011404990E+03  0.00000000000E+00 0. -1.
         -2   -1    0    0    0  501 -0.00000000000E+00 -0.00000000000E+00 -0.48093932001E+02  0.48093932001E+02  0.00000000000E+00 0.  1.
         25    2    1    2    0    0 -0.11140295649E+02  0.13754925116E+02  0.83690557015E+02  0.15154386632E+03  0.12509248552E+03 0.  0.
          5    1    3    3  502    0 -0.21022326896E+02  0.45821319002E+02 -0.10327486128E+02  0.51630038475E+02  0.41800000000E+01 0. -1.
         -5    1    3    3    0  502  0.98820312470E+01 -0.32066393886E+02  0.94018043144E+02  0.99913827847E+02  0.41800000000E+01 0. -1.
        -11    1    1    2    0    0  0.31401118204E+02  0.12449173713E+02  0.12737265274E+03  0.13177558506E+03  0.00000000000E+00 0. -1.
         11    1    1    2    0    0 -0.20260822555E+02 -0.26204098829E+02  0.10956908141E+02  0.34888530523E+02  0.00000000000E+00 0.  1.
</event>
<event>
 7    1  0.2626349E-009  0.1129146E+03  0.7561462E-02  0.1255266E+00
          2   -1    0    0  501    0  0.00000000000E+00  0.00000000000E+00  0.20351571094E+03  0.20351571094E+03  0.00000000000E+00 0. -1.
         -2   -1    0    0    0  501 -0.00000000000E+00 -0.00000000000E+00 -0.11880610260E+03  0.11880610260E+03  0.00000000000E+00 0.  1.
         25    2    1    2    0    0  0.48717183011E+02 -0.28392635842E+02  0.14460249496E+03  0.19934211786E+03  0.12509153733E+03 0.  0.
          5    1    3    3  502    0  0.81013857793E+02 -0.37371032223E+02  0.58288373714E+02  0.10665292361E+03  0.41800000000E+01 0. -1.
         -5    1    3    3    0  502 -0.32296674782E+02  0.89783963802E+01  0.86314121251E+02  0.92689194251E+02  0.41800000000E+01 0. -1.
        -11    1    1    2    0    0 -0.48125096475E+02 -0.21590016084E+02 -0.12740185167E+02  0.54262934157E+02  0.00000000000E+00 0. -1.
         11    1    1    2    0    0 -0.59208653521E+00  0.49982651927E+02 -0.47152701451E+02  0.68716761523E+02  0.00000000000E+00 0.  1.
</event>
<event>
 7    1  0.2834565E-009  0.1900089E+03  0.7561462E-02  0.1158453E+00
         -3   -1    0    0    0  501 -0.00000000000E+00  0.00000000000E+00  0.35862830037E+02  0.35862830037E+02  0.00000000000E+00 0.  1.
          3   -1    0    0  501    0  0.00000000000E+00 -0.00000000000E+00 -0.11812164103E+04  0.11812164103E+04  0.00000000000E+00 0. -1.
         25    2    1    2    0    0  0.14666073652E+03  0.90592038630E+02 -0.51471578403E+03  0.55704105471E+03  0.12508440828E+03 0.  0.
          5    1    3    3  502    0  0.38170406665E+02  0.85398152360E+02 -0.32684525711E+03  0.33999282179E+03  0.41800000000E+01 0. -1.
         -5    1    3    3    0  502  0.10849032986E+03  0.51938862696E+01 -0.18787052692E+03  0.21704823292E+03  0.41800000000E+01 0. -1.
        -11    1    1    2    0    0 -0.42151955002E+02 -0.50435796196E+02 -0.11568049095E+03  0.13305086559E+03  0.00000000000E+00 0.  1.
         11    1    1    2    0    0 -0.10450878152E+03 -0.40156242434E+02 -0.51495730529E+03  0.52698732005E+03  0.00000000000E+00 0. -1.
</event>
<event>
 7    1  0.2626349E-009  0.1182774E+03  0.7561462E-02  0.1245966E+00
         -2   -1    0    0    0  501 -0.00000000000E+00  0.00000000000E+00  0.67268315588E+02  0.67268315588E+02  0.00000000000E+00 0.  1.
          2   -1    0    0  501    0  0.00000000000E+00 -0.00000000000E+00 -0.26258788891E+03  0.26258788891E+03  0.00000000000E+00 0. -1.
         25    2    1    2    0    0 -0.28667964341E+02 -0.55414708046E+02 -0.16181349599E+03  0.21383074706E+03  0.12508932350E+03 0.  0.
          5    1    3    3  502    0  0.42040553970E+02 -0.30333796983E+02 -0.24922907805E+02  0.57672967246E+02  0.41800000000E+01 0. -1.
         -5    1    3    3    0  502 -0.70708518310E+02 -0.25080911062E+02 -0.13689058819E+03  0.15615777981E+03  0.41800000000E+01 0. -1.
        -11    1    1    2    0    0  0.32816623186E+02  0.78953518425E+02 -0.34263722213E+02  0.92111842283E+02  0.00000000000E+00 0.  1.
         11    1    1    2    0    0 -0.41486588456E+01 -0.23538810379E+02  0.75764487947E+00  0.23913615160E+02  0.00000000000E+00 0. -1.
</event>
<event>
 7    1  0.2626349E-009  0.1482864E+03  0.7561462E-02  0.1202595E+00
         -2   -1    0    0    0  501 -0.00000000000E+00  0.00000000000E+00  0.30881104158E+02  0.30881104158E+02  0.00000000000E+00 0.  1.
          2   -1    0    0  501    0  0.00000000000E+00 -0.00000000000E+00 -0.10120152254E+04  0.10120152254E+04  0.00000000000E+00 0. -1.
         25    2    1    2    0    0  0.59109499491E+02  0.12621541758E+03 -0.52673841415E+03  0.55903898752E+03  0.12508784137E+03 0.  0.
          5    1    3    3  502    0  0.68472169372E+02  0.77396464649E+02 -0.17116868003E+03  0.19998709994E+03  0.41800000000E+01 0.  1.
         -5    1    3    3    0  502 -0.93626698802E+01  0.48818952928E+02 -0.35556973412E+03  0.35905188758E+03  0.41800000000E+01 0.  1.
        -11    1    1    2    0    0 -0.56476253358E+02 -0.85515280056E+02 -0.41384064651E+03  0.42634083902E+03  0.00000000000E+00 0. -1.
         11    1    1    2    0    0 -0.26332461330E+01 -0.40700137520E+02 -0.40555060554E+02  0.57516502988E+02  0.00000000000E+00 0.  1.
</event>
<event>
 7    1  0.2626349E-009  0.1207159E+03  0.7561462E-02  0.1241921E+00
          1   -1    0    0  501    0  0.00000000000E+00  0.00000000000E+00  0.90757581705E+03  0.90757581705E+03  0.00000000000E+00 0. -1.
         -1   -1    0    0    0  501 -0.00000000000E+00 -0.00000000000E+00 -0.20103462647E+02  0.20103462647E+02  0.00000000000E+00 0.  1.
         25    2    1    2    0    0  0.44126412447E+02 -0.39053424284E+02  0.66153822373E+03  0.67583497611E+03  0.12509109986E+03 0.  0.
          5    1    3    3  502    0  0.78316040332E+02  0.88887759261E+01  0.35576519030E+03  0.36441563570E+03  0.41800000000E+01 0.  1.
         -5    1    3    3    0  502 -0.34189627886E+02 -0.47942200210E+02  0.30577303342E+03  0.31141934042E+03  0.41800000000E+01 0.  1.
        -11    1    1    2    0    0 -0.69939560447E+02  0.26839302241E+02  0.19882346234E+03  0.21246801980E+03  0.00000000000E+00 0. -1.
         11    1    1    2    0    0  0.25813148000E+02  0.12214122043E+02  0.27110668335E+02  0.39376283783E+02  0.00000000000E+00 0.  1.
</event>
<event>
 7    1  0.2626349E-009  0.1586968E+03  0.7561462E-02  0.1190176E+00
          1   -1    0    0  501    0  0.00000000000E+00  0.00000000000E+00  0.15042476367E+03  0.15042476367E+03  0.00000000000E+00 0. -1.
         -1   -1    0    0    0  501 -0.00000000000E+00 -0.00000000000E+00 -0.21599032619E+03  0.21599032619E+03  0.00000000000E+00 0.  1.
         25    2    1    2    0    0  0.81128285946E+02  0.11797070131E+03 -0.37990423814E+02  0.19388267934E+03  0.12509330877E+03 0.  0.
          5    1    3    3  502    0  0.10085389158E+03  0.10532508862E+03 -0.63401123522E+02  0.15906620195E+03  0.41800000000E+01 0. -1.
         -5    1    3    3    0  502 -0.19725605638E+02  0.12645612695E+02  0.25410699708E+02  0.34816477390E+02  0.41800000000E+01 0. -1.
        -11    1    1    2    0    0 -0.68811095638E+02 -0.69909191655E+02 -0.58361942547E+02  0.11414192174E+03  0.00000000000E+00 0. -1.
         11    1    1    2    0    0 -0.12317190309E+02 -0.48061509658E+02  0.30786803842E+02  0.58390488768E+02  0.00000000000E+00 0.  1.
</event>
<event>
 7    1  0.2626349E-009  0.1566658E+03  0.7561462E-02  0.1192513E+00
         -2   -1    0    0    0  501 -0.00000000000E+00  0.00000000000E+00  0.70026314139E+02  0.70026314139E+02  0.00000000000E+00 0.  1.
          2   -1    0    0  501    0  0.00000000000E+00 -0.00000000000E+00 -0.36921963902E+03  0.36921963902E+03  0.00000000000E+00 0. -1.
         25    2    1    2    0    0 -0.11331536407E+03 -0.10243453645E+02 -0.11449265285E+03  0.20420704767E+03  0.12508657276E+03 0.  0.
          5    1    3    3  502    0  0.27043392857E+02 -0.47966464055E+01 -0.11937616208E+02  0.30237923122E+02  0.41800000000E+01 0. -1.
         -5    1    3    3    0  502 -0.14035875693E+03 -0.54468072396E+01 -0.10255503664E+03  0.17396912454E+03  0.41800000000E+01 0. -1.
        -11    1    1    2    0    0  0.46714717605E+02 -0.40076799292E+02 -0.86333403596E+02  0.10602769100E+03  0.00000000000E+00 0.  1.
         11    1    1    2    0    0  0.66600646463E+02  0.50320252937E+02 -0.98367268440E+02  0.12901121449E+03  0.00000000000E+00 0. -1.
</event>
<event>
 7    1  0.2626349E-009  0.7990546E+02  0.7561462E-02  0.1329320E+00
          1   -1    0    0  501    0  0.00000000000E+00  0.00000000000E+00  0.13095984389E+03  0.13095984389E+03  0.00000000000E+00 0. -1.
         -1   -1    0    0    0  501 -0.00000000000E+00 -0.00000000000E+00 -0.17809576053E+03  0.17809576053E+03  0.00000000000E+00 0.  1.
         25    2    1    2    0    0 -0.19354837126E+02 -0.29692778268E+02 -0.12733621488E+03  0.18198448339E+03  0.12509024651E+03 0.  0.
          5    1    3    3  502    0  0.98998196491E+01 -0.31702331232E+02  0.14940673849E+02  0.36657064390E+02  0.41800000000E+01 0.  1.
         -5    1    3    3    0  502 -0.29254656775E+02  0.20095529636E+01 -0.14227688873E+03  0.14532741900E+03  0.41800000000E+01 0.  1.
        -11    1    1    2    0    0 -0.23341279511E+02  0.45541024115E+02  0.30123433872E+02  0.59381996218E+02  0.00000000000E+00 0.  1.
         11    1    1    2    0    0  0.42696116637E+02 -0.15848245846E+02  0.50076864371E+02  0.67689124810E+02  0.00000000000E+00 0. -1.
</event>
<event>
 7    1  0.2626349E-009  0.1954370E+03  0.7561462E-02  0.1153647E+00
          1   -1    0    0  501    0  0.00000000000E+00  0.00000000000E+00  0.93790804404E+03  0.93790804404E+03  0.00000000000E+00 0. -1.
         -1   -1    0    0    0  501 -0.00000000000E+00 -0.00000000000E+00 -0.61261921668E+02  0.61261921668E+02  0.00000000000E+00 0.  1.
         25    2    1    2    0    0  0.26821552930E+02  0.16151015171E+03  0.16823193549E+03  0.26599776243E+03  0.12509156922E+03 0.  0.
          5    1    3    3  502    0  0.39161083357E+02 -0.27602463458E+01  0.19574296992E+02  0.44066255937E+02  0.41800000000E+01 0. -1.
         -5    1    3    3    0  502 -0.12339530427E+02  0.16427039806E+03  0.14865763850E+03  0.22193150649E+03  0.41800000000E+01 0. -1.
        -11    1    1    2    0    0 -0.13039290106E+02  0.88062217071E+01  0.34265429466E+02  0.37705334950E+02  0.00000000000E+00 0.  1.
         11    1    1    2    0    0 -0.13782262824E+02 -0.17031637342E+03  0.67414875741E+03  0.69546686833E+03  0.00000000000E+00 0. -1.
</event>
<event>
 7    1  0.2626349E-009  0.9975219E+02  0.7561462E-02  0.1280818E+00
         -2   -1    0    0    0  501 -0.00000000000E+00  0.00000000000E+00  0.94300614426E+01  0.94300614426E+01  0.00000000000E+00 0. -1.
          2   -1    0    0  501    0  0.00000000000E+00 -0.00000000000E+00 -0.13934459823E+04  0.13934459823E+04  0.00000000000E+00 0.  1.
         25    2    1    2    0    0 -0.29090621619E+02  0.31991728703E+01 -0.92261093381E+03  0.93151227765E+03  0.12509072403E+03 0.  0.
          5    1    3    3  502    0 -0.11094860486E+02  0.52804288861E+02 -0.72232135994E+03  0.72434591755E+03  0.41800000000E+01 0.  1.
         -5    1    3    3    0  502 -0.17995761134E+02 -0.49605115990E+02 -0.20028957388E+03  0.20716636010E+03  0.41800000000E+01 0.  1.
        -11    1    1    2    0    0 -0.27009861818E+02  0.18023363292E+02 -0.10370272718E+03  0.10866751991E+03  0.00000000000E+00 0. -1.
         11    1    1    2    0    0  0.56100483438E+02 -0.21222536162E+02 -0.35770225986E+03  0.36269624618E+03  0.00000000000E+00 0.  1.
</event>
<event>
 7    1  0.3158736E-009  0.2332461E+03  0.7561462E-02  0.1124376E+00
         -2   -1    0    0    0  501 -0.00000000000E+00  0.00000000000E+00  0.30237509700E+03  0.30237509700E+03  0.00000000000E+00 0.  1.
          2   -1    0    0  501    0  0.00000000000E+00 -0.00000000000E+00 -0.19746743201E+03  0.19746743201E+03  0.00000000000E+00 0. -1.
         25    2    1    2    0    0 -0.18641368539E+03 -0.10434884152E+03  0.10106690180E+03  0.26739366294E+03  0.12508440956E+03 0.  0.
          5    1    3    3  502    0  0.15924710143E+02 -0.64782472364E-01 -0.35425045345E+01  0.16841090472E+02  0.41800000000E+01 0. -1.
         -5    1    3    3    0  502 -0.20233839553E+03 -0.10428405905E+03  0.10460940633E+03  0.25055257247E+03  0.41800000000E+01 0. -1.
        -11    1    1    2    0    0  0.13848647738E+03  0.44031176691E+02 -0.29869778095E+02  0.14835583096E+03  0.00000000000E+00 0. -1.
         11    1    1    2    0    0  0.47927208014E+02  0.60317664834E+02  0.33710541282E+02  0.84093035102E+02  0.00000000000E+00 0.  1.
</event>
<event>
 7    1  0.2626349E-009  0.1478417E+03  0.7561462E-02  0.1203150E+00
         -2   -1    0    0    0  501 -0.00000000000E+00  0.00000000000E+00  0.61254067338E+02  0.61254067338E+02  0.00000000000E+00 0.  1.
          2   -1    0    0  501    0  0.00000000000E+00 -0.00000000000E+00 -0.36997991781E+03  0.36997991781E+03  0.00000000000E+00 0. -1.
         25    2    1    2    0    0 -0.98798651813E+02 -0.35104482403E+02 -0.17510524086E+03  0.23938053494E+03  0.12509075443E+03 0.  0.
          5    1    3    3  502    0 -0.12777466046E+03 -0.38756123913E+02 -0.14701973110E+03  0.19864711105E+03  0.41800000000E+01 0.  1.
         -5    1    3    3    0  502  0.28976008648E+02  0.36516415096E+01 -0.28085509762E+02  0.40733423886E+02  0.41800000000E+01 0.  1.
        -11    1    1    2    0    0  0.47093715363E+02  0.59118118494E+02 -0.10107027337E+03  0.12620606213E+03  0.00000000000E+00 0. -1.
         11    1    1    2    0    0  0.51704936450E+02 -0.24013636091E+02 -0.32550336241E+02  0.65647388075E+02  0.00000000000E+00 0.  1.
</event>
<event>
 7    1  0.2631613E-009  0.6464743E+02  0.7561462E-02  0.1379303E+00
          1   -1    0    0  501    0  0.00000000000E+00  0.00000000000E+00  0.11182461919E+03  0.11182461919E+03  0.00000000000E+00 0. -1.
         -1   -1    0    0    0  501 -0.00000000000E+00 -0.00000000000E+00 -0.12975805240E+03  0.12975805240E+03  0.00000000000E+00 0.  1.
         25    2    1    2    0    0 -0.65438330746E+01 -0.76116801014E+01 -0.62703851087E+02  0.14028577186E+03  0.12509022912E+03 0.  0.
          5    1    3    3  502    0  0.19401233953E+02 -0.36608220550E+02  0.21914760120E+02  0.47056336469E+02  0.41800000000E+01 0. -1.
         -5    1    3    3    0  502 -0.25945067028E+02  0.28996540448E+02 -0.84618611206E+02  0.93229435392E+02  0.41800000000E+01 0. -1.
        -11    1    1    2    0    0 -0.12845815547E+02  0.21238101270E+02 -0.20287435783E+02  0.32057011296E+02  0.00000000000E+00 0.  1.
         11    1    1    2    0    0  0.19389648622E+02 -0.13626421168E+02  0.65057853662E+02  0.69239888436E+02  0.00000000000E+00 0. -1.
</event>
<event>
 7    1  0.2626349E-009  0.1436635E+03  0.7561462E-02  0.1208483E+00
          1   -1    0    0  501    0  0.00000000000E+00  0.00000000000E+00  0.74406208840E+02  0.74406208840E+02  0.00000000000E+00 0. -1.
         -1   -1    0    0    0  501 -0.00000000000E+00 -0.00000000000E+00 -0.48613523029E+03  0.48613523029E+03  0.00000000000E+00 0.  1.
         25    2    1    2    0    0  0.69755217425E+02 -0.12044261874E+03 -0.28985481675E+03  0.34501459946E+03  0.12508814605E+03 0.  0.
          5    1    3    3  502    0  0.40379017110E+02 -0.37076188293E+02 -0.16060821843E+02  0.57275921288E+02  0.41800000000E+01 0.  1.
         -5    1    3    3    0  502  0.29376200314E+02 -0.83366430446E+02 -0.27379399490E+03  0.28773867817E+03  0.41800000000E+01 0.  1.
        -11    1    1    2    0    0 -0.28685661654E+02  0.18969935338E+02 -0.97485962019E+02  0.10337426383E+03  0.00000000000E+00 0.  1.
         11    1    1    2    0    0 -0.41069555771E+02  0.10147268340E+03 -0.24388242690E+02  0.11215257585E+03  0.00000000000E+00 0. -1.
</event>
<event>
 7    1  0.2626349E-009  0.2040030E+03  0.7561462E-02  0.1146405E+00
         -1   -1    0    0    0  501 -0.00000000000E+00  0.00000000000E+00  0.10540149114E+03  0.10540149114E+03  0.00000000000E+00 0.  1.
          1   -1    0    0  501    0  0.00000000000E+00 -0.00000000000E+00 -0.54004003355E+03  0.54004003355E+03  0.00000000000E+00 0. -1.
         25    2    1    2    0    0  0.90564683323E+02 -0.15977348454E+03 -0.36736664226E+03  0.42934348087E+03  0.12509215200E+03 0.  0.
          5    1    3    3  502    0  0.88124659809E+02 -0.33058655268E+02 -0.17882598244E+03  0.20212628417E+03  0.41800000000E+01 0.  1.
         -5    1    3    3    0  502  0.24400235133E+01 -0.12671482927E+03 -0.18854065982E+03  0.22721719670E+03  0.41800000000E+01 0.  1.
        -11    1    1    2    0    0 -0.14068558747E+02  0.57920080622E+02 -0.65699573224E+02  0.88707914000E+02  0.00000000000E+00 0. -1.
         11    1    1    2    0    0 -0.76496124575E+02  0.10185340392E+03 -0.15723269318E+01  0.12739012983E+03  0.00000000000E+00 0.  1.
</event>
<event>
 7    1  0.2626349E-009  0.1408854E+03  0.7561462E-02  0.1212143E+00
          2   -1    0    0  501    0  0.00000000000E+00  0.00000000000E+00  0.14192456860E+03  0.14192456860E+03  0.00000000000E+00 0. -1.
         -2   -1    0    0    0  501 -0.00000000000E+00 -0.00000000000E+00 -0.24749876178E+03  0.24749876178E+03  0.00000000000E+00 0.  1.
         25    2    1    2    0    0 -0.30809043350E+02 -0.10804692979E+03 -0.15808955634E+03  0.23078794121E+03  0.12508968701E+03 0.  0.
          5    1    3    3  502    0 -0.24290628077E+02  0.33189188050E+01  0.11780616683E+02  0.27519178110E+02  0.41800000000E+01 0. -1.
         -5    1    3    3    0  502 -0.65184152727E+01 -0.11136584859E+03 -0.16987017302E+03  0.20326876310E+03  0.41800000000E+01 0. -1.
        -11    1    1    2    0    0  0.17956810313E+02 -0.13859844456E+02 -0.50039739772E+01  0.23228906141E+02  0.00000000000E+00 0. -1.
         11    1    1    2    0    0  0.12852233037E+02  0.12190677424E+03  0.57519337140E+02  0.13540648303E+03  0.00000000000E+00 0.  1.
</event>
<event>
 7    1  0.2626349E-009  0.1032902E+03  0.7561462E-02  0.1273525E+00
          1   -1    0    0  501    0  0.00000000000E+00  0.00000000000E+00  0.52681190871E+02  0.52681190871E+02  0.00000000000E+00 0. -1.
         -1   -1    0    0    0  501 -0.00000000000E+00 -0.00000000000E+00 -0.29476213236E+03  0.29476213236E+03  0.00000000000E+00 0.  1.
         25    2    1    2    0    0  0.54299765978E+02 -0.26145082132E+02 -0.12379981460E+03  0.18602595628E+03  0.12508889803E+03 0.  0.
          5    1    3    3  502    0  0.12106631397E+02  0.45113493829E+02 -0.15012410518E+02  0.49240661235E+02  0.41800000000E+01 0. -1.
         -5    1    3    3    0  502  0.42193134580E+02 -0.71258575962E+02 -0.10878740408E+03  0.13678529504E+03  0.41800000000E+01 0. -1.
        -11    1    1    2    0    0 -0.27327231663E+02 -0.12164919661E+02  0.42696224149E+01  0.30215766352E+02  0.00000000000E+00 0. -1.
         11    1    1    2    0    0 -0.26972534315E+02  0.38310001793E+02 -0.12255074931E+03  0.13120160060E+03  0.00000000000E+00 0.  1.
</event>
<event>
 7    1  0.2626349E-009  0.1040973E+03  0.7561462E-02  0.1271908E+00
         -2   -1    0    0    0  501 -0.00000000000E+00  0.00000000000E+00  0.35124923520E+02  0.35124923520E+02  0.00000000000E+00 0.  1.
          2   -1    0    0  501    0  0.00000000000E+00 -0.00000000000E+00 -0.47961110244E+03  0.47961110244E+03  0.00000000000E+00 0. -1.
         25    2    1    2    0    0 -0.66963105128E+02 -0.97756217931E+00 -0.19974865438E+03  0.24501544868E+03  0.12509209443E+03 0.  0.
          5    1    3    3  502    0 -0.69995457744E+02 -0.43198460542E+02 -0.68744350931E+02  0.10727874572E+03  0.41800000000E+01 0. -1.
         -5    1    3    3    0  502  0.30323526160E+01  0.42220898363E+02 -0.13100430345E+03  0.13773670297E+03  0.41800000000E+01 0. -1.
        -11    1    1    2    0    0 -0.10761203673E+01 -0.13661814855E+02  0.15472651261E+01  0.13791201889E+02  0.00000000000E+00 0.  1.
         11    1    1    2    0    0  0.68039225496E+02  0.14639377035E+02 -0.24628478966E+03  0.25592937538E+03  0.00000000000E+00 0. -1.
</event>
<event>
 7    1  0.2626349E-009  0.1195611E+03  0.7561462E-02  0.1243823E+00
         -1   -1    0    0    0  501 -0.00000000000E+00  0.00000000000E+00  0.75568772703E+03  0.75568772703E+03  0.00000000000E+00 0.  1.
          1   -1    0    0  501    0  0.00000000000E+00 -0.00000000000E+00 -0.27211480377E+02  0.27211480377E+02  0.00000000000E+00 0. -1.
         25    2    1    2    0    0 -0.56445963615E+02 -0.29920288223E+02  0.21141152974E+03  0.25381810127E+03  0.12508966051E+03 0.  0.
          5    1    3    3  502    0 -0.19565070483E+02 -0.70730680317E+02  0.67893250420E+02  0.10006291508E+03  0.41800000000E+01 0.  1.
         -5    1    3    3    0  502 -0.36880893132E+02  0.40810392093E+02  0.14351827933E+03  0.15375518619E+03  0.41800000000E+01 0.  1.
        -11    1    1    2    0    0 -0.12949543749E+02  0.38414196426E+02  0.23568466455E+03  0.23914556712E+03  0.00000000000E+00 0.  1.
         11    1    1    2    0    0  0.69395507364E+02 -0.84939082030E+01  0.28138005236E+03  0.28993553902E+03  0.00000000000E+00 0. -1.
</event>
<event>
 7    1  0.2626349E-009  0.1842417E+03  0.7561462E-02  0.1163760E+00
          2   -1    0    0  501    0  0.00000000000E+00  0.00000000000E+00  0.58073805628E+03  0.58073805628E+03  0.00000000000E+00 0. -1.
         -2   -1    0    0    0  501 -0.00000000000E+00 -0.00000000000E+00 -0.67556928878E+02  0.67556928878E+02  0.00000000000E+00 0.  1.
         25    2    1    2    0    0 -0.14233005528E+03 -0.27764983055E+02  0.27442027654E+03  0.33463803887E+03  0.12508952779E+03 0.  0.
          5    1    3    3  502    0  0.11523750780E+02  0.45128715813E+01  0.95672393107E+02  0.96560043728E+02  0.41800000000E+01 0. -1.
         -5    1    3    3    0  502 -0.15385380606E+03 -0.32277854636E+02  0.17874788343E+03  0.23807799514E+03  0.41800000000E+01 0. -1.
        -11    1    1    2    0    0  0.12168572676E+03  0.77529428352E+02  0.20276813134E+03  0.24886370455E+03  0.00000000000E+00 0.  1.
         11    1    1    2    0    0  0.20644328522E+02 -0.49764445297E+02  0.35992719524E+02  0.64793241736E+02  0.00000000000E+00 0. -1.
</event>
<event>
 7    1  0.2626349E-009  0.1211823E+03  0.7561462E-02  0.1241159E+00
          1   -1    0    0  501    0  0.00000000000E+00  0.00000000000E+00  0.32876456699E+03  0.32876456699E+03  0.00000000000E+00 0. -1.
         -1   -1    0    0    0  501 -0.00000000000E+00 -0.00000000000E+00 -0.56056200272E+02  0.56056200272E+02  0.00000000000E+00 0.  1.
         25    2    1    2    0    0  0.51456239158E+02  0.62796476858E+02  0.13152905345E+03  0.19884238999E+03  0.12508901671E+03 0.  0.
          5    1    3    3  502    0  0.91571048207E+02  0.28655873348E+02  0.90210533277E+02  0.13176429206E+03  0.41800000000E+01 0.  1.
         -5    1    3    3    0  502 -0.40114809050E+02  0.34140603510E+02  0.41318520173E+02  0.67078097934E+02  0.41800000000E+01 0.  1.
        -11    1    1    2    0    0 -0.21899360681E+02 -0.59906673132E+02  0.29240241306E+02  0.70166824038E+02  0.00000000000E+00 0.  1.
         11    1    1    2    0    0 -0.29556878476E+02 -0.28898037258E+01  0.11193907196E+03  0.11581155323E+03  0.00000000000E+00 0. -1.
</event>
<event>
 7    1  0.2626349E-009  0.9907426E+02  0.7561462E-02  0.1282255E+00
          1   -1    0    0  501    0  0.00000000000E+00  0.00000000000E+00  0.20951916087E+03  0.20951916087E+03  0.00000000000E+00 0. -1.
         -1   -1    0    0    0  501 -0.00000000000E+00 -0.00000000000E+00 -0.62423922177E+02  0.62423922177E+02  0.00000000000E+00 0.  1.
         25    2    1    2    0    0  0.87690667111E+01  0.11944465027E+02  0.12777511110E+03  0.17942624873E+03  0.12509089872E+03 0.  0.
          5    1    3    3  502    0 -0.54004895696E+02 -0.14688209813E+02  0.71628997670E+02  0.90997021786E+02  0.41800000000E+01 0. -1.
         -5    1    3    3    0  502  0.62773962407E+02  0.26632674840E+02  0.56146113427E+02  0.88429226947E+02  0.41800000000E+01 0. -1.
        -11    1    1    2    0    0  0.30404409379E+02 -0.15943191097E+02 -0.17564184849E+02  0.38563117632E+02  0.00000000000E+00 0.  1.
         11    1    1    2    0    0 -0.39173476090E+02  0.39987260698E+01  0.36884312443E+02  0.53953716680E+02  0.00000000000E+00 0. -1.
</event>
<event>
 7    1  0.2626349E-009  0.9873478E+02  0.7561462E-02  0.1282979E+00
         -2   -1    0    0    0  501 -0.00000000000E+00  0.00000000000E+00  0.47132212916E+02  0.47132212916E+02  0.00000000000E+00 0.  1.
          2   -1    0    0  501    0  0.00000000000E+00 -0.00000000000E+00 -0.32647169713E+03  0.32647169713E+03  0.00000000000E+00 0. -1.
         25    2    1    2    0    0 -0.53811502628E+02  0.47499446186E+02 -0.18569132798E+03  0.23512005977E+03  0.12509315736E+03 0.  0.
          5    1    3    3  502    0 -0.46484369678E+02 -0.19970474420E+02 -0.14993616882E+03  0.15829701069E+03  0.41800000000E+01 0.  1.
         -5    1    3    3    0  502 -0.73271329493E+01  0.67469920606E+02 -0.35755159155E+02  0.76823049080E+02  0.41800000000E+01 0.  1.
        -11    1    1    2    0    0  0.48303678345E+01 -0.23819636624E+02 -0.78256352128E+02  0.81943664738E+02  0.00000000000E+00 0. -1.
         11    1    1    2    0    0  0.48981134793E+02 -0.23679809561E+02 -0.15391804106E+02  0.56540185533E+02  0.00000000000E+00 0.  1.
</event>
<event>
 7    1  0.2626349E-009  0.2957210E+03  0.7561462E-02  0.1087399E+00
         -2   -1    0    0    0  501 -0.00000000000E+00  0.00000000000E+00  0.81880743963E+02  0.81880743963E+02  0.00000000000E+00 0.  1.
          2   -1    0    0  501    0  0.00000000000E+00 -0.00000000000E+00 -0.14662523688E+04  0.14662523688E+04  0.00000000000E+00 0. -1.
         25    2    1    2    0    0 -0.28198165914E+03  0.79247582847E+02 -0.37056319375E+03  0.48862901543E+03  0.12508956261E+03 0.  0.
          5    1    3    3  502    0 -0.21346669790E+03  0.33887323161E+02 -0.33567046706E+03  0.39925996123E+03  0.41800000000E+01 0. -1.
         -5    1    3    3    0  502 -0.68514961236E+02  0.45360259686E+02 -0.34892726693E+02  0.89369054196E+02  0.41800000000E+01 0. -1.
        -11    1    1    2    0    0  0.23547914640E+03 -0.63520461790E+02 -0.93799525545E+03  0.96918541916E+03  0.00000000000E+00 0. -1.
         11    1    1    2    0    0  0.46502512735E+02 -0.15727121056E+02 -0.75813175583E+02  0.90318678131E+02  0.00000000000E+00 0.  1.
</event>
<event>
 7    1  0.2626349E-009  0.4253508E+03  0.7561462E-02  0.1035339E+00
         -2   -1    0    0    0  501 -0.00000000000E+00  0.00000000000E+00  0.21607123964E+04  0.21607123964E+04  0.00000000000E+00 0.  1.
          2   -1    0    0  501    0  0.00000000000E+00 -0.00000000000E+00 -0.90342813357E+02  0.90342813357E+02  0.00000000000E+00 0. -1.
         25    2    1    2    0    0 -0.26983456939E+03  0.32802020473E+03  0.11929719669E+04  0.12724928991E+04  0.12509242573E+03 0.  0.
          5    1    3    3  502    0 -0.26599431653E+03  0.32061215687E+03  0.10560780010E+04  0.11352811758E+04  0.41800000000E+01 0.  1.
         -5    1    3    3    0  502 -0.38402528578E+01  0.74080478522E+01  0.13689396589E+03  0.13721172330E+03  0.41800000000E+01 0.  1.
        -11    1    1    2    0    0  0.22571534435E+03 -0.27651001899E+03  0.65359737743E+03  0.74471117828E+03  0.00000000000E+00 0.  1.
         11    1    1    2    0    0  0.44119225040E+02 -0.51510185735E+02  0.22380023877E+03  0.23385113241E+03  0.00000000000E+00 0. -1.
</event>
<event>
 7    1  0.2626349E-009  0.1129167E+03  0.7561462E-02  0.1255262E+00
          2   -1    0    0  501    0  0.00000000000E+00  0.00000000000E+00  0.13523118642E+03  0.13523118642E+03  0.00000000000E+00 0. -1.
         -2   -1    0    0    0  501 -0.00000000000E+00 -0.00000000000E+00 -0.14751705182E+03  0.14751705182E+03  0.00000000000E+00 0.  1.
         25    2    1    2    0    0  0.90955727154E+02  0.45703575849E+01 -0.28500665727E+02  0.15733324499E+03  0.12509048549E+03 0.  0.
          5    1    3    3  502    0  0.48932667216E+01  0.14410181656E+02 -0.62290833344E+02  0.64258989358E+02  0.41800000000E+01 0. -1.
         -5    1    3    3    0  502  0.86062460432E+02 -0.98398240714E+01  0.33790167617E+02  0.93074255630E+02  0.41800000000E+01 0. -1.
        -11    1    1    2    0    0 -0.67033923561E+01  0.31115452458E+02 -0.28327685167E+01  0.31955147132E+02  0.00000000000E+00 0. -1.
         11    1    1    2    0    0 -0.84252334798E+02 -0.35685810043E+02  0.19047568851E+02  0.93459846118E+02  0.00000000000E+00 0.  1.
</event>
<event>
 7    1  0.2626349E-009  0.1258763E+03  0.7561462E-02  0.1233706E+00
          2   -1    0    0  501    0  0.00000000000E+00  0.00000000000E+00  0.87020522584E+03  0.87020522584E+03  0.00000000000E+00 0. -1.
         -2   -1    0    0    0  501 -0.00000000000E+00 -0.00000000000E+00 -0.26148177162E+02  0.26148177162E+02  0.00000000000E+00 0.  1.
         25    2    1    2    0    0 -0.27213228345E+02  0.97192989605E+02  0.53181965680E+03  0.55557850913E+03  0.12509314699E+03 0.  0.
          5    1    3    3  502    0 -0.44338977785E+02  0.59140429559E+02  0.11575312849E+03  0.13740376456E+03  0.41800000000E+01 0.  1.
         -5    1    3    3    0  502  0.17125749440E+02  0.38052560046E+02  0.41606652831E+03  0.41817474457E+03  0.41800000000E+01 0.  1.
        -11    1    1    2    0    0  0.60929611070E+02 -0.58626857726E+02  0.21109615158E+03  0.22740077212E+03  0.00000000000E+00 0.  1.
         11    1    1    2    0    0 -0.33716382725E+02 -0.38566131879E+02  0.10114124031E+03  0.11337412175E+03  0.00000000000E+00 0. -1.
</event>
<event>
 7    1  0.2626349E-009  0.1713929E+03  0.7561462E-02  0.1176403E+00
         -2   -1    0    0    0  501 -0.00000000000E+00  0.00000000000E+00  0.26875274984E+02  0.26875274984E+02  0.00000000000E+00 0. -1.
          2   -1    0    0  501    0  0.00000000000E+00 -0.00000000000E+00 -0.12190704696E+04  0.12190704696E+04  0.00000000000E+00 0.  1.
         25    2    1    2    0    0  0.13556733667E+03 -0.38221484368E+02 -0.52198969288E+03  0.55494159903E+03  0.12509018436E+03 0.  0.
          5    1    3    3  502    0  0.13510204357E+03 -0.70786325455E+02 -0.46213656901E+03  0.48667334719E+03  0.41800000000E+01 0.  1.
         -5    1    3    3    0  502  0.46529310331E+00  0.32564841087E+02 -0.59853123869E+02  0.68268251842E+02  0.41800000000E+01 0.  1.
        -11    1    1    2    0    0 -0.31267344962E+02  0.42759172930E+02 -0.12288725212E+03  0.13381804984E+03  0.00000000000E+00 0. -1.
         11    1    1    2    0    0 -0.10429999171E+03 -0.45376885618E+01 -0.54731824965E+03  0.55718609574E+03  0.00000000000E+00 0.  1.
</event>
<event>
 7    1  0.2626349E-009  0.1641260E+03  0.7561462E-02  0.1184116E+00
          1   -1    0    0  501    0  0.00000000000E+00  0.00000000000E+00  0.10088461463E+04  0.10088461463E+04  0.00000000000E+00 0. -1.
         -1   -1    0    0    0  501 -0.00000000000E+00 -0.00000000000E+00 -0.32227702035E+02  0.32227702035E+02  0.00000000000E+00 0.  1.
         25    2    1    2    0    0 -0.39126831972E+02  0.13876071453E+03  0.51258320812E+03  0.54696841158E+03  0.12508978031E+03 0.  0.
          5    1    3    3  502    0  0.10405099888E+02  0.13313836401E+03  0.43133764319E+03  0.45155700073E+03  0.41800000000E+01 0. -1.
         -5    1    3    3    0  502 -0.49531931861E+02  0.56223505211E+01  0.81245564936E+02  0.95411410853E+02  0.41800000000E+01 0. -1.
        -11    1    1    2    0    0  0.25222886173E+02 -0.68547477007E+02  0.36306173630E+03  0.37033602979E+03  0.00000000000E+00 0. -1.
         11    1    1    2    0    0  0.13903945800E+02 -0.70213237528E+02  0.10097349987E+03  0.12376940700E+03  0.00000000000E+00 0.  1.
</event>
<event>
 7    1  0.2626349E-009  0.1848437E+03  0.7561462E-02  0.1163196E+00
          2   -1    0    0  501    0  0.00000000000E+00  0.00000000000E+00  0.13120018257E+04  0.13120018257E+04  0.00000000000E+00 0.  1.
         -2   -1    0    0    0  501 -0.00000000000E+00 -0.00000000000E+00 -0.33558986845E+02  0.33558986845E+02  0.00000000000E+00 0. -1.
         25    2    1    2    0    0 -0.34551243060E+02  0.16644969190E+03  0.83489318847E+03  0.86115872469E+03  0.12509366337E+03 0.  0.
          5    1    3    3  502    0  0.32094832525E+02  0.65632184483E+02  0.49531078493E+03  0.50068743542E+03  0.41800000000E+01 0.  1.
         -5    1    3    3    0  502 -0.66646075585E+02  0.10081750742E+03  0.33958240354E+03  0.36047128927E+03  0.41800000000E+01 0.  1.
        -11    1    1    2    0    0 -0.80732510682E+01 -0.65588128783E+02  0.27921528843E+03  0.28692883667E+03  0.00000000000E+00 0.  1.
         11    1    1    2    0    0  0.42624494128E+02 -0.10086156312E+03  0.16433436192E+03  0.19747325115E+03  0.00000000000E+00 0. -1.
</event>
<event>
 7    1  0.2626349E-009  0.1015543E+03  0.7561462E-02  0.1277061E+00
          1   -1    0    0  501    0  0.00000000000E+00  0.00000000000E+00  0.17811501811E+02  0.17811501811E+02  0.00000000000E+00 0. -1.
         -1   -1    0    0    0  501 -0.00000000000E+00 -0.00000000000E+00 -0.74238875066E+03  0.74238875066E+03  0.00000000000E+00 0.  1.
         25    2    1    2    0    0 -0.21190169697E+01 -0.10914040603E+02 -0.54395256533E+03  0.55826126899E+03  0.12509054566E+03 0.  0.
          5    1    3    3  502    0 -0.34388133534E+02  0.47409685463E+02 -0.24456093544E+03  0.25151092530E+03  0.41800000000E+01 0.  1.
         -5    1    3    3    0  502  0.32269116564E+02 -0.58323726066E+02 -0.29939162989E+03  0.30675034369E+03  0.41800000000E+01 0.  1.
        -11    1    1    2    0    0  0.28417397573E+02 -0.21666615480E+02 -0.33534742016E+02  0.49005812239E+02  0.00000000000E+00 0. -1.
         11    1    1    2    0    0 -0.26298380603E+02  0.32580656083E+02 -0.14708994150E+03  0.15293317124E+03  0.00000000000E+00 0.  1.
</event>
<event>
 7    1  0.2626349E-009  0.1575236E+03  0.7561462E-02  0.1191521E+00
          1   -1    0    0  501    0  0.00000000000E+00  0.00000000000E+00  0.11925228309E+03  0.11925228309E+03  0.00000000000E+00 0. -1.
         -1   -1    0    0    0  501 -0.00000000000E+00 -0.00000000000E+00 -0.28112651865E+03  0.28112651865E+03  0.00000000000E+00 0.  1.
         25    2    1    2    0    0 -0.72192428982E+02 -0.12343223511E+03 -0.45569861027E+02  0.19537596762E+03  0.12509153858E+03 0.  0.
          5    1    3    3  502    0 -0.77020618768E+02 -0.10998881419E+03 -0.81053379650E+02  0.15689753891E+03  0.41800000000E+01 0. -1.
         -5    1    3    3    0  502  0.48281897867E+01 -0.13443420923E+02  0.35483518623E+02  0.38478428718E+02  0.41800000000E+01 0. -1.
        -11    1    1    2    0    0  0.14371562348E+02 -0.11899120754E+02 -0.22080932573E+01  0.18788468667E+02  0.00000000000E+00 0. -1.
         11    1    1    2    0    0  0.57820866634E+02  0.13533135587E+03 -0.11409628127E+03  0.18621436545E+03  0.00000000000E+00 0.  1.
</event>
<event>
 7    1  0.2905608E-009  0.8612956E+02  0.7561462E-02  0.1312505E+00
         -2   -1    0    0    0  501 -0.00000000000E+00  0.00000000000E+00  0.10504426211E+03  0.10504426211E+03  0.00000000000E+00 0.  1.
          2   -1    0    0  501    0  0.00000000000E+00 -0.00000000000E+00 -0.15706318661E+03  0.15706318661E+03  0.00000000000E+00 0. -1.
         25    2    1    2    0    0  0.62366523573E+02  0.25808273945E+02 -0.20373726171E+02  0.14359633702E+03  0.12509663872E+03 0.  0.
          5    1    3    3  502    0  0.73671125296E+02  0.85532390811E+01  0.36635033224E+02  0.82826267938E+02  0.41800000000E+01 0.  1.
         -5    1    3    3    0  502 -0.11304601723E+02  0.17255034864E+02 -0.57008759395E+02  0.60770069080E+02  0.41800000000E+01 0.  1.
        -11    1    1    2    0    0 -0.36192151145E+02  0.49622515642E+01  0.28309915778E+02  0.46216307473E+02  0.00000000000E+00 0.  1.
         11    1    1    2    0    0 -0.26174372428E+02 -0.30770525510E+02 -0.59955114107E+02  0.72294804237E+02  0.00000000000E+00 0. -1.
</event>
<event>
 7    1  0.2626349E-009  0.1890004E+03  0.7561462E-02  0.1159366E+00
         -1   -1    0    0    0  501 -0.00000000000E+00  0.00000000000E+00  0.12402394172E+03  0.12402394172E+03  0.00000000000E+00 0.  1.
          1   -1    0    0  501    0  0.00000000000E+00 -0.00000000000E+00 -0.45880052734E+03  0.45880052734E+03  0.00000000000E+00 0. -1.
         25    2    1    2    0    0  0.23360216282E+02  0.15777247894E+03 -0.15365191265E+01  0.20269891959E+03  0.12508651524E+03 0.  0.
          5    1    3    3  502    0 -0.43602321338E+02  0.10830780976E+03 -0.16567233322E+02  0.11799868516E+03  0.41800000000E+01 0.  1.
         -5    1    3    3    0  502  0.66962537621E+02  0.49464669186E+02  0.15030714196E+02  0.84700234424E+02  0.41800000000E+01 0.  1.
        -11    1    1    2    0    0 -0.51425807890E+02 -0.79697989175E+02 -0.13280311184E+03  0.16319635324E+03  0.00000000000E+00 0.  1.
         11    1    1    2    0    0  0.28065591608E+02 -0.78074489769E+02 -0.20043695466E+03  0.21692919623E+03  0.00000000000E+00 0. -1.
</event>
<event>
 7    1  0.2626349E-009  0.1026853E+03  0.7561462E-02  0.1274748E+00
          2   -1    0    0  501    0  0.00000000000E+00  0.00000000000E+00  0.33468123100E+02  0.33468123100E+02  0.00000000000E+00 0.  1.
         -2   -1    0    0    0  501 -0.00000000000E+00 -0.00000000000E+00 -0.37177125295E+03  0.37177125295E+03  0.00000000000E+00 0. -1.
         25    2    1    2    0    0 -0.23324258815E+02 -0.62350899201E+01 -0.19730343267E+03  0.23485999347E+03  0.12509066551E+03 0.  0.
          5    1    3    3  502    0  0.48631771640E+02  0.13577095516E+02 -0.60017608770E+02  0.78542806787E+02  0.41800000000E+01 0.  1.
         -5    1    3    3    0  502 -0.71956030455E+02 -0.19812185436E+02 -0.13728582390E+03  0.15631718669E+03  0.41800000000E+01 0.  1.
        -11    1    1    2    0    0  0.12622648775E+02 -0.35077577023E+02 -0.20496861333E+02  0.42542790181E+02  0.00000000000E+00 0.  1.
         11    1    1    2    0    0  0.10701610040E+02  0.41312666943E+02 -0.12050283585E+03  0.12783659239E+03  0.00000000000E+00 0. -1.
</event>
<event>
 7    1  0.2626349E-009  0.1484790E+03  0.7561462E-02  0.1202355E+00
          2   -1    0    0  501    0  0.00000000000E+00  0.00000000000E+00  0.76478577741E+02  0.76478577741E+02  0.00000000000E+00 0.  1.
         -2   -1    0    0    0  501 -0.00000000000E+00 -0.00000000000E+00 -0.34476838959E+03  0.34476838959E+03  0.00000000000E+00 0. -1.
         25    2    1    2    0    0  0.10921142474E+03  0.48133816332E+02 -0.11398801224E+03  0.20708395777E+03  0.12508596670E+03 0.  0.
          5    1    3    3  502    0  0.83951011839E+02  0.77755592826E+02 -0.36355932948E+02  0.12013713358E+03  0.41800000000E+01 0. -1.
         -5    1    3    3    0  502  0.25260412905E+02 -0.29621776494E+02 -0.77632079287E+02  0.86946824193E+02  0.41800000000E+01 0. -1.
        -11    1    1    2    0    0 -0.32310307344E+02 -0.57373689643E+02 -0.99373217047E+02  0.11920877690E+03  0.00000000000E+00 0.  1.
         11    1    1    2    0    0 -0.76901117400E+02  0.92398733114E+01 -0.54928582563E+02  0.94954232652E+02  0.00000000000E+00 0. -1.
</event>
<event>
 7    1  0.2626349E-009  0.2221899E+03  0.7561462E-02  0.1132261E+00
         -1   -1    0    0    0  501 -0.00000000000E+00  0.00000000000E+00  0.39009751291E+03  0.39009751291E+03  0.00000000000E+00 0.  1.
          1   -1    0    0  501    0  0.00000000000E+00 -0.00000000000E+00 -0.13404109605E+03  0.13404109605E+03  0.00000000000E+00 0. -1.
         25    2    1    2    0    0  0.12888362333E+03  0.14983640114E+03  0.89657437712E+02  0.25049698305E+03  0.12509335279E+03 0.  0.
          5    1    3    3  502    0  0.59274397518E+02 -0.26524021461E+01  0.51162546637E+02  0.78457428053E+02  0.41800000000E+01 0.  1.
         -5    1    3    3    0  502  0.69609225807E+02  0.15248880328E+03  0.38494891075E+02  0.17203955499E+03  0.41800000000E+01 0.  1.
        -11    1    1    2    0    0 -0.46041016537E+02 -0.12106639092E+03  0.97717832992E+02  0.16225172141E+03  0.00000000000E+00 0.  1.
         11    1    1    2    0    0 -0.82842606788E+02 -0.28770010213E+02  0.68681146156E+02  0.11138990450E+03  0.00000000000E+00 0. -1.
</event>
<event>
 7    1  0.2626349E-009  0.8077263E+02  0.7561462E-02  0.1326873E+00
         -2   -1    0    0    0  501 -0.00000000000E+00  0.00000000000E+00  0.42418586100E+03  0.42418586100E+03  0.00000000000E+00 0.  1.
          2   -1    0    0  501    0  0.00000000000E+00 -0.00000000000E+00 -0.37441483533E+02  0.37441483533E+02  0.00000000000E+00 0. -1.
         25    2    1    2    0    0  0.28971308840E+01 -0.20683463966E+02  0.10710050180E+03  0.16599435804E+03  0.12508960935E+03 0.  0.
          5    1    3    3  502    0  0.52035128415E+01 -0.46468198876E+02  0.12547838142E+03  0.13397263398E+03  0.41800000000E+01 0.  1.
         -5    1    3    3    0  502 -0.23063819575E+01  0.25784734910E+02 -0.18377879623E+02  0.32021724057E+02  0.41800000000E+01 0.  1.
        -11    1    1    2    0    0 -0.13683529350E+02  0.52775698670E+02  0.11151846680E+03  0.12413251703E+03  0.00000000000E+00 0. -1.
         11    1    1    2    0    0  0.10786398466E+02 -0.32092234704E+02  0.16812540886E+03  0.17150046946E+03  0.00000000000E+00 0.  1.
</event>
<event>
 7    1  0.2626349E-009  0.9186812E+02  0.7561462E-02  0.1298390E+00
          3   -1    0    0  501    0  0.00000000000E+00  0.00000000000E+00  0.36112815316E+03  0.36112815316E+03  0.00000000000E+00 0.  1.
         -3   -1    0    0    0  501 -0.00000000000E+00 -0.00000000000E+00 -0.49461123006E+02  0.49461123006E+02  0.00000000000E+00 0. -1.
         25    2    1    2    0    0 -0.16795673207E+01 -0.66338747138E+02  0.23398814268E+03  0.27349909837E+03  0.12509058947E+03 0.  0.
          5    1    3    3  502    0  0.22035702084E+02  0.10738703257E+02 -0.11377774656E+01  0.24892947828E+02  0.41800000000E+01 0.  1.
         -5    1    3    3    0  502 -0.23715269405E+02 -0.77077450395E+02  0.23512592014E+03  0.24860615054E+03  0.41800000000E+01 0.  1.
        -11    1    1    2    0    0 -0.19631703927E+02  0.36580172444E+02 -0.94570422001E+01  0.42578732512E+02  0.00000000000E+00 0. -1.
         11    1    1    2    0    0  0.21311271248E+02  0.29758574694E+02  0.87135929678E+02  0.94511445290E+02  0.00000000000E+00 0.  1.
</event>
<event>
 7    1  0.2626349E-009  0.2284479E+03  0.7561462E-02  0.1127737E+00
          2   -1    0    0  501    0  0.00000000000E+00  0.00000000000E+00  0.22334110955E+03  0.22334110955E+03  0.00000000000E+00 0. -1.
         -2   -1    0    0    0  501 -0.00000000000E+00 -0.00000000000E+00 -0.25744466235E+03  0.25744466235E+03  0.00000000000E+00 0.  1.
         25    2    1    2    0    0 -0.10556525078E+02 -0.21167797325E+03  0.58280271513E+01  0.24617200848E+03  0.12509071619E+03 0.  0.
          5    1    3    3  502    0  0.15566858491E+02 -0.20134439265E+03  0.35514657476E+02  0.20508694456E+03  0.41800000000E+01 0. -1.
         -5    1    3    3    0  502 -0.26123383569E+02 -0.10333580606E+02 -0.29686630325E+02  0.41085063919E+02  0.41800000000E+01 0. -1.
        -11    1    1    2    0    0  0.44793645360E+02  0.14150490776E+03 -0.35346515599E+01  0.14846751614E+03  0.00000000000E+00 0. -1.
         11    1    1    2    0    0 -0.34237120282E+02  0.70173065489E+02 -0.36396928385E+02  0.86146247285E+02  0.00000000000E+00 0.  1.
</event>
<event>
 7    1  0.2626349E-009  0.1773523E+03  0.7561462E-02  0.1170390E+00
         -1   -1    0    0    0  501 -0.00000000000E+00  0.00000000000E+00  0.13596273861E+03  0.13596273861E+03  0.00000000000E+00 0.  1.
          1   -1    0    0  501    0  0.00000000000E+00 -0.00000000000E+00 -0.28992861024E+03  0.28992861024E+03  0.00000000000E+00 0. -1.
         25    2    1    2    0    0 -0.73664854073E+02 -0.14708291831E+03 -0.10820982450E+03  0.23327035045E+03  0.12508315113E+03 0.  0.
          5    1    3    3  502    0  0.22627135896E+02 -0.20302961846E+02  0.12805812440E+02  0.33251447650E+02  0.41800000000E+01 0.  1.
         -5    1    3    3    0  502 -0.96291989969E+02 -0.12677995646E+03 -0.12101563694E+03  0.20001890280E+03  0.41800000000E+01 0.  1.
        -11    1    1    2    0    0  0.41876324505E+02  0.93667830034E+02 -0.71796829141E+02  0.12522808635E+03  0.00000000000E+00 0.  1.
         11    1    1    2    0    0  0.31788529569E+02  0.53415088271E+02  0.26040782010E+02  0.67392912052E+02  0.00000000000E+00 0. -1.
</event>
<event>
 7    1  0.2626349E-009  0.1616366E+03  0.7561462E-02  0.1186861E+00
          1   -1    0    0  501    0  0.00000000000E+00  0.00000000000E+00  0.77975668988E+03  0.77975668988E+03  0.00000000000E+00 0. -1.
         -1   -1    0    0    0  501 -0.00000000000E+00 -0.00000000000E+00 -0.48756610272E+02  0.48756610272E+02  0.00000000000E+00 0.  1.
         25    2    1    2    0    0 -0.58299983317E+02 -0.14901394831E+03  0.43333689208E+03  0.47857334055E+03  0.12509010912E+03 0.  0.
          5    1    3    3  502    0 -0.50906732492E+02 -0.11958492189E+03  0.17290377763E+03  0.21634518177E+03  0.41800000000E+01 0. -1.
         -5    1    3    3    0  502 -0.73932508257E+01 -0.29429026422E+02  0.26043311445E+03  0.26222815878E+03  0.41800000000E+01 0. -1.
        -11    1    1    2    0    0  0.50856775968E+02  0.92104592869E+02  0.26208021530E+03  0.28241052909E+03  0.00000000000E+00 0. -1.
         11    1    1    2    0    0  0.74432073495E+01  0.56909355446E+02  0.35582972234E+02  0.67529430517E+02  0.00000000000E+00 0.  1.
</event>
<event>
 7    1  0.2626349E-009  0.1379840E+03  0.7561462E-02  0.1216068E+00
          1   -1    0    0  501    0  0.00000000000E+00  0.00000000000E+00  0.14423759046E+03  0.14423759046E+03  0.00000000000E+00 0. -1.
         -1   -1    0    0    0  501 -0.00000000000E+00 -0.00000000000E+00 -0.28095572420E+03  0.28095572420E+03  0.00000000000E+00 0.  1.
         25    2    1    2    0    0  0.41941405890E+02 -0.97783528929E+02  0.66611667150E+02  0.17721499200E+03  0.12508932460E+03 0.  0.
          5    1    3    3  502    0  0.85293799603E+02 -0.72315897577E+02  0.33280495256E+02  0.11674624216E+03  0.41800000000E+01 0.  1.
         -5    1    3    3    0  502 -0.43352393713E+02 -0.25467631352E+02  0.33331171894E+02  0.60468749840E+02  0.41800000000E+01 0.  1.
        -11    1    1    2    0    0 -0.31566495039E+02  0.25474689551E+02 -0.10682958376E+02  0.41946740236E+02  0.00000000000E+00 0. -1.
         11    1    1    2    0    0 -0.10374910851E+02  0.72308839379E+02 -0.19264684252E+03  0.20603158243E+03  0.00000000000E+00 0.  1.
</event>
<event>
 7    1  0.2626349E-009  0.1382754E+03  0.7561462E-02  0.1215669E+00
          4   -1    0    0  501    0  0.00000000000E+00  0.00000000000E+00  0.80671439520E+03  0.80671439520E+03  0.00000000000E+00 0. -1.
         -4   -1    0    0    0  501 -0.00000000000E+00 -0.00000000000E+00 -0.29247402088E+02  0.29247402088E+02  0.00000000000E+00 0.  1.
         25    2    1    2    0    0  0.40074442623E+02 -0.98864414851E+02  0.47671158850E+03  0.50426369638E+03  0.12509118034E+03 0.  0.
          5    1    3    3  502    0 -0.17716666410E+02 -0.71564001410E+02  0.38730345427E+03  0.39428000794E+03  0.41800000000E+01 0.  1.
         -5    1    3    3    0  502  0.57791109034E+02 -0.27300413441E+02  0.89408134226E+02  0.10998368844E+03  0.41800000000E+01 0.  1.
        -11    1    1    2    0    0 -0.19069808067E+01  0.10043851458E+03  0.19701326083E+03  0.22114645991E+03  0.00000000000E+00 0.  1.
         11    1    1    2    0    0 -0.38167461817E+02 -0.15740997331E+01  0.10374214378E+03  0.11055164100E+03  0.00000000000E+00 0. -1.
</event>
<event>
 7    1  0.2626349E-009  0.7529619E+02  0.7561462E-02  0.1342956E+00
          2   -1    0    0  501    0  0.00000000000E+00  0.00000000000E+00  0.39759768685E+03  0.39759768685E+03  0.00000000000E+00 0. -1.
         -2   -1    0    0    0  501 -0.00000000000E+00 -0.00000000000E+00 -0.33678239749E+02  0.33678239749E+02  0.00000000000E+00 0.  1.
         25    2    1    2    0    0  0.22282188634E+02 -0.37266805675E+02  0.21708466096E+03  0.25428038157E+03  0.12508977453E+03 0.  0.
          5    1    3    3  502    0 -0.44588074998E+01 -0.39215278732E+02  0.22300256215E+03  0.22650680823E+03  0.41800000000E+01 0. -1.
         -5    1    3    3    0  502  0.26740996133E+02  0.19484730564E+01 -0.59179011915E+01  0.27773573338E+02  0.41800000000E+01 0. -1.
        -11    1    1    2    0    0  0.17533513479E+02 -0.11381314157E+02  0.44803041030E+01  0.21378295809E+02  0.00000000000E+00 0.  1.
         11    1    1    2    0    0 -0.39815702112E+02  0.48648119832E+02  0.14235448204E+03  0.15561724922E+03  0.00000000000E+00 0. -1.
</event>
<event>
 7    1  0.2626349E-009  0.1545717E+03  0.7561462E-02  0.1194965E+00
         -1   -1    0    0    0  501 -0.00000000000E+00  0.00000000000E+00  0.40103129864E+02  0.40103129864E+02  0.00000000000E+00 0.  1.
          1   -1    0    0  501    0  0.00000000000E+00 -0.00000000000E+00 -0.76654473472E+03  0.76654473472E+03  0.00000000000E+00 0. -1.
         25    2    1    2    0    0 -0.54033275535E+02 -0.97347564980E+02 -0.55814773154E+03  0.58272849430E+03  0.12508982605E+03 0.  0.
          5    1    3    3  502    0  0.13631368493E+02 -0.98380540448E+02 -0.31596270893E+03  0.33123171765E+03  0.41800000000E+01 0.  1.
         -5    1    3    3    0  502 -0.67664644028E+02  0.10329754678E+01 -0.24218502261E+03  0.25149677665E+03  0.41800000000E+01 0.  1.
        -11    1    1    2    0    0 -0.18314354336E+02  0.55301688813E+02 -0.10076079725E+03  0.11638913447E+03  0.00000000000E+00 0.  1.
         11    1    1    2    0    0  0.72347629871E+02  0.42045876167E+02 -0.67533076077E+02  0.10753023582E+03  0.00000000000E+00 0. -1.
</event>
<event>
 7    1  0.2626349E-009  0.1064603E+03  0.7561462E-02  0.1267269E+00
         -2   -1    0    0    0  501 -0.00000000000E+00  0.00000000000E+00  0.34950944639E+03  0.34950944639E+03  0.00000000000E+00 0. -1.
          2   -1    0    0  501    0  0.00000000000E+00 -0.00000000000E+00 -0.48842474356E+02  0.48842474356E+02  0.00000000000E+00 0.  1.
         25    2    1    2    0    0  0.68033268665E+02  0.22864891867E+02  0.13501038316E+03  0.19754871748E+03  0.12508542398E+03 0.  0.
          5    1    3    3  502    0 -0.26357903504E+02  0.17868550796E+02  0.84277400978E+02  0.90189671805E+02  0.41800000000E+01 0. -1.
         -5    1    3    3    0  502  0.94391172169E+02  0.49963410716E+01  0.50732982182E+02  0.10735904568E+03  0.41800000000E+01 0. -1.
        -11    1    1    2    0    0 -0.54427423154E+02 -0.37584599127E+02  0.48691213550E+02  0.82132702133E+02  0.00000000000E+00 0.  1.
         11    1    1    2    0    0 -0.13605845511E+02  0.14719707260E+02  0.11696537533E+03  0.11867050113E+03  0.00000000000E+00 0. -1.
</event>
<event>
 7    1  0.2626349E-009  0.8468569E+02  0.7561462E-02  0.1316257E+00
         -2   -1    0    0    0  501 -0.00000000000E+00  0.00000000000E+00  0.11173105043E+02  0.11173105043E+02  0.00000000000E+00 0.  1.
          2   -1    0    0  501    0  0.00000000000E+00 -0.00000000000E+00 -0.11301486530E+04  0.11301486530E+04  0.00000000000E+00 0. -1.
         25    2    1    2    0    0  0.18793926388E+02  0.22325274136E+02 -0.76597343448E+03  0.77666996791E+03  0.12509719095E+03 0.  0.
          5    1    3    3  502    0 -0.19867743050E+01 -0.26386574228E+02 -0.63172395557E+03  0.63229172619E+03  0.41800000000E+01 0.  1.
         -5    1    3    3    0  502  0.20780700693E+02  0.48711848364E+02 -0.13424947892E+03  0.14437824172E+03  0.41800000000E+01 0.  1.
        -11    1    1    2    0    0 -0.20339916033E+01  0.32277222036E+02 -0.93408092271E+02  0.98848509781E+02  0.00000000000E+00 0.  1.
         11    1    1    2    0    0 -0.16759934785E+02 -0.54602496172E+02 -0.25959402120E+03  0.26580328035E+03  0.00000000000E+00 0. -1.
</event>
<event>
 7    1  0.2626349E-009  0.1274860E+03  0.7561462E-02  0.1231235E+00
          1   -1    0    0  501    0  0.00000000000E+00  0.00000000000E+00  0.87810535890E+02  0.87810535890E+02  0.00000000000E+00 0. -1.
         -1   -1    0    0    0  501 -0.00000000000E+00 -0.00000000000E+00 -0.35589065917E+03  0.35589065917E+03  0.00000000000E+00 0.  1.
         25    2    1    2    0    0  0.93130043843E+02  0.10635849501E+02 -0.26733339475E+03  0.30967855987E+03  0.12508932861E+03 0.  0.
          5    1    3    3  502    0  0.79384266356E+01  0.54293892970E+02 -0.60830293837E+02  0.82028302918E+02  0.41800000000E+01 0. -1.
         -5    1    3    3    0  502  0.85191617207E+02 -0.43658043470E+02 -0.20650310091E+03  0.22765025695E+03  0.41800000000E+01 0. -1.
        -11    1    1    2    0    0 -0.83512026560E+02  0.72392884578E+01 -0.37660059150E+02  0.91896386941E+02  0.00000000000E+00 0.  1.
         11    1    1    2    0    0 -0.96180172825E+01 -0.17875137959E+02  0.36913330625E+02  0.42126248247E+02  0.00000000000E+00 0. -1.
</event>
<event>
 7    1  0.2626349E-009  0.9276821E+02  0.7561462E-02  0.1296283E+00
         -1   -1    0    0    0  501 -0.00000000000E+00  0.00000000000E+00  0.26831713515E+02  0.26831713515E+02  0.00000000000E+00 0.  1.
          1   -1    0    0  501    0  0.00000000000E+00 -0.00000000000E+00 -0.53492564850E+03  0.53492564850E+03  0.00000000000E+00 0. -1.
         25    2    1    2    0    0  0.19791533799E+02 -0.30978659876E+02 -0.36898669656E+03  0.39134399555E+03  0.12509020119E+03 0.  0.
          5    1    3    3  502    0  0.39574504843E+02  0.20896784617E+02 -0.29678039904E+03  0.30016477924E+03  0.41800000000E+01 0. -1.
         -5    1    3    3    0  502 -0.19782971044E+02 -0.51875444492E+02 -0.72206297519E+02  0.91179216305E+02  0.41800000000E+01 0. -1.
        -11    1    1    2    0    0  0.20735973186E+02  0.38465603147E+02 -0.11415959558E+03  0.12223745936E+03  0.00000000000E+00 0. -1.
         11    1    1    2    0    0 -0.40527506985E+02 -0.74869432714E+01 -0.24947642849E+02  0.48175907108E+02  0.00000000000E+00 0.  1.
</event>
<event>
 7    1  0.2626349E-009  0.9636223E+02  0.7561462E-02  0.1288137E+00
          1   -1    0    0  501    0  0.00000000000E+00  0.00000000000E+00  0.15316189965E+03  0.15316189965E+03  0.00000000000E+00 0. -1.
         -1   -1    0    0    0  501 -0.00000000000E+00 -0.00000000000E+00 -0.86028576299E+02  0.86028576299E+02  0.00000000000E+00 0.  1.
         25    2    1    2    0    0 -0.40369259399E+01  0.30601748765E+02  0.13068277229E+02  0.12951873598E+03  0.12510619210E+03 0.  0.
          5    1    3    3  502    0 -0.56699045658E+02  0.25827438889E+01  0.33843791524E+02  0.66214250499E+02  0.41800000000E+01 0.  1.
         -5    1    3    3    0  502  0.52662119718E+02  0.28019004876E+02 -0.20775514295E+02  0.63304485478E+02  0.41800000000E+01 0.  1.
        -11    1    1    2    0    0  0.35551940007E+02 -0.26266966541E+02  0.62694390564E+02  0.76710368124E+02  0.00000000000E+00 0.  1.
         11    1    1    2    0    0 -0.31515014067E+02 -0.43347822236E+01 -0.86293444421E+01  0.32961371847E+02  0.00000000000E+00 0. -1.
</event>
<event>
 7    1  0.2626349E-009  0.1113332E+03  0.7561462E-02  0.1258121E+00
         -1   -1    0    0    0  501 -0.00000000000E+00  0.00000000000E+00  0.28121355380E+03  0.28121355380E+03  0.00000000000E+00 0.  1.
          1   -1    0    0  501    0  0.00000000000E+00 -0.00000000000E+00 -0.70904329889E+02  0.70904329889E+02  0.00000000000E+00 0. -1.
         25    2    1    2    0    0  0.25650636426E+02 -0.42716437980E+02  0.20938238157E+03  0.24893977950E+03  0.12508949948E+03 0.  0.
          5    1    3    3  502    0  0.29998154895E+02  0.40390191863E+02  0.65872190339E+02  0.82993221144E+02  0.41800000000E+01 0.  1.
         -5    1    3    3    0  502 -0.43475184687E+01 -0.83106629843E+02  0.14351019124E+03  0.16594655835E+03  0.41800000000E+01 0.  1.
        -11    1    1    2    0    0  0.17426964645E+02  0.42330092571E+02 -0.25735645844E+02  0.52515324438E+02  0.00000000000E+00 0. -1.
         11    1    1    2    0    0 -0.43077601070E+02  0.38634540876E+00  0.26662488184E+02  0.50662779759E+02  0.00000000000E+00 0.  1.
</event>
<event>
 7    1  0.2626349E-009  0.1614545E+03  0.7561462E-02  0.1187064E+00
          2   -1    0    0  501    0  0.00000000000E+00  0.00000000000E+00  0.57071352045E+03  0.57071352045E+03  0.00000000000E+00 0. -1.
         -2   -1    0    0    0  501 -0.00000000000E+00 -0.00000000000E+00 -0.46064111589E+02  0.46064111589E+02  0.00000000000E+00 0.  1.
         25    2    1    2    0    0 -0.38294259975E+02 -0.11341515538E+03  0.26346519882E+03  0.31526040470E+03  0.12508302828E+03 0.  0.
          5    1    3    3  502    0 -0.58269376786E+02 -0.58008857040E+00  0.85521284220E+02  0.10357132435E+03  0.41800000000E+01 0. -1.
         -5    1    3    3    0  502  0.19975116811E+02 -0.11283506681E+03  0.17794391460E+03  0.21168908035E+03  0.41800000000E+01 0. -1.
        -11    1    1    2    0    0  0.66153389487E+02  0.58788127230E+02  0.16955704517E+03  0.19126397050E+03  0.00000000000E+00 0. -1.
         11    1    1    2    0    0 -0.27859129512E+02  0.54627028153E+02  0.91627164868E+02  0.11025325684E+03  0.00000000000E+00 0.  1.
</event>
<event>
 7    1  0.2626349E-009  0.1590579E+03  0.7561462E-02  0.1189765E+00
          1   -1    0    0  501    0  0.00000000000E+00  0.00000000000E+00  0.88175035872E+03  0.88175035872E+03  0.00000000000E+00 0. -1.
         -1   -1    0    0    0  501 -0.00000000000E+00 -0.00000000000E+00 -0.38099304225E+02  0.38099304225E+02  0.00000000000E+00 0.  1.
         25    2    1    2    0    0 -0.14379274332E+03  0.90995657063E+01  0.51457639160E+03  0.54881309576E+03  0.12509115140E+03 0.  0.
          5    1    3    3  502    0  0.87969194817E+01  0.57136045660E+01  0.18765465593E+03  0.18799407800E+03  0.41800000000E+01 0. -1.
         -5    1    3    3    0  502 -0.15258966280E+03  0.33859611403E+01  0.32692173567E+03  0.36081901776E+03  0.41800000000E+01 0. -1.
        -11    1    1    2    0    0  0.12993350738E+03  0.10251661790E+02  0.19294979559E+03  0.23284637968E+03  0.00000000000E+00 0.  1.
         11    1    1    2    0    0  0.13859235940E+02 -0.19351227496E+02  0.13612486730E+03  0.13819018751E+03  0.00000000000E+00 0. -1.
</event>
<event>
 7    1  0.2626349E-009  0.1252713E+03  0.7561462E-02  0.1234646E+00
          1   -1    0    0  501    0  0.00000000000E+00  0.00000000000E+00  0.10499062883E+04  0.10499062883E+04  0.00000000000E+00 0. -1.
         -1   -1    0    0    0  501 -0.00000000000E+00 -0.00000000000E+00 -0.22513939536E+02  0.22513939536E+02  0.00000000000E+00 0.  1.
         25    2    1    2    0    0  0.56283965204E+02 -0.88575988479E+02  0.45363597083E+03  0.48212600968E+03  0.12508518979E+03 0.  0.
          5    1    3    3  502    0  0.60495980960E+02 -0.67494349801E+02  0.45103528643E+03  0.46007124772E+03  0.41800000000E+01 0. -1.
         -5    1    3    3    0  502 -0.42120157568E+01 -0.21081638678E+02  0.26006843992E+01  0.22054761967E+02  0.41800000000E+01 0. -1.
        -11    1    1    2    0    0 -0.55778462058E+02  0.68701610012E+01  0.20257856756E+03  0.21022966483E+03  0.00000000000E+00 0.  1.
         11    1    1    2    0    0 -0.50550314518E+00  0.81705827478E+02  0.37117781038E+03  0.38006455332E+03  0.00000000000E+00 0. -1.
</event>
<event>
 7    1  0.2626349E-009  0.1258901E+03  0.7561462E-02  0.1233685E+00
         -4   -1    0    0    0  501 -0.00000000000E+00  0.00000000000E+00  0.14036471090E+03  0.14036471090E+03  0.00000000000E+00 0.  1.
          4   -1    0    0  501    0  0.00000000000E+00 -0.00000000000E+00 -0.14965363897E+03  0.14965363897E+03  0.00000000000E+00 0. -1.
         25    2    1    2    0    0  0.89467894159E+02 -0.35294818473E+02  0.18066212630E+00  0.15779358346E+03  0.12509418070E+03 0.  0.
          5    1    3    3  502    0  0.75169703280E+02  0.64669293815E+01 -0.50170978720E+02  0.90702287582E+02  0.41800000000E+01 0. -1.
         -5    1    3    3    0  502  0.14298190879E+02 -0.41761747854E+02  0.50351640846E+02  0.67091295875E+02  0.41800000000E+01 0. -1.
        -11    1    1    2    0    0 -0.36992214372E+00  0.42488478782E+02 -0.24035894479E+01  0.42558018209E+02  0.00000000000E+00 0.  1.
         11    1    1    2    0    0 -0.89097972015E+02 -0.71936603094E+01 -0.70660007457E+01  0.89666748198E+02  0.00000000000E+00 0. -1.
</event>
<event>
 7    1  0.2626349E-009  0.8755198E+02  0.7561462E-02  0.1308891E+00
         -2   -1    0    0    0  501 -0.00000000000E+00  0.00000000000E+00  0.16375793540E+02  0.16375793540E+02  0.00000000000E+00 0.  1.
          2   -1    0    0  501    0  0.00000000000E+00 -0.00000000000E+00 -0.65182453276E+03  0.65182453276E+03  0.00000000000E+00 0. -1.
         25    2    1    2    0    0  0.14631071788E+01  0.62598077691E+02 -0.42444063251E+03  0.44689800364E+03  0.12508922862E+03 0.  0.
          5    1    3    3  502    0 -0.44149975224E+02  0.31091398357E+02 -0.71983194001E+02  0.90083006071E+02  0.41800000000E+01 0. -1.
         -5    1    3    3    0  502  0.45613082403E+02  0.31506679334E+02 -0.35245743851E+03  0.35681499757E+03  0.41800000000E+01 0. -1.
        -11    1    1    2    0    0 -0.88554800559E+01 -0.17123225832E+02 -0.43627125372E+02  0.47696440728E+02  0.00000000000E+00 0.  1.
         11    1    1    2    0    0  0.73923728772E+01 -0.45474851859E+02 -0.16738098133E+03  0.17360588193E+03  0.00000000000E+00 0. -1.
</event>
<event>
 7    1  0.2626349E-009  0.3856113E+03  0.7561462E-02  0.1048879E+00
          1   -1    0    0  501    0  0.00000000000E+00  0.00000000000E+00  0.91229059020E+03  0.91229059020E+03  0.00000000000E+00 0. -1.
         -1   -1    0    0    0  501 -0.00000000000E+00 -0.00000000000E+00 -0.16855450778E+03  0.16855450778E+03  0.00000000000E+00 0.  1.
         25    2    1    2    0    0 -0.37271870565E+03  0.12609420475E+02  0.31688708590E+03  0.50511803447E+03  0.12509425451E+03 0.  0.
          5    1    3    3  502    0 -0.76911198655E+02 -0.39557859937E+02  0.11168854174E+03  0.14132218339E+03  0.41800000000E+01 0.  1.
         -5    1    3    3    0  502 -0.29580750700E+03  0.52167280412E+02  0.20519854416E+03  0.36379585109E+03  0.41800000000E+01 0.  1.
        -11    1    1    2    0    0  0.22286021018E+03  0.37963277987E+02  0.28032071499E+03  0.36012162808E+03  0.00000000000E+00 0. -1.
         11    1    1    2    0    0  0.14985849547E+03 -0.50572698461E+02  0.14652828153E+03  0.21560543542E+03  0.00000000000E+00 0.  1.
</event>
<event>
 7    1  0.2626349E-009  0.1381220E+03  0.7561462E-02  0.1215879E+00
         -1   -1    0    0    0  501 -0.00000000000E+00  0.00000000000E+00  0.25550099179E+02  0.25550099179E+02  0.00000000000E+00 0.  1.
          1   -1    0    0  501    0  0.00000000000E+00 -0.00000000000E+00 -0.93175344025E+03  0.93175344025E+03  0.00000000000E+00 0. -1.
         25    2    1    2    0    0  0.16949268362E+02 -0.11012215937E+03 -0.55411252258E+03  0.57888172199E+03  0.12509673336E+03 0.  0.
          5    1    3    3  502    0 -0.36708905299E+02 -0.11412664871E+02 -0.27924595345E+03  0.28191056661E+03  0.41800000000E+01 0.  1.
         -5    1    3    3    0  502  0.53658173661E+02 -0.98709494503E+02 -0.27486656913E+03  0.29697115539E+03  0.41800000000E+01 0.  1.
        -11    1    1    2    0    0 -0.36764371278E+02  0.51575713976E+02 -0.96247940995E+02  0.11521865914E+03  0.00000000000E+00 0.  1.
         11    1    1    2    0    0  0.19815102916E+02  0.58546445399E+02 -0.25584287750E+03  0.26320315830E+03  0.00000000000E+00 0. -1.
</event>
<event>
 7    1  0.2626349E-009  0.1700218E+03  0.7561462E-02  0.1177825E+00
         -2   -1    0    0    0  501 -0.00000000000E+00  0.00000000000E+00  0.28454159607E+02  0.28454159607E+02  0.00000000000E+00 0.  1.
          2   -1    0    0  501    0  0.00000000000E+00 -0.00000000000E+00 -0.16578487398E+04  0.16578487398E+04  0.00000000000E+00 0. -1.
         25    2    1    2    0    0  0.98324525573E+02  0.98045051912E+02 -0.13587326908E+04  0.13715257372E+04  0.12509107899E+03 0.  0.
          5    1    3    3  502    0  0.97969297767E+02  0.12069153530E+02 -0.62491994423E+03  0.63268163943E+03  0.41800000000E+01 0. -1.
         -5    1    3    3    0  502  0.35522780542E+00  0.85975898381E+02 -0.73381274661E+03  0.73884409775E+03  0.41800000000E+01 0. -1.
        -11    1    1    2    0    0 -0.54157462089E+02 -0.96873718183E+02 -0.22690719313E+03  0.25259537262E+03  0.00000000000E+00 0. -1.
         11    1    1    2    0    0 -0.44167063484E+02 -0.11713337287E+01 -0.43754696266E+02  0.62181789656E+02  0.00000000000E+00 0.  1.
</event>
<event>
 7    1  0.2626349E-009  0.9021938E+02  0.7561462E-02  0.1302321E+00
          2   -1    0    0  501    0  0.00000000000E+00  0.00000000000E+00  0.15438889254E+03  0.15438889254E+03  0.00000000000E+00 0. -1.
         -2   -1    0    0    0  501 -0.00000000000E+00 -0.00000000000E+00 -0.90303429819E+02  0.90303429819E+02  0.00000000000E+00 0.  1.
         25    2    1    2    0    0 -0.32466624682E+02  0.23096744633E+02  0.80068082075E+01  0.13152499699E+03  0.12508866665E+03 0.  0.
          5    1    3    3  502    0 -0.54846545209E+02  0.22326078809E+02 -0.44564897155E+02  0.74230046307E+02  0.41800000000E+01 0. -1.
         -5    1    3    3    0  502  0.22379920527E+02  0.77066582324E+00  0.52571705363E+02  0.57294950679E+02  0.41800000000E+01 0. -1.
        -11    1    1    2    0    0 -0.14641704331E+02 -0.44283684267E+02  0.26396125001E+02  0.53592719777E+02  0.00000000000E+00 0.  1.
         11    1    1    2    0    0  0.47108329013E+02  0.21186939635E+02  0.29682529512E+02  0.59574605594E+02  0.00000000000E+00 0. -1.
</event>
<event>
 7    1  0.2626349E-009  0.6863990E+02  0.7561462E-02  0.1364780E+00
         -2   -1    0    0    0  501 -0.00000000000E+00  0.00000000000E+00  0.59655587548E+02  0.59655587548E+02  0.00000000000E+00 0. -1.
          2   -1    0    0  501    0  0.00000000000E+00 -0.00000000000E+00 -0.21457400951E+03  0.21457400951E+03  0.00000000000E+00 0.  1.
         25    2    1    2    0    0 -0.28736887577E+02  0.11229128163E+02 -0.71072368888E+02  0.14714241142E+03  0.12509078940E+03 0.  0.
          5    1    3    3  502    0 -0.29807086311E+01  0.28577500287E+02  0.29745728721E+02  0.41567281890E+02  0.41800000000E+01 0. -1.
         -5    1    3    3    0  502 -0.25756178946E+02 -0.17348372123E+02 -0.10081809761E+03  0.10557512953E+03  0.41800000000E+01 0. -1.
        -11    1    1    2    0    0  0.19625627131E+02  0.29357935512E+02 -0.77291672649E+02  0.84976798473E+02  0.00000000000E+00 0.  1.
         11    1    1    2    0    0  0.91112604464E+01 -0.40587063675E+02 -0.65543804265E+01  0.42110387169E+02  0.00000000000E+00 0. -1.
</event>
<event>
 7    1  0.2626349E-009  0.8442249E+02  0.7561462E-02  0.1316950E+00
         -2   -1    0    0    0  501 -0.00000000000E+00  0.00000000000E+00  0.54228290670E+02  0.54228290670E+02  0.00000000000E+00 0.  1.
          2   -1    0    0  501    0  0.00000000000E+00 -0.00000000000E+00 -0.15358086114E+03  0.15358086114E+03  0.00000000000E+00 0. -1.
         25    2    1    2    0    0 -0.85369652963E+01 -0.13797662679E+02 -0.42907876610E+02  0.13323759499E+03  0.12509162870E+03 0.  0.
          5    1    3    3  502    0 -0.29920923280E+02 -0.64216628314E+02 -0.28298223777E+02  0.76402217709E+02  0.41800000000E+01 0.  1.
         -5    1    3    3    0  502  0.21383957984E+02  0.50418965635E+02 -0.14609652833E+02  0.56835377281E+02  0.41800000000E+01 0.  1.
        -11    1    1    2    0    0  0.90472617632E+01  0.27648341966E+02 -0.19262794952E+02  0.34890385900E+02  0.00000000000E+00 0.  1.
         11    1    1    2    0    0 -0.51029646691E+00 -0.13850679287E+02 -0.37181898909E+02  0.39681170921E+02  0.00000000000E+00 0. -1.
</event>
<event>
 7    1  0.2626349E-009  0.2233164E+03  0.7561462E-02  0.1131434E+00
          2   -1    0    0  501    0  0.00000000000E+00  0.00000000000E+00  0.15821942850E+03  0.15821942850E+03  0.00000000000E+00 0. -1.
         -2   -1    0    0    0  501 -0.00000000000E+00 -0.00000000000E+00 -0.34656207345E+03  0.34656207345E+03  0.00000000000E+00 0.  1.
         25    2    1    2    0    0  0.14637781038E+03  0.14529095338E+03 -0.11959320977E+03  0.26923057996E+03  0.12508654947E+03 0.  0.
          5    1    3    3  502    0 -0.10140227761E+02  0.58784089834E+02 -0.13674286135E+02  0.61342089449E+02  0.41800000000E+01 0.  1.
         -5    1    3    3    0  502  0.15651803814E+03  0.86506863545E+02 -0.10591892363E+03  0.20788849051E+03  0.41800000000E+01 0.  1.
        -11    1    1    2    0    0 -0.45974803015E+02 -0.29188961933E+02  0.20273511956E+02  0.58109321955E+02  0.00000000000E+00 0. -1.
         11    1    1    2    0    0 -0.10040300736E+03 -0.11610199145E+03 -0.89022947142E+02  0.17744160003E+03  0.00000000000E+00 0.  1.
</event>
<event>
 7    1  0.2626349E-009  0.6533954E+02  0.7561462E-02  0.1376699E+00
          4   -1    0    0  501    0  0.00000000000E+00  0.00000000000E+00  0.62559914256E+02  0.62559914256E+02  0.00000000000E+00 0. -1.
         -4   -1    0    0    0  501 -0.00000000000E+00 -0.00000000000E+00 -0.25634842299E+03  0.25634842299E+03  0.00000000000E+00 0.  1.
         25    2    1    2    0    0 -0.96480318153E+01  0.22073267561E+02 -0.31306652301E+02  0.13117413811E+03  0.12508490865E+03 0.  0.
          5    1    3    3  502    0 -0.19177826384E+02  0.12450532648E+02 -0.78515358022E+02  0.81883689666E+02  0.41800000000E+01 0. -1.
         -5    1    3    3    0  502  0.95297945683E+01  0.96227349124E+01  0.47208705721E+02  0.49290448442E+02  0.41800000000E+01 0. -1.
        -11    1    1    2    0    0 -0.19813166362E+02 -0.49308610221E+02 -0.80449403893E+02  0.96415803632E+02  0.00000000000E+00 0. -1.
         11    1    1    2    0    0  0.29461198178E+02  0.27235342660E+02 -0.82032452535E+02  0.91318395501E+02  0.00000000000E+00 0.  1.
</event>
<event>
 7    1  0.2626349E-009  0.3118146E+03  0.7561462E-02  0.1079479E+00
          1   -1    0    0  501    0  0.00000000000E+00  0.00000000000E+00  0.22174342770E+03  0.22174342770E+03  0.00000000000E+00 0. -1.
         -1   -1    0    0    0  501 -0.00000000000E+00 -0.00000000000E+00 -0.47795159033E+03  0.47795159033E+03  0.00000000000E+00 0.  1.
         25    2    1    2    0    0 -0.77273978576E+02  0.29206767177E+03 -0.74736863866E+02  0.33542245372E+03  0.12509129059E+03 0.  0.
          5    1    3    3  502    0  0.24799856331E+02  0.41932709975E+02  0.14288374003E+02  0.50941290439E+02  0.41800000000E+01 0.  1.
         -5    1    3    3    0  502 -0.10207383491E+03  0.25013496179E+03 -0.89025237869E+02  0.28448116328E+03  0.41800000000E+01 0.  1.
        -11    1    1    2    0    0  0.59051306730E+02 -0.14833217195E+03 -0.14308094944E+03  0.21438667905E+03  0.00000000000E+00 0. -1.
         11    1    1    2    0    0  0.18222671847E+02 -0.14373549982E+03 -0.38390349322E+02  0.14988588526E+03  0.00000000000E+00 0.  1.
</event>
<event>
 7    1  0.2626349E-009  0.1216242E+03  0.7561462E-02  0.1240441E+00
          1   -1    0    0  501    0  0.00000000000E+00  0.00000000000E+00  0.79227081724E+03  0.79227081724E+03  0.00000000000E+00 0. -1.
         -1   -1    0    0    0  501 -0.00000000000E+00 -0.00000000000E+00 -0.25046758113E+02  0.25046758113E+02  0.00000000000E+00 0.  1.
         25    2    1    2    0    0 -0.24849194251E+02  0.78607687674E+02  0.33222980366E+03  0.36444592451E+03  0.12509012127E+03 0.  0.
          5    1    3    3  502    0  0.12344748981E+02 -0.15855779940E+02  0.18156000302E+03  0.18271646254E+03  0.41800000000E+01 0.  1.
         -5    1    3    3    0  502 -0.37193943232E+02  0.94463467614E+02  0.15066980063E+03  0.18172946198E+03  0.41800000000E+01 0.  1.
        -11    1    1    2    0    0  0.44282676457E+02 -0.45100078621E+01  0.10393645348E+03  0.11306671467E+03  0.00000000000E+00 0.  1.
         11    1    1    2    0    0 -0.19433482205E+02 -0.74097679812E+02  0.33105780199E+03  0.33980493616E+03  0.00000000000E+00 0. -1.
</event>
<event>
 7    1  0.2626349E-009  0.9205558E+02  0.7561462E-02  0.1297949E+00
          1   -1    0    0  501    0  0.00000000000E+00  0.00000000000E+00  0.51739671947E+03  0.51739671947E+03  0.00000000000E+00 0. -1.
         -1   -1    0    0    0  501 -0.00000000000E+00 -0.00000000000E+00 -0.30520121407E+02  0.30520121407E+02  0.00000000000E+00 0.  1.
         25    2    1    2    0    0  0.18563876845E+01  0.55031797864E+02  0.33434280085E+03  0.36119738515E+03  0.12508596088E+03 0.  0.
          5    1    3    3  502    0 -0.21354893404E+02  0.68224220226E+02  0.88359417381E+02  0.11373405267E+03  0.41800000000E+01 0. -1.
         -5    1    3    3    0  502  0.23211281088E+02 -0.13192422363E+02  0.24598338347E+03  0.24746333248E+03  0.41800000000E+01 0. -1.
        -11    1    1    2    0    0 -0.24301338339E+01  0.15124512975E+02 -0.34337728608E+01  0.15698638133E+02  0.00000000000E+00 0.  1.
         11    1    1    2    0    0  0.57374614941E+00 -0.70156310839E+02  0.15596757008E+03  0.17102081759E+03  0.00000000000E+00 0. -1.
</event>
<event>
 7    1  0.2626349E-009  0.1196221E+03  0.7561462E-02  0.1243722E+00
         -2   -1    0    0    0  501 -0.00000000000E+00  0.00000000000E+00  0.42772431831E+02  0.42772431831E+02  0.00000000000E+00 0.  1.
          2   -1    0    0  501    0  0.00000000000E+00 -0.00000000000E+00 -0.53120777810E+03  0.53120777810E+03  0.00000000000E+00 0. -1.
         25    2    1    2    0    0  0.52882526996E+02  0.73484551246E+02 -0.36423255460E+03  0.39561314331E+03  0.12509142415E+03 0.  0.
          5    1    3    3  502    0  0.81614464283E+02  0.53997614577E+02 -0.15412820416E+03  0.18261883495E+03  0.41800000000E+01 0.  1.
         -5    1    3    3    0  502 -0.28731937287E+02  0.19486936668E+02 -0.21010435044E+03  0.21299430836E+03  0.41800000000E+01 0.  1.
        -11    1    1    2    0    0 -0.30533562420E+02 -0.10812460608E+01  0.25848875204E+01  0.30661852042E+02  0.00000000000E+00 0.  1.
         11    1    1    2    0    0 -0.22348964576E+02 -0.72403305185E+02 -0.12678767919E+03  0.14770521458E+03  0.00000000000E+00 0. -1.
</event>
<event>
 7    1  0.2626349E-009  0.1334460E+03  0.7561462E-02  0.1222430E+00
          1   -1    0    0  501    0  0.00000000000E+00  0.00000000000E+00  0.22795071109E+03  0.22795071109E+03  0.00000000000E+00 0. -1.
         -1   -1    0    0    0  501 -0.00000000000E+00 -0.00000000000E+00 -0.15129671457E+03  0.15129671457E+03  0.00000000000E+00 0.  1.
         25    2    1    2    0    0 -0.12614683921E+03  0.14354959226E+02 -0.38740837930E+02  0.18239350993E+03  0.12508976793E+03 0.  0.
          5    1    3    3  502    0 -0.21038934008E+02 -0.12464647281E+02 -0.65964820169E+02  0.70475769424E+02  0.41800000000E+01 0. -1.
         -5    1    3    3    0  502 -0.10510790521E+03  0.26819606507E+02  0.27223982239E+02  0.11191774050E+03  0.41800000000E+01 0. -1.
        -11    1    1    2    0    0  0.45227226043E+02  0.14689323055E+02  0.98298383650E+02  0.10919638463E+03  0.00000000000E+00 0.  1.
         11    1    1    2    0    0  0.80919613171E+02 -0.29044282280E+02  0.17096450805E+02  0.87657531103E+02  0.00000000000E+00 0. -1.
</event>
<event>
 7    1  0.2626349E-009  0.1245425E+03  0.7561462E-02  0.1235786E+00
         -2   -1    0    0    0  501 -0.00000000000E+00  0.00000000000E+00  0.14232154279E+02  0.14232154279E+02  0.00000000000E+00 0.  1.
          2   -1    0    0  501    0  0.00000000000E+00 -0.00000000000E+00 -0.15143863888E+04  0.15143863888E+04  0.00000000000E+00 0. -1.
         25    2    1    2    0    0  0.60415429794E+02  0.62208985178E+02 -0.10625023271E+04  0.10733482627E+04  0.12508123726E+03 0.  0.
          5    1    3    3  502    0  0.56315625690E+02  0.84688911949E+02 -0.10186503335E+04  0.10237234177E+04  0.41800000000E+01 0.  1.
         -5    1    3    3    0  502  0.40998041033E+01 -0.22479926771E+02 -0.43851993560E+02  0.49624844993E+02  0.41800000000E+01 0.  1.
        -11    1    1    2    0    0 -0.36656195164E+02  0.17695208729E+02 -0.17666081854E+03  0.18128938707E+03  0.00000000000E+00 0.  1.
         11    1    1    2    0    0 -0.23759234629E+02 -0.79904193906E+02 -0.26099108887E+03  0.27398089332E+03  0.00000000000E+00 0. -1.
</event>
<event>
 7    1  0.2626349E-009  0.1525241E+03  0.7561462E-02  0.1197405E+00
          3   -1    0    0  501    0  0.00000000000E+00  0.00000000000E+00  0.85504561437E+02  0.85504561437E+02  0.00000000000E+00 0. -1.
         -3   -1    0    0    0  501 -0.00000000000E+00 -0.00000000000E+00 -0.50522681615E+03  0.50522681615E+03  0.00000000000E+00 0.  1.
         25    2    1    2    0    0 -0.10564716365E+03 -0.55687079607E+02 -0.40419144625E+03  0.43963669844E+03  0.12508927760E+03 0.  0.
          5    1    3    3  502    0  0.24008019481E+02 -0.11849165572E+02 -0.13418807036E+03  0.13689667034E+03  0.41800000000E+01 0. -1.
         -5    1    3    3    0  502 -0.12965518314E+03 -0.43837914035E+02 -0.27000337589E+03  0.30274002810E+03  0.41800000000E+01 0. -1.
        -11    1    1    2    0    0 -0.11772396840E+02  0.82811271124E+01 -0.19700094113E+02  0.24397952817E+02  0.00000000000E+00 0.  1.
         11    1    1    2    0    0  0.11741956049E+03  0.47405952495E+02  0.41692856548E+01  0.12669672632E+03  0.00000000000E+00 0. -1.
</event>
<event>
 7    1  0.2626349E-009  0.1136028E+03  0.7561462E-02  0.1254040E+00
         -2   -1    0    0    0  501 -0.00000000000E+00  0.00000000000E+00  0.53023078842E+02  0.53023078842E+02  0.00000000000E+00 0.  1.
          2   -1    0    0  501    0  0.00000000000E+00 -0.00000000000E+00 -0.36929900769E+03  0.36929900769E+03  0.00000000000E+00 0. -1.
         25    2    1    2    0    0 -0.15583823201E+02  0.77492845297E+02 -0.22742904750E+03  0.27132976797E+03  0.12509146542E+03 0.  0.
          5    1    3    3  502    0  0.54342685740E+02  0.23508371961E+02 -0.97883230874E+02  0.11447432171E+03  0.41800000000E+01 0.  1.
         -5    1    3    3    0  502 -0.69926508941E+02  0.53984473335E+02 -0.12954581662E+03  0.15685544625E+03  0.41800000000E+01 0.  1.
        -11    1    1    2    0    0  0.48805192293E+01 -0.43460532742E+02  0.10888046410E+02  0.45068691225E+02  0.00000000000E+00 0.  1.
         11    1    1    2    0    0  0.10703303971E+02 -0.34032312555E+02 -0.99734927765E+02  0.10592362735E+03  0.00000000000E+00 0. -1.
</event>
<event>
 7    1  0.2626349E-009  0.1381793E+03  0.7561462E-02  0.1215800E+00
         -2   -1    0    0    0  501 -0.00000000000E+00  0.00000000000E+00  0.34788364461E+02  0.34788364461E+02  0.00000000000E+00 0.  1.
          2   -1    0    0  501    0  0.00000000000E+00 -0.00000000000E+00 -0.89558436901E+03  0.89558436901E+03  0.00000000000E+00 0. -1.
         25    2    1    2    0    0 -0.75990848185E+02 -0.56205746641E+02 -0.72955034559E+03  0.74620711097E+03  0.12509057015E+03 0.  0.
          5    1    3    3  502    0 -0.10437087605E+03 -0.16122831220E+02 -0.44185309494E+03  0.45431801127E+03  0.41800000000E+01 0.  1.
         -5    1    3    3    0  502  0.28380027866E+02 -0.40082915421E+02 -0.28769725065E+03  0.29188909969E+03  0.41800000000E+01 0.  1.
        -11    1    1    2    0    0  0.82592106695E+02  0.20543439822E+02 -0.11813607817E+03  0.14560089963E+03  0.00000000000E+00 0.  1.
         11    1    1    2    0    0 -0.66012585107E+01  0.35662306819E+02 -0.13109580780E+02  0.38564722867E+02  0.00000000000E+00 0. -1.
</event>
<event>
 7    1  0.2626349E-009  0.1292975E+03  0.7561462E-02  0.1228502E+00
         -1   -1    0    0    0  501 -0.00000000000E+00  0.00000000000E+00  0.51539012241E+02  0.51539012241E+02  0.00000000000E+00 0.  1.
          1   -1    0    0  501    0  0.00000000000E+00 -0.00000000000E+00 -0.51806174786E+03  0.51806174786E+03  0.00000000000E+00 0. -1.
         25    2    1    2    0    0  0.80360281490E+02 -0.92680334443E+02 -0.20411801829E+03  0.26899727984E+03  0.12509177405E+03 0.  0.
          5    1    3    3  502    0  0.84439033662E+02 -0.88869526509E+02 -0.21987049096E+03  0.25177022926E+03  0.41800000000E+01 0.  1.
         -5    1    3    3    0  502 -0.40787521720E+01 -0.38108079340E+01  0.15752472668E+02  0.17227050576E+02  0.41800000000E+01 0.  1.
        -11    1    1    2    0    0 -0.83414543801E+02  0.78797419379E+02 -0.26239548083E+03  0.28638856084E+03  0.00000000000E+00 0. -1.
         11    1    1    2    0    0  0.30542623116E+01  0.13882915064E+02 -0.92364950025E-02  0.14214919425E+02  0.00000000000E+00 0.  1.
</event>
<event>
 7    1  0.2626349E-009  0.3282975E+03  0.7561462E-02  0.1071893E+00
          1   -1    0    0  501    0  0.00000000000E+00  0.00000000000E+00  0.79493229378E+03  0.79493229378E+03  0.00000000000E+00 0. -1.
         -1   -1    0    0    0  501 -0.00000000000E+00 -0.00000000000E+00 -0.14023484786E+03  0.14023484786E+03  0.00000000000E+00 0.  1.
         25    2    1    2    0    0 -0.29992148824E+03 -0.10128516016E+03  0.32760285638E+03  0.47242241822E+03  0.12509087475E+03 0.  0.
          5    1    3    3  502    0 -0.22487835327E+03 -0.12784143000E+03  0.27096059685E+03  0.37463425156E+03  0.41800000000E+01 0.  1.
         -5    1    3    3    0  502 -0.75043134966E+02  0.26556269839E+02  0.56642259536E+02  0.97788166660E+02  0.41800000000E+01 0.  1.
        -11    1    1    2    0    0  0.53434786095E+02  0.54596806103E+01  0.19618439362E+02  0.57183630878E+02  0.00000000000E+00 0.  1.
         11    1    1    2    0    0  0.24648670215E+03  0.95825479551E+02  0.30747615018E+03  0.40556109255E+03  0.00000000000E+00 0. -1.
</event>
<event>
 7    1  0.2626349E-009  0.1802875E+03  0.7561462E-02  0.1167525E+00
         -2   -1    0    0    0  501 -0.00000000000E+00  0.00000000000E+00  0.56416210737E+02  0.56416210737E+02  0.00000000000E+00 0.  1.
          2   -1    0    0  501    0  0.00000000000E+00 -0.00000000000E+00 -0.64297053170E+03  0.64297053170E+03  0.00000000000E+00 0. -1.
         25    2    1    2    0    0 -0.60971671604E+02 -0.14064736214E+03 -0.36126067641E+03  0.41189320980E+03  0.12509002656E+03 0.  0.
          5    1    3    3  502    0 -0.97288069053E+02 -0.11699915364E+03 -0.25381731809E+03  0.29596363576E+03  0.41800000000E+01 0. -1.
         -5    1    3    3    0  502  0.36316397449E+02 -0.23648208495E+02 -0.10744335832E+03  0.11592957403E+03  0.41800000000E+01 0. -1.
        -11    1    1    2    0    0  0.60358515465E+02  0.63295581265E+02 -0.17380413187E+03  0.19456967197E+03  0.00000000000E+00 0. -1.
         11    1    1    2    0    0  0.61315613875E+00  0.77351780872E+02 -0.51489512687E+02  0.92923860667E+02  0.00000000000E+00 0.  1.
</event>
<event>
 7    1  0.2626349E-009  0.1121983E+03  0.7561462E-02  0.1256552E+00
          2   -1    0    0  501    0  0.00000000000E+00  0.00000000000E+00  0.33780290003E+02  0.33780290003E+02  0.00000000000E+00 0. -1.
         -2   -1    0    0    0  501 -0.00000000000E+00 -0.00000000000E+00 -0.43486793653E+03  0.43486793653E+03  0.00000000000E+00 0.  1.
         25    2    1    2    0    0  0.41712804476E+02 -0.15855762023E+02 -0.29527583942E+03  0.32376935726E+03  0.12508961631E+03 0.  0.
          5    1    3    3  502    0 -0.44803524977E+02 -0.37484310680E+01 -0.10905086054E+03  0.11802952669E+03  0.41800000000E+01 0.  1.
         -5    1    3    3    0  502  0.86516329453E+02 -0.12107330955E+02 -0.18622497887E+03  0.20573983056E+03  0.41800000000E+01 0.  1.
        -11    1    1    2    0    0  0.15283626736E+02  0.29457528703E+02 -0.14126186524E+02  0.36067774941E+02  0.00000000000E+00 0. -1.
         11    1    1    2    0    0 -0.56996431212E+02 -0.13601766679E+02 -0.91685620590E+02  0.10881109434E+03  0.00000000000E+00 0.  1.
</event>
<event>
 7    1  0.2626349E-009  0.1272791E+03  0.7561462E-02  0.1231550E+00
          4   -1    0    0  501    0  0.00000000000E+00  0.00000000000E+00  0.35620960547E+02  0.35620960547E+02  0.00000000000E+00 0. -1.
         -4   -1    0    0    0  501 -0.00000000000E+00 -0.00000000000E+00 -0.51935406438E+03  0.51935406438E+03  0.00000000000E+00 0.  1.
         25    2    1    2    0    0 -0.72920489966E+01 -0.75884830866E+02 -0.33697681254E+03  0.36744185943E+03  0.12509383014E+03 0.  0.
          5    1    3    3  502    0  0.47124238655E+02 -0.74376006592E+02 -0.24628346174E+03  0.26158268321E+03  0.41800000000E+01 0. -1.
         -5    1    3    3    0  502 -0.54416287652E+02 -0.15088242742E+01 -0.90693350799E+02  0.10585917623E+03  0.41800000000E+01 0. -1.
        -11    1    1    2    0    0 -0.37157906941E+02  0.40805175581E+02 -0.45529922660E+02  0.71545413968E+02  0.00000000000E+00 0. -1.
         11    1    1    2    0    0  0.44449955937E+02  0.35079655285E+02 -0.10122636864E+03  0.11598775153E+03  0.00000000000E+00 0.  1.
</event>
<event>
 7    1  0.2626349E-009  0.1859960E+03  0.7561462E-02  0.1162123E+00
         -1   -1    0    0    0  501 -0.00000000000E+00  0.00000000000E+00  0.47637127907E+02  0.47637127907E+02  0.00000000000E+00 0.  1.
          1   -1    0    0  501    0  0.00000000000E+00 -0.00000000000E+00 -0.83663734792E+03  0.83663734792E+03  0.00000000000E+00 0. -1.
         25    2    1    2    0    0 -0.10182828778E+03  0.13221585119E+03 -0.37568990172E+03  0.42970101299E+03  0.12510006721E+03 0.  0.
          5    1    3    3  502    0 -0.10401249380E+03  0.46987722131E+02 -0.27453545440E+03  0.29734430046E+03  0.41800000000E+01 0.  1.
         -5    1    3    3    0  502  0.21842060149E+01  0.85228129060E+02 -0.10115444732E+03  0.13235671253E+03  0.41800000000E+01 0.  1.
        -11    1    1    2    0    0  0.13071227997E+02 -0.49154502523E+02 -0.22319441368E+03  0.22891650971E+03  0.00000000000E+00 0.  1.
         11    1    1    2    0    0  0.88757059788E+02 -0.83061348668E+02 -0.19011590461E+03  0.22565695312E+03  0.00000000000E+00 0. -1.
</event>
<event>
 7    1  0.2626349E-009  0.1239074E+03  0.7561462E-02  0.1236787E+00
          2   -1    0    0  501    0  0.00000000000E+00  0.00000000000E+00  0.84162400656E+03  0.84162400656E+03  0.00000000000E+00 0. -1.
         -2   -1    0    0    0  501 -0.00000000000E+00 -0.00000000000E+00 -0.19854673672E+02  0.19854673672E+02  0.00000000000E+00 0.  1.
         25    2    1    2    0    0 -0.54939270948E+02  0.41098535001E+02  0.40947727917E+03  0.43361852987E+03  0.12508386872E+03 0.  0.
          5    1    3    3  502    0  0.24593070040E+02  0.47427963288E+02  0.24463797560E+03  0.25043850004E+03  0.41800000000E+01 0.  1.
         -5    1    3    3    0  502 -0.79532340988E+02 -0.63294282875E+01  0.16483930357E+03  0.18318002983E+03  0.41800000000E+01 0.  1.
        -11    1    1    2    0    0 -0.23781855919E+02 -0.23978918195E+02  0.12649003464E+03  0.13092094581E+03  0.00000000000E+00 0. -1.
         11    1    1    2    0    0  0.78721126866E+02 -0.17119616805E+02  0.28580201908E+03  0.29693920456E+03  0.00000000000E+00 0.  1.
</event>
<event>
 7    1  0.2626349E-009  0.1079891E+03  0.7561462E-02  0.1264340E+00
         -2   -1    0    0    0  501 -0.00000000000E+00  0.00000000000E+00  0.94904180696E+02  0.94904180696E+02  0.00000000000E+00 0.  1.
          2   -1    0    0  501    0  0.00000000000E+00 -0.00000000000E+00 -0.15040160452E+03  0.15040160452E+03  0.00000000000E+00 0. -1.
         25    2    1    2    0    0 -0.46559622207E+02 -0.29354361082E+02 -0.48171865245E+02  0.14491079943E+03  0.12509649977E+03 0.  0.
          5    1    3    3  502    0  0.18026522962E+02 -0.46284919748E+02  0.15857146139E+02  0.52308420066E+02  0.41800000000E+01 0.  1.
         -5    1    3    3    0  502 -0.64586145169E+02  0.16930558666E+02 -0.64029011384E+02  0.92602379361E+02  0.41800000000E+01 0.  1.
        -11    1    1    2    0    0  0.31474312984E+02 -0.26643921752E+02 -0.96584722067E+01  0.42353477183E+02  0.00000000000E+00 0. -1.
         11    1    1    2    0    0  0.15085309223E+02  0.55998282834E+02  0.23329136314E+01  0.58041508601E+02  0.00000000000E+00 0.  1.
</event>
<event>
 7    1  0.2626349E-009  0.9274213E+02  0.7561462E-02  0.1296344E+00
          1   -1    0    0  501    0  0.00000000000E+00  0.00000000000E+00  0.50729075163E+03  0.50729075163E+03  0.00000000000E+00 0. -1.
         -1   -1    0    0    0  501 -0.00000000000E+00 -0.00000000000E+00 -0.25615881602E+02  0.25615881602E+02  0.00000000000E+00 0.  1.
         25    2    1    2    0    0 -0.19646369404E+02  0.28442241955E+02  0.27314263892E+03  0.30240655346E+03  0.12509149220E+03 0.  0.
          5    1    3    3  502    0  0.26935045304E+02 -0.22197963726E+02  0.19526250448E+03  0.19840152297E+03  0.41800000000E+01 0.  1.
         -5    1    3    3    0  502 -0.46581414707E+02  0.50640205680E+02  0.77880134438E+02  0.10400503049E+03  0.41800000000E+01 0.  1.
        -11    1    1    2    0    0  0.31658894647E+02  0.15921763653E+02  0.30896794475E+02  0.47014892076E+02  0.00000000000E+00 0.  1.
         11    1    1    2    0    0 -0.12012525243E+02 -0.44364005608E+02  0.17763543663E+03  0.18348518770E+03  0.00000000000E+00 0. -1.
</event>
<event>
 7    1  0.2626349E-009  0.2993535E+03  0.7561462E-02  0.1085564E+00
         -1   -1    0    0    0  501 -0.00000000000E+00  0.00000000000E+00  0.10672433687E+03  0.10672433687E+03  0.00000000000E+00 0.  1.
          1   -1    0    0  501    0  0.00000000000E+00 -0.00000000000E+00 -0.95707236124E+03  0.95707236124E+03  0.00000000000E+00 0. -1.
         25    2    1    2    0    0 -0.23929641721E+03 -0.14895262484E+03 -0.60295418881E+03  0.67723784900E+03  0.12509072938E+03 0.  0.
          5    1    3    3  502    0  0.10886701918E+02 -0.18415513694E+01 -0.64119648797E+02  0.65197494982E+02  0.41800000000E+01 0.  1.
         -5    1    3    3    0  502 -0.25018311913E+03 -0.14711107347E+03 -0.53883454001E+03  0.61204035402E+03  0.41800000000E+01 0.  1.
        -11    1    1    2    0    0  0.86309306700E+01  0.41118399663E+02 -0.28407063472E+02  0.50716634452E+02  0.00000000000E+00 0.  1.
         11    1    1    2    0    0  0.23066548654E+03  0.10783422518E+03 -0.21898677208E+03  0.33584221466E+03  0.00000000000E+00 0. -1.
</event>
<event>
 7    1  0.2626349E-009  0.1274428E+03  0.7561462E-02  0.1231300E+00
          4   -1    0    0  501    0  0.00000000000E+00  0.00000000000E+00  0.17089707658E+03  0.17089707658E+03  0.00000000000E+00 0. -1.
         -4   -1    0    0    0  501 -0.00000000000E+00 -0.00000000000E+00 -0.10973829976E+03  0.10973829976E+03  0.00000000000E+00 0.  1.
         25    2    1    2    0    0 -0.10578448614E+02  0.74952908928E+02  0.68543247594E+02  0.16148664833E+03  0.12509963496E+03 0.  0.
          5    1    3    3  502    0  0.32774707156E+02  0.88643450589E+02  0.23770865999E+02  0.97541628200E+02  0.41800000000E+01 0.  1.
         -5    1    3    3    0  502 -0.43353155770E+02 -0.13690541661E+02  0.44772381594E+02  0.63945020133E+02  0.41800000000E+01 0.  1.
        -11    1    1    2    0    0 -0.37119273325E+02 -0.44886521829E+02  0.12107410830E+02  0.59491425357E+02  0.00000000000E+00 0. -1.
         11    1    1    2    0    0  0.47697721939E+02 -0.30066387100E+02 -0.19491881596E+02  0.59657302651E+02  0.00000000000E+00 0.  1.
</event>
<event>
 7    1  0.2626349E-009  0.1078571E+03  0.7561462E-02  0.1264591E+00
          2   -1    0    0  501    0  0.00000000000E+00  0.00000000000E+00  0.31203550569E+02  0.31203550569E+02  0.00000000000E+00 0. -1.
         -2   -1    0    0    0  501 -0.00000000000E+00 -0.00000000000E+00 -0.52407339766E+03  0.52407339766E+03  0.00000000000E+00 0.  1.
         25    2    1    2    0    0 -0.26352489963E+02  0.16582759881E+02 -0.40788042653E+03  0.42776505882E+03  0.12508821507E+03 0.  0.
          5    1    3    3  502    0  0.27535454378E+02 -0.40981968236E+02 -0.14130904470E+03  0.14974458749E+03  0.41800000000E+01 0.  1.
         -5    1    3    3    0  502 -0.53887944341E+02  0.57564728117E+02 -0.26657138183E+03  0.27802047133E+03  0.41800000000E+01 0.  1.
        -11    1    1    2    0    0  0.35878899688E+02 -0.44813548429E+02 -0.78103989445E+02  0.96931845814E+02  0.00000000000E+00 0.  1.
         11    1    1    2    0    0 -0.95264097250E+01  0.28230788548E+02 -0.68854311094E+01  0.30580043588E+02  0.00000000000E+00 0. -1.
</event>
<event>
 7    1  0.2626349E-009  0.1009654E+03  0.7561462E-02  0.1278279E+00
          2   -1    0    0  501    0  0.00000000000E+00  0.00000000000E+00  0.19654631984E+03  0.19654631984E+03  0.00000000000E+00 0. -1.
         -2   -1    0    0    0  501 -0.00000000000E+00 -0.00000000000E+00 -0.92536525665E+02  0.92536525665E+02  0.00000000000E+00 0.  1.
         25    2    1    2    0    0 -0.96437652447E+01 -0.42006453335E+02  0.13000105010E+03  0.18548768106E+03  0.12509141644E+03 0.  0.
          5    1    3    3  502    0 -0.55861537223E+02 -0.36757125859E+02  0.12043231950E+03  0.13781514294E+03  0.41800000000E+01 0.  1.
         -5    1    3    3    0  502  0.46217771979E+02 -0.52493274762E+01  0.95687306000E+01  0.47672538121E+02  0.41800000000E+01 0.  1.
        -11    1    1    2    0    0  0.98297934381E+01  0.64745805174E+02  0.44030888090E+01  0.65635594899E+02  0.00000000000E+00 0. -1.
         11    1    1    2    0    0 -0.18602819344E+00 -0.22739351839E+02 -0.30394344734E+02  0.37959569549E+02  0.00000000000E+00 0.  1.
</event>
<event>
 7    1  0.2626349E-009  0.1020330E+03  0.7561462E-02  0.1276078E+00
         -1   -1    0    0    0  501 -0.00000000000E+00  0.00000000000E+00  0.68347505570E+02  0.68347505570E+02  0.00000000000E+00 0.  1.
          1   -1    0    0  501    0  0.00000000000E+00 -0.00000000000E+00 -0.23015867867E+03  0.23015867867E+03  0.00000000000E+00 0. -1.
         25    2    1    2    0    0  0.40715206841E+02  0.26209328983E+01 -0.14635085589E+03  0.19679933871E+03  0.12508720694E+03 0.  0.
          5    1    3    3  502    0 -0.36083491049E+02  0.35819125419E+01 -0.10126191453E+03  0.10763965886E+03  0.41800000000E+01 0.  1.
         -5    1    3    3    0  502  0.76798697890E+02 -0.96097964359E+00 -0.45088941354E+02  0.89159679855E+02  0.41800000000E+01 0.  1.
        -11    1    1    2    0    0 -0.11448892940E+02  0.38504611711E+02 -0.28883317745E+02  0.49476543094E+02  0.00000000000E+00 0.  1.
         11    1    1    2    0    0 -0.29266313901E+02 -0.41125544609E+02  0.13423000534E+02  0.52230302432E+02  0.00000000000E+00 0. -1.
</event>
<event>
 7    1  0.2626349E-009  0.8875292E+02  0.7561462E-02  0.1305900E+00
         -1   -1    0    0    0  501 -0.00000000000E+00  0.00000000000E+00  0.98593045524E+02  0.98593045524E+02  0.00000000000E+00 0.  1.
          1   -1    0    0  501    0  0.00000000000E+00 -0.00000000000E+00 -0.13902111471E+03  0.13902111471E+03  0.00000000000E+00 0. -1.
         25    2    1    2    0    0 -0.20534850988E+02  0.19111166763E+02 -0.44766234407E+02  0.13578250913E+03  0.12508380088E+03 0.  0.
          5    1    3    3  502    0 -0.33418761834E+01  0.46494191147E+02  0.29052163766E+02  0.55085193712E+02  0.41800000000E+01 0. -1.
         -5    1    3    3    0  502 -0.17192974805E+02 -0.27383024383E+02 -0.73818398172E+02  0.80697315419E+02  0.41800000000E+01 0. -1.
        -11    1    1    2    0    0 -0.36717460034E+02 -0.17873852528E+02 -0.11483122499E+02  0.42420615010E+02  0.00000000000E+00 0.  1.
         11    1    1    2    0    0  0.57252311022E+02 -0.12373142357E+01  0.15821287725E+02  0.59411036089E+02  0.00000000000E+00 0. -1.
</event>
<event>
 7    1  0.2626349E-009  0.1943539E+03  0.7561462E-02  0.1154592E+00
         -1   -1    0    0    0  501 -0.00000000000E+00  0.00000000000E+00  0.54003196063E+02  0.54003196063E+02  0.00000000000E+00 0.  1.
          1   -1    0    0  501    0  0.00000000000E+00 -0.00000000000E+00 -0.90897419741E+03  0.90897419741E+03  0.00000000000E+00 0. -1.
         25    2    1    2    0    0  0.16431416011E+02 -0.18016307328E+03 -0.60045995580E+03  0.63947527689E+03  0.12509095421E+03 0.  0.
          5    1    3    3  502    0 -0.26696171755E+02 -0.68115080874E+02 -0.95239671457E+02  0.12016828720E+03  0.41800000000E+01 0.  1.
         -5    1    3    3    0  502  0.43127587766E+02 -0.11204799240E+03 -0.50522028434E+03  0.51930698969E+03  0.41800000000E+01 0.  1.
        -11    1    1    2    0    0  0.13056325679E+02  0.15766422929E+03 -0.17588818671E+03  0.23656950577E+03  0.00000000000E+00 0.  1.
         11    1    1    2    0    0 -0.29487741690E+02  0.22498843982E+02 -0.78622858841E+02  0.86932610813E+02  0.00000000000E+00 0. -1.
</event>
<event>
 7    1  0.2626349E-009  0.1252251E+03  0.7561462E-02  0.1234718E+00
          1   -1    0    0  501    0  0.00000000000E+00  0.00000000000E+00  0.71217534289E+03  0.71217534289E+03  0.00000000000E+00 0. -1.
         -1   -1    0    0    0  501 -0.00000000000E+00 -0.00000000000E+00 -0.24414303822E+02  0.24414303822E+02  0.00000000000E+00 0.  1.
         25    2    1    2    0    0 -0.50753882897E+02 -0.45337358204E+02  0.46982276792E+03  0.49093036034E+03  0.12509097796E+03 0.  0.
          5    1    3    3  502    0  0.39894402446E+02 -0.24278829685E+02  0.20194938183E+03  0.20732112805E+03  0.41800000000E+01 0. -1.
         -5    1    3    3    0  502 -0.90648285343E+02 -0.21058528519E+02  0.26787338609E+03  0.28360923228E+03  0.41800000000E+01 0. -1.
        -11    1    1    2    0    0  0.22923771868E+02 -0.25505230439E+02  0.43910005218E+02  0.55714492321E+02  0.00000000000E+00 0. -1.
         11    1    1    2    0    0  0.27830111029E+02  0.70842588643E+02  0.17402826593E+03  0.18994479406E+03  0.00000000000E+00 0.  1.
</event>
<event>
 7    1  0.2626349E-009  0.2651381E+03  0.7561462E-02  0.1104095E+00
         -1   -1    0    0    0  501 -0.00000000000E+00  0.00000000000E+00  0.30418294051E+02  0.30418294051E+02  0.00000000000E+00 0.  1.
          1   -1    0    0  501    0  0.00000000000E+00 -0.00000000000E+00 -0.25108318695E+04  0.25108318695E+04  0.00000000000E+00 0. -1.
         25    2    1    2    0    0 -0.20655263641E+03  0.14173181845E+03 -0.14641724010E+04  0.14907043775E+04  0.12508725474E+03 0.  0.
          5    1    3    3  502    0 -0.55151056315E+02 -0.15462881829E+02 -0.42417400985E+03  0.42804415983E+03  0.41800000000E+01 0. -1.
         -5    1    3    3    0  502 -0.15140158009E+03  0.15719470028E+03 -0.10399983911E+04  0.10626602177E+04  0.41800000000E+01 0. -1.
        -11    1    1    2    0    0  0.11901569874E+03 -0.54238182003E+02 -0.36690820477E+03  0.38952297450E+03  0.00000000000E+00 0.  1.
         11    1    1    2    0    0  0.87536937667E+02 -0.87493636445E+02 -0.64933296965E+03  0.66102281152E+03  0.00000000000E+00 0. -1.
</event>
<event>
 7    1  0.2626349E-009  0.1320810E+03  0.7561462E-02  0.1224400E+00
          3   -1    0    0  501    0  0.00000000000E+00  0.00000000000E+00  0.68009289984E+02  0.68009289984E+02  0.00000000000E+00 0. -1.
         -3   -1    0    0    0  501 -0.00000000000E+00 -0.00000000000E+00 -0.51405332512E+03  0.51405332512E+03  0.00000000000E+00 0.  1.
         25    2    1    2    0    0 -0.88543109800E+02 -0.40333722182E+02 -0.53078193381E+02  0.16712682469E+03  0.12508952586E+03 0.  0.
          5    1    3    3  502    0  0.13340528071E+02  0.10938215751E+02 -0.49884101405E+02  0.52948184350E+02  0.41800000000E+01 0. -1.
         -5    1    3    3    0  502 -0.10188363787E+03 -0.51271937933E+02 -0.31940919757E+01  0.11417864033E+03  0.41800000000E+01 0. -1.
        -11    1    1    2    0    0  0.85949754976E+02 -0.57301608987E+01 -0.27865097265E+03  0.29166172132E+03  0.00000000000E+00 0.  1.
         11    1    1    2    0    0  0.25933548235E+01  0.46063883081E+02 -0.11431486911E+03  0.12327406910E+03  0.00000000000E+00 0. -1.
</event>
<event>
 7    1  0.2626349E-009  0.1302970E+03  0.7561462E-02  0.1227016E+00
          1   -1    0    0  501    0  0.00000000000E+00  0.00000000000E+00  0.13497854028E+03  0.13497854028E+03  0.00000000000E+00 0. -1.
         -1   -1    0    0    0  501 -0.00000000000E+00 -0.00000000000E+00 -0.18594988888E+03  0.18594988888E+03  0.00000000000E+00 0.  1.
         25    2    1    2    0    0  0.22511129286E+02  0.98366430083E+02  0.11140337062E+02  0.16110084204E+03  0.12508664472E+03 0.  0.
          5    1    3    3  502    0 -0.32527786877E+02  0.39326348793E+02  0.49868897937E+02  0.71477255194E+02  0.41800000000E+01 0.  1.
         -5    1    3    3    0  502  0.55038916164E+02  0.59040081290E+02 -0.38728560875E+02  0.89623586844E+02  0.41800000000E+01 0.  1.
        -11    1    1    2    0    0  0.16377528236E+02  0.58005104961E+01 -0.43826413286E+02  0.47144711842E+02  0.00000000000E+00 0.  1.
         11    1    1    2    0    0 -0.38888657523E+02 -0.10416694058E+03 -0.18285272376E+02  0.11268287527E+03  0.00000000000E+00 0. -1.
</event>
<event>
 7    1  0.2626349E-009  0.1717994E+03  0.7561462E-02  0.1175984E+00
          2   -1    0    0  501    0  0.00000000000E+00  0.00000000000E+00  0.23314132867E+03  0.23314132867E+03  0.00000000000E+00 0. -1.
         -2   -1    0    0    0  501 -0.00000000000E+00 -0.00000000000E+00 -0.14923516864E+03  0.14923516864E+03  0.00000000000E+00 0.  1.
         25    2    1    2    0    0 -0.37915972740E+02 -0.14417876455E+03  0.16307064397E+02  0.19528540233E+03  0.12508129708E+03 0.  0.
          5    1    3    3  502    0 -0.75349052383E+02 -0.53519064435E+02  0.27398908870E+02  0.96488043613E+02  0.41800000000E+01 0. -1.
         -5    1    3    3    0  502  0.37433079643E+02 -0.90659700113E+02 -0.11091844474E+02  0.98797358719E+02  0.41800000000E+01 0. -1.
        -11    1    1    2    0    0  0.43994268527E+02  0.11552191992E+03  0.87698295301E+02  0.15156450984E+03  0.00000000000E+00 0. -1.
         11    1    1    2    0    0 -0.60782957874E+01  0.28656844629E+02 -0.20099199671E+02  0.35526585133E+02  0.00000000000E+00 0.  1.
</event>
<event>
 7    1  0.2626349E-009  0.2116396E+03  0.7561462E-02  0.1140274E+00
          1   -1    0    0  501    0  0.00000000000E+00  0.00000000000E+00  0.10932105343E+03  0.10932105343E+03  0.00000000000E+00 0. -1.
         -1   -1    0    0    0  501 -0.00000000000E+00 -0.00000000000E+00 -0.41941456025E+03  0.41941456025E+03  0.00000000000E+00 0.  1.
         25    2    1    2    0    0 -0.10344047747E+03 -0.14971814750E+03 -0.13040622291E+03  0.25645772447E+03  0.12509726375E+03 0.  0.
          5    1    3    3  502    0 -0.12751214625E+03 -0.14635267010E+03 -0.12585914678E+03  0.23137944748E+03  0.41800000000E+01 0. -1.
         -5    1    3    3    0  502  0.24071668776E+02 -0.33654773987E+01 -0.45470761364E+01  0.25078276998E+02  0.41800000000E+01 0. -1.
        -11    1    1    2    0    0  0.87224145309E+02  0.44346712846E+02 -0.81642047966E+02  0.12743667628E+03  0.00000000000E+00 0.  1.
         11    1    1    2    0    0  0.16216332165E+02  0.10537143465E+03 -0.98045235939E+02  0.14484121292E+03  0.00000000000E+00 0. -1.
</event>
<event>
 7    1  0.2626349E-009  0.1339452E+03  0.7561462E-02  0.1221716E+00
         -2   -1    0    0    0  501 -0.00000000000E+00  0.00000000000E+00  0.11001303377E+02  0.11001303377E+02  0.00000000000E+00 0.  1.
          2   -1    0    0  501    0  0.00000000000E+00 -0.00000000000E+00 -0.23952703443E+04  0.23952703443E+04  0.00000000000E+00 0. -1.
         25    2    1    2    0    0  0.72143232598E+02  0.61673946521E+02 -0.18306719147E+04  0.18373934321E+04  0.12508654390E+03 0.  0.
          5    1    3    3  502    0  0.92210175714E+02  0.25670878374E+02 -0.77363213639E+03  0.77954208697E+03  0.41800000000E+01 0.  1.
         -5    1    3    3    0  502 -0.20066943116E+02  0.36003068147E+02 -0.10570397783E+04  0.10578513452E+04  0.41800000000E+01 0.  1.
        -11    1    1    2    0    0 -0.56175333588E+02 -0.85300708316E+02 -0.44832277184E+03  0.45980994627E+03  0.00000000000E+00 0.  1.
         11    1    1    2    0    0 -0.15967899010E+02  0.23626761796E+02 -0.10527435439E+03  0.10906826928E+03  0.00000000000E+00 0. -1.
</event>
<event>
 7    1  0.2626349E-009  0.1100875E+03  0.7561462E-02  0.1260408E+00
         -2   -1    0    0    0  501 -0.00000000000E+00  0.00000000000E+00  0.33621992403E+03  0.33621992403E+03  0.00000000000E+00 0.  1.
          2   -1    0    0  501    0  0.00000000000E+00 -0.00000000000E+00 -0.78758562864E+02  0.78758562864E+02  0.00000000000E+00 0. -1.
         25    2    1    2    0    0 -0.54262986348E+02 -0.89496470196E+02  0.21050808689E+03  0.26629869129E+03  0.12508896223E+03 0.  0.
          5    1    3    3  502    0 -0.16196331980E+02 -0.14176904340E+02  0.17208578103E+03  0.17347707116E+03  0.41800000000E+01 0.  1.
         -5    1    3    3    0  502 -0.38066654367E+02 -0.75319565856E+02  0.38422305856E+02  0.92821620125E+02  0.41800000000E+01 0.  1.
        -11    1    1    2    0    0  0.76158300874E+01  0.55527596298E+02  0.67219062932E+02  0.87519810558E+02  0.00000000000E+00 0.  1.
         11    1    1    2    0    0  0.46647156260E+02  0.33968873898E+02 -0.20265788654E+02  0.61159985046E+02  0.00000000000E+00 0. -1.
</event>
<event>
 7    1  0.2626349E-009  0.1090002E+03  0.7561462E-02  0.1262433E+00
          2   -1    0    0  501    0  0.00000000000E+00  0.00000000000E+00  0.63881475485E+03  0.63881475485E+03  0.00000000000E+00 0. -1.
         -2   -1    0    0    0  501 -0.00000000000E+00 -0.00000000000E+00 -0.19511615210E+02  0.19511615210E+02  0.00000000000E+00 0.  1.
         25    2    1    2    0    0  0.27568845002E+02 -0.11184552131E+02  0.38153740430E+03  0.40262082606E+03  0.12509038043E+03 0.  0.
          5    1    3    3  502    0  0.75602903491E+02 -0.17902084272E+02  0.26850696196E+03  0.27955275827E+03  0.41800000000E+01 0. -1.
         -5    1    3    3    0  502 -0.48034058489E+02  0.67175321412E+01  0.11303044234E+03  0.12306806779E+03  0.41800000000E+01 0. -1.
        -11    1    1    2    0    0 -0.54017831120E+02 -0.13125267256E+02  0.11399514823E+03  0.12682701818E+03  0.00000000000E+00 0.  1.
         11    1    1    2    0    0  0.26448986118E+02  0.24309819387E+02  0.12377058710E+03  0.12887852582E+03  0.00000000000E+00 0. -1.
</event>
<event>
 7    1  0.2626349E-009  0.9939005E+02  0.7561462E-02  0.1281584E+00
         -1   -1    0    0    0  501 -0.00000000000E+00  0.00000000000E+00  0.45897201094E+02  0.45897201094E+02  0.00000000000E+00 0.  1.
          1   -1    0    0  501    0  0.00000000000E+00 -0.00000000000E+00 -0.28816478635E+03  0.28816478635E+03  0.00000000000E+00 0. -1.
         25    2    1    2    0    0 -0.39570532665E+02 -0.10138653771E+02 -0.14696547126E+03  0.19726776141E+03  0.12508837114E+03 0.  0.
          5    1    3    3  502    0 -0.28173408476E+02  0.47344490083E+02 -0.22545692373E+02  0.59674302098E+02  0.41800000000E+01 0. -1.
         -5    1    3    3    0  502 -0.11397124189E+02 -0.57483143854E+02 -0.12441977889E+03  0.13759345931E+03  0.41800000000E+01 0. -1.
        -11    1    1    2    0    0  0.47599734831E+02  0.34720848411E+02 -0.29082811303E+02  0.65704505048E+02  0.00000000000E+00 0.  1.
         11    1    1    2    0    0 -0.80292021659E+01 -0.24582194640E+02 -0.66219302692E+02  0.71089720985E+02  0.00000000000E+00 0. -1.
</event>
<event>
 7    1  0.2626349E-009  0.1192160E+03  0.7561462E-02  0.1244396E+00
         -2   -1    0    0    0  501 -0.00000000000E+00  0.00000000000E+00  0.31261550717E+02  0.31261550717E+02  0.00000000000E+00 0.  1.
          2   -1    0    0  501    0  0.00000000000E+00 -0.00000000000E+00 -0.55381495374E+03  0.55381495374E+03  0.00000000000E+00 0. -1.
         25    2    1    2    0    0 -0.80259320881E+02 -0.36562214310E+02 -0.36019937667E+03  0.39136993270E+03  0.12509388141E+03 0.  0.
          5    1    3    3  502    0 -0.14349582735E+02 -0.67556989671E+02 -0.10343997578E+03  0.12444741205E+03  0.41800000000E+01 0.  1.
         -5    1    3    3    0  502 -0.65909738146E+02  0.30994775361E+02 -0.25675940089E+03  0.26692252064E+03  0.41800000000E+01 0.  1.
        -11    1    1    2    0    0  0.37966510414E+02  0.38340181629E+02 -0.12894959357E+03  0.13978348658E+03  0.00000000000E+00 0. -1.
         11    1    1    2    0    0  0.42292810467E+02 -0.17779673189E+01 -0.33404432794E+02  0.53923085179E+02  0.00000000000E+00 0.  1.
</event>
<event>
 7    1  0.2626349E-009  0.2628160E+03  0.7561462E-02  0.1105463E+00
          1   -1    0    0  501    0  0.00000000000E+00  0.00000000000E+00  0.16414713587E+04  0.16414713587E+04  0.00000000000E+00 0. -1.
         -1   -1    0    0    0  501 -0.00000000000E+00 -0.00000000000E+00 -0.44592296140E+02  0.44592296140E+02  0.00000000000E+00 0.  1.
         25    2    1    2    0    0  0.23683516842E+03  0.26820243196E+02  0.94914044788E+03  0.98657275484E+03  0.12509191959E+03 0.  0.
          5    1    3    3  502    0 -0.11305412144E+02  0.16665289237E+02  0.62414480540E+02  0.65715934066E+02  0.41800000000E+01 0.  1.
         -5    1    3    3    0  502  0.24814058056E+03  0.10154953959E+02  0.88672596734E+03  0.92085682077E+03  0.41800000000E+01 0.  1.
        -11    1    1    2    0    0 -0.78158541984E+02  0.35962955827E+02  0.30070671433E+03  0.31277247309E+03  0.00000000000E+00 0.  1.
         11    1    1    2    0    0 -0.15867662643E+03 -0.62783199023E+02  0.34703190034E+03  0.38671842691E+03  0.00000000000E+00 0. -1.
</event>
<event>
 7    1  0.2626349E-009  0.1208171E+03  0.7561462E-02  0.1241755E+00
         -1   -1    0    0    0  501 -0.00000000000E+00  0.00000000000E+00  0.39423532543E+03  0.39423532543E+03  0.00000000000E+00 0.  1.
          1   -1    0    0  501    0  0.00000000000E+00 -0.00000000000E+00 -0.70098167781E+02  0.70098167781E+02  0.00000000000E+00 0. -1.
         25    2    1    2    0    0  0.55992411875E+02 -0.43206796874E+02  0.31787003961E+03  0.34884443410E+03  0.12509636141E+03 0.  0.
          5    1    3    3  502    0 -0.33903648795E+02 -0.41281214058E+02  0.12523384807E+03  0.13621521625E+03  0.41800000000E+01 0.  1.
         -5    1    3    3    0  502  0.89896060670E+02 -0.19255828167E+01  0.19263619154E+03  0.21262921785E+03  0.41800000000E+01 0.  1.
        -11    1    1    2    0    0 -0.64503019105E+02  0.11895347392E+02 -0.25222988221E+02  0.70273308575E+02  0.00000000000E+00 0. -1.
         11    1    1    2    0    0  0.85106072300E+01  0.31311449483E+02  0.31490106260E+02  0.45215750534E+02  0.00000000000E+00 0.  1.
</event>
<event>
 7    1  0.2626349E-009  0.1645833E+03  0.7561462E-02  0.1183617E+00
         -2   -1    0    0    0  501 -0.00000000000E+00  0.00000000000E+00  0.63413992299E+02  0.63413992299E+02  0.00000000000E+00 0.  1.
          2   -1    0    0  501    0  0.00000000000E+00 -0.00000000000E+00 -0.65614295983E+03  0.65614295983E+03  0.00000000000E+00 0. -1.
         25    2    1    2    0    0  0.78930790791E+02 -0.14366030415E+03 -0.21651963160E+03  0.29899241111E+03  0.12508940126E+03 0.  0.
          5    1    3    3  502    0  0.19202650234E+02 -0.36171389092E+02 -0.15701036547E+03  0.16231709223E+03  0.41800000000E+01 0. -1.
         -5    1    3    3    0  502  0.59728140557E+02 -0.10748891506E+03 -0.59509266128E+02  0.13667531888E+03  0.41800000000E+01 0. -1.
        -11    1    1    2    0    0 -0.30975853170E+02  0.38739770223E+02 -0.22484597353E+03  0.23025200344E+03  0.00000000000E+00 0.  1.
         11    1    1    2    0    0 -0.47954937621E+02  0.10492053393E+03 -0.15136336241E+03  0.19031253758E+03  0.00000000000E+00 0. -1.
</event>
<event>
 7    1  0.2626349E-009  0.1111553E+03  0.7561462E-02  0.1258445E+00
          2   -1    0    0  501    0  0.00000000000E+00  0.00000000000E+00  0.51300740418E+03  0.51300740418E+03  0.00000000000E+00 0. -1.
         -2   -1    0    0    0  501 -0.00000000000E+00 -0.00000000000E+00 -0.27484309212E+02  0.27484309212E+02  0.00000000000E+00 0.  1.
         25    2    1    2    0    0 -0.22491540294E+02  0.17750944078E+02  0.23503288239E+03  0.26778485637E+03  0.12508920056E+03 0.  0.
          5    1    3    3  502    0 -0.45831140096E+02 -0.42940206222E+02  0.12345501339E+03  0.13857477203E+03  0.41800000000E+01 0. -1.
         -5    1    3    3    0  502  0.23339599802E+02  0.60691150301E+02  0.11157786900E+03  0.12921008434E+03  0.41800000000E+01 0. -1.
        -11    1    1    2    0    0  0.44487624404E+02 -0.42202090223E+02  0.21806087138E+03  0.22651867201E+03  0.00000000000E+00 0. -1.
         11    1    1    2    0    0 -0.21996084110E+02  0.24451146144E+02  0.32429341205E+02  0.46188185014E+02  0.00000000000E+00 0.  1.
</event>
<event>
 7    1  0.2626349E-009  0.1223116E+03  0.7561462E-02  0.1239332E+00
          3   -1    0    0  501    0  0.00000000000E+00  0.00000000000E+00  0.32729590461E+02  0.32729590461E+02  0.00000000000E+00 0. -1.
         -3   -1    0    0    0  501 -0.00000000000E+00 -0.00000000000E+00 -0.69463484569E+03  0.69463484569E+03  0.00000000000E+00 0.  1.
         25    2    1    2    0    0  0.92901967728E+02 -0.12697751266E+02 -0.46492990539E+03  0.49050864772E+03  0.12508760157E+03 0.  0.
          5    1    3    3  502    0  0.82865239906E+02  0.14637217612E+02 -0.13407992872E+03  0.15835338900E+03  0.41800000000E+01 0.  1.
         -5    1    3    3    0  502  0.10036727822E+02 -0.27334968878E+02 -0.33084997667E+03  0.33215525871E+03  0.41800000000E+01 0.  1.
        -11    1    1    2    0    0 -0.10352526587E+03  0.32478665820E+02 -0.17104280941E+03  0.20255366464E+03  0.00000000000E+00 0.  1.
         11    1    1    2    0    0  0.10623298138E+02 -0.19780914554E+02 -0.25932540431E+02  0.34302123799E+02  0.00000000000E+00 0. -1.
</event>
<event>
 7    1  0.2626349E-009  0.7143755E+02  0.7561462E-02  0.1355272E+00
         -1   -1    0    0    0  501 -0.00000000000E+00  0.00000000000E+00  0.50522383112E+02  0.50522383112E+02  0.00000000000E+00 0.  1.
          1   -1    0    0  501    0  0.00000000000E+00 -0.00000000000E+00 -0.29227743361E+03  0.29227743361E+03  0.00000000000E+00 0. -1.
         25    2    1    2    0    0  0.33547521541E+02 -0.33310582363E+02 -0.17678004355E+03  0.22166495791E+03  0.12509651741E+03 0.  0.
          5    1    3    3  502    0  0.53326619428E+01 -0.26960144569E+02 -0.18823659864E+03  0.19027815468E+03  0.41800000000E+01 0. -1.
         -5    1    3    3    0  502  0.28214859599E+02 -0.63504377941E+01  0.11456555095E+02  0.31386803230E+02  0.41800000000E+01 0. -1.
        -11    1    1    2    0    0  0.18241697127E+02 -0.76946567453E+01 -0.49466842715E+02  0.53281664620E+02  0.00000000000E+00 0. -1.
         11    1    1    2    0    0 -0.51789218668E+02  0.41005239108E+02 -0.15508164235E+02  0.67853194195E+02  0.00000000000E+00 0.  1.
</event>
<event>
 7    1  0.2626349E-009  0.1227971E+03  0.7561462E-02  0.1238553E+00
          1   -1    0    0  501    0  0.00000000000E+00  0.00000000000E+00  0.37795192367E+03  0.37795192367E+03  0.00000000000E+00 0. -1.
         -1   -1    0    0    0  501 -0.00000000000E+00 -0.00000000000E+00 -0.55842376530E+02  0.55842376530E+02  0.00000000000E+00 0.  1.
         25    2    1    2    0    0 -0.52735740638E+02 -0.78570340887E+02  0.14525716631E+03  0.21377954543E+03  0.12509073855E+03 0.  0.
          5    1    3    3  502    0 -0.20757486507E+02 -0.88146366132E+02  0.32811478702E+02  0.96409131533E+02  0.41800000000E+01 0.  1.
         -5    1    3    3    0  502 -0.31978254131E+02  0.95760252450E+01  0.11244568761E+03  0.11737041390E+03  0.41800000000E+01 0.  1.
        -11    1    1    2    0    0 -0.19353281815E+02  0.24298103759E+02  0.88229578882E+02  0.93538259301E+02  0.00000000000E+00 0.  1.
         11    1    1    2    0    0  0.72089022454E+02  0.54272237128E+02  0.88622801951E+02  0.12647649547E+03  0.00000000000E+00 0. -1.
</event>
<event>
 7    1  0.2626349E-009  0.9011378E+02  0.7561462E-02  0.1302576E+00
         -1   -1    0    0    0  501 -0.00000000000E+00  0.00000000000E+00  0.15409241440E+03  0.15409241440E+03  0.00000000000E+00 0.  1.
          1   -1    0    0  501    0  0.00000000000E+00 -0.00000000000E+00 -0.78400754143E+02  0.78400754143E+02  0.00000000000E+00 0. -1.
         25    2    1    2    0    0  0.85056786583E+01 -0.43710445374E+01  0.57914613178E+02  0.13817526818E+03  0.12508736834E+03 0.  0.
          5    1    3    3  502    0 -0.49256548666E+02 -0.65407444582E+01  0.62599591477E+02  0.80032307087E+02  0.41800000000E+01 0.  1.
         -5    1    3    3    0  502  0.57762227324E+02  0.21696999207E+01 -0.46849782997E+01  0.58142961095E+02  0.41800000000E+01 0.  1.
        -11    1    1    2    0    0  0.22017850335E+02 -0.22690320929E+02  0.37465015720E+02  0.49023094559E+02  0.00000000000E+00 0.  1.
         11    1    1    2    0    0 -0.30523528994E+02  0.27061365466E+02 -0.19687968643E+02  0.45294805800E+02  0.00000000000E+00 0. -1.
</event>
<event>
 7    1  0.2626349E-009  0.5723026E+02  0.7561462E-02  0.1409837E+00
          2   -1    0    0  501    0  0.00000000000E+00  0.00000000000E+00  0.70231383322E+02  0.70231383322E+02  0.00000000000E+00 0.  1.
         -2   -1    0    0    0  501 -0.00000000000E+00 -0.00000000000E+00 -0.27718708004E+03  0.27718708004E+03  0.00000000000E+00 0. -1.
         25    2    1    2    0    0 -0.11229356309E+02 -0.17529321818E+01 -0.54585228496E+01  0.12572403366E+03  0.12509023125E+03 0.  0.
          5    1    3    3  502    0  0.39890074428E+01 -0.39559753567E+01 -0.64342289721E+02  0.64722210778E+02  0.41800000000E+01 0.  1.
         -5    1    3    3    0  502 -0.15218363752E+02  0.22030431749E+01  0.58883766871E+02  0.61001822887E+02  0.41800000000E+01 0.  1.
        -11    1    1    2    0    0  0.27114293972E+02 -0.39162170013E+02 -0.89127170140E+02  0.10105697875E+03  0.00000000000E+00 0.  1.
         11    1    1    2    0    0 -0.15884937664E+02  0.40915102195E+02 -0.11237000372E+03  0.12063745094E+03  0.00000000000E+00 0. -1.
</event>
<event>
 7    1  0.2626349E-009  0.1052448E+03  0.7561462E-02  0.1269638E+00
          2   -1    0    0  501    0  0.00000000000E+00  0.00000000000E+00  0.75668245178E+03  0.75668245178E+03  0.00000000000E+00 0. -1.
         -2   -1    0    0    0  501 -0.00000000000E+00 -0.00000000000E+00 -0.27231869232E+02  0.27231869232E+02  0.00000000000E+00 0.  1.
         25    2    1    2    0    0  0.46302459798E+02  0.54657118249E+02  0.56483224782E+03  0.58293562530E+03  0.12508859539E+03 0.  0.
          5    1    3    3  502    0 -0.29807118208E+02  0.52498376159E+02  0.16165275192E+03  0.17260830918E+03  0.41800000000E+01 0. -1.
         -5    1    3    3    0  502  0.76109578006E+02  0.21587420899E+01  0.40317949590E+03  0.41032731611E+03  0.41800000000E+01 0. -1.
        -11    1    1    2    0    0 -0.24165421075E+02 -0.15410932093E+02  0.15130268472E+03  0.15399339859E+03  0.00000000000E+00 0. -1.
         11    1    1    2    0    0 -0.22137038723E+02 -0.39246186156E+02  0.13315649995E+02  0.46985297126E+02  0.00000000000E+00 0.  1.
</event>
<event>
 7    1  0.2626349E-009  0.6324043E+02  0.7561462E-02  0.1384715E+00
         -4   -1    0    0    0  501 -0.00000000000E+00  0.00000000000E+00  0.29968476113E+02  0.29968476113E+02  0.00000000000E+00 0. -1.
          4   -1    0    0  501    0  0.00000000000E+00 -0.00000000000E+00 -0.49578590689E+03  0.49578590689E+03  0.00000000000E+00 0.  1.
         25    2    1    2    0    0  0.39264299197E+02  0.49906876043E+01 -0.17744316830E+03  0.22068193200E+03  0.12509134654E+03 0.  0.
          5    1    3    3  502    0  0.23695036610E+02  0.33717433833E+00  0.14442094296E+02  0.28064478155E+02  0.41800000000E+01 0. -1.
         -5    1    3    3    0  502  0.15569262587E+02  0.46535132660E+01 -0.19188526260E+03  0.19261745384E+03  0.41800000000E+01 0. -1.
        -11    1    1    2    0    0 -0.46653642136E+01  0.33534637201E+02 -0.19834586542E+03  0.20121485990E+03  0.00000000000E+00 0. -1.
         11    1    1    2    0    0 -0.34598934983E+02 -0.38525324805E+02 -0.90028397050E+02  0.10385759110E+03  0.00000000000E+00 0.  1.
</event>
<event>
 7    1  0.2626349E-009  0.1571166E+03  0.7561462E-02  0.1191991E+00
         -2   -1    0    0    0  501 -0.00000000000E+00  0.00000000000E+00  0.21983880636E+02  0.21983880636E+02  0.00000000000E+00 0.  1.
          2   -1    0    0  501    0  0.00000000000E+00 -0.00000000000E+00 -0.13530763685E+04  0.13530763685E+04  0.00000000000E+00 0. -1.
         25    2    1    2    0    0  0.38491351563E+02 -0.12304228818E+03 -0.84056137179E+03  0.85954228473E+03  0.12509408728E+03 0.  0.
          5    1    3    3  502    0  0.77535697038E+02 -0.40497669380E+02 -0.37471604163E+03  0.38481350002E+03  0.41800000000E+01 0. -1.
         -5    1    3    3    0  502 -0.39044345475E+02 -0.82544618800E+02 -0.46584533015E+03  0.47472878471E+03  0.41800000000E+01 0. -1.
        -11    1    1    2    0    0  0.86970847836E+01  0.24345379471E+02 -0.20699234847E+02  0.33117897103E+02  0.00000000000E+00 0.  1.
         11    1    1    2    0    0 -0.47188436346E+02  0.98696908710E+02 -0.46983188127E+03  0.48240006734E+03  0.00000000000E+00 0. -1.
</event>
<event>
 7    1  0.2626349E-009  0.1308944E+03  0.7561462E-02  0.1226135E+00
          1   -1    0    0  501    0  0.00000000000E+00  0.00000000000E+00  0.10329477832E+03  0.10329477832E+03  0.00000000000E+00 0. -1.
         -1   -1    0    0    0  501 -0.00000000000E+00 -0.00000000000E+00 -0.26340248872E+03  0.26340248872E+03  0.00000000000E+00 0.  1.
         25    2    1    2    0    0  0.39502673564E+02  0.95135405554E+02 -0.10176216181E+02  0.16236175384E+03  0.12508627873E+03 0.  0.
          5    1    3    3  502    0  0.17445066668E+02  0.11811181755E+03  0.16507177525E+02  0.12060137274E+03  0.41800000000E+01 0. -1.
         -5    1    3    3    0  502  0.22057606895E+02 -0.22976411999E+02 -0.26683393706E+02  0.41760381104E+02  0.41800000000E+01 0. -1.
        -11    1    1    2    0    0 -0.12164225223E+02 -0.10355176066E+01  0.10660739306E+02  0.16207776977E+02  0.00000000000E+00 0. -1.
         11    1    1    2    0    0 -0.27338448341E+02 -0.94099887948E+02 -0.16059223352E+03  0.18812773623E+03  0.00000000000E+00 0.  1.
</event>
<event>
 7    1  0.2626349E-009  0.9441148E+02  0.7561462E-02  0.1292507E+00
          4   -1    0    0  501    0  0.00000000000E+00  0.00000000000E+00  0.13519287065E+02  0.13519287065E+02  0.00000000000E+00 0.  1.
         -4   -1    0    0    0  501 -0.00000000000E+00 -0.00000000000E+00 -0.10900850064E+04  0.10900850064E+04  0.00000000000E+00 0. -1.
         25    2    1    2    0    0 -0.30841142528E+02 -0.39305258731E+02 -0.66833022943E+03  0.68176911348E+03  0.12509096329E+03 0.  0.
          5    1    3    3  502    0 -0.56049273715E+02 -0.35288662976E+02 -0.63990329674E+03  0.64333545868E+03  0.41800000000E+01 0.  1.
         -5    1    3    3    0  502  0.25208131187E+02 -0.40165957546E+01 -0.28426932689E+02  0.38433654802E+02  0.41800000000E+01 0.  1.
        -11    1    1    2    0    0 -0.21874238835E+02 -0.10326182612E+02 -0.41620779051E+02  0.48139397802E+02  0.00000000000E+00 0.  1.
         11    1    1    2    0    0  0.52715381363E+02  0.49631441343E+02 -0.36661471085E+03  0.37369578217E+03  0.00000000000E+00 0. -1.
</event>
<event>
 7    1  0.2626349E-009  0.1467698E+03  0.7561462E-02  0.1204499E+00
          2   -1    0    0  501    0  0.00000000000E+00  0.00000000000E+00  0.17721232417E+04  0.17721232417E+04  0.00000000000E+00 0. -1.
         -2   -1    0    0    0  501 -0.00000000000E+00 -0.00000000000E+00 -0.18110755712E+02  0.18110755712E+02  0.00000000000E+00 0.  1.
         25    2    1    2    0    0  0.65728000286E+02 -0.11499510471E+03  0.11815416991E+04  0.11955050857E+04  0.12509028399E+03 0.  0.
          5    1    3    3  502    0  0.27098847337E+02 -0.41573191698E+02  0.91418978134E+03  0.91554525093E+03  0.41800000000E+01 0. -1.
         -5    1    3    3    0  502  0.38629152949E+02 -0.73421913009E+02  0.26735191778E+03  0.27995983481E+03  0.41800000000E+01 0. -1.
        -11    1    1    2    0    0  0.15390606204E+02  0.61745538962E+02  0.20392805399E+03  0.21362591965E+03  0.00000000000E+00 0. -1.
         11    1    1    2    0    0 -0.81118606490E+02  0.53249565745E+02  0.36854273290E+03  0.38110299204E+03  0.00000000000E+00 0.  1.
</event>
<event>
 7    1  0.2626349E-009  0.9790369E+02  0.7561462E-02  0.1284767E+00
         -2   -1    0    0    0  501 -0.00000000000E+00  0.00000000000E+00  0.49126973943E+03  0.49126973943E+03  0.00000000000E+00 0.  1.
          2   -1    0    0  501    0  0.00000000000E+00 -0.00000000000E+00 -0.29221047308E+02  0.29221047308E+02  0.00000000000E+00 0. -1.
         25    2    1    2    0    0  0.27250811349E+02 -0.21061258187E+02  0.17681131071E+03  0.21930872777E+03  0.12509154714E+03 0.  0.
          5    1    3    3  502    0  0.62411603208E+02  0.88017224462E+00  0.35377225163E+02  0.71867957940E+02  0.41800000000E+01 0.  1.
         -5    1    3    3    0  502 -0.35160791860E+02 -0.21941430431E+02  0.14143408555E+03  0.14744076983E+03  0.41800000000E+01 0.  1.
        -11    1    1    2    0    0 -0.58038735151E+02  0.10085909810E+02  0.13279112581E+03  0.14527113770E+03  0.00000000000E+00 0. -1.
         11    1    1    2    0    0  0.30787923802E+02  0.10975348376E+02  0.15244625560E+03  0.15591092127E+03  0.00000000000E+00 0.  1.
</event>
<event>
 7    1  0.2626349E-009  0.9355098E+02  0.7561462E-02  0.1294473E+00
          1   -1    0    0  501    0  0.00000000000E+00  0.00000000000E+00  0.16477327202E+03  0.16477327202E+03  0.00000000000E+00 0. -1.
         -1   -1    0    0    0  501 -0.00000000000E+00 -0.00000000000E+00 -0.71914533830E+02  0.71914533830E+02  0.00000000000E+00 0.  1.
         25    2    1    2    0    0  0.18191005144E+02  0.71160865512E+01  0.26761398366E+02  0.12940590531E+03  0.12509262380E+03 0.  0.
          5    1    3    3  502    0  0.59900182371E+02  0.87246356108E+01 -0.22490732687E+02  0.64710559969E+02  0.41800000000E+01 0.  1.
         -5    1    3    3    0  502 -0.41709177227E+02 -0.16085490596E+01  0.49252131053E+02  0.64695345337E+02  0.41800000000E+01 0.  1.
        -11    1    1    2    0    0 -0.49470890274E+02 -0.15940785380E+02  0.41936483007E+02  0.66784326230E+02  0.00000000000E+00 0.  1.
         11    1    1    2    0    0  0.31279885130E+02  0.88246988284E+01  0.24160856816E+02  0.40497574313E+02  0.00000000000E+00 0. -1.
</event>
<event>
 7    1  0.2626349E-009  0.1246360E+03  0.7561462E-02  0.1235639E+00
          3   -1    0    0  501    0  0.00000000000E+00  0.00000000000E+00  0.44253958279E+02  0.44253958279E+02  0.00000000000E+00 0. -1.
         -3   -1    0    0    0  501 -0.00000000000E+00 -0.00000000000E+00 -0.47995091444E+03  0.47995091444E+03  0.00000000000E+00 0.  1.
         25    2    1    2    0    0  0.64087381192E+02  0.42462143325E+02 -0.12431666331E+03  0.19238573403E+03  0.12508961522E+03 0.  0.
          5    1    3    3  502    0 -0.36315764969E+02  0.26062873283E+02 -0.41517518498E+02  0.61149692487E+02  0.41800000000E+01 0. -1.
         -5    1    3    3    0  502  0.10040314616E+03  0.16399270042E+02 -0.82799144817E+02  0.13123604154E+03  0.41800000000E+01 0. -1.
        -11    1    1    2    0    0  0.74895433523E+01 -0.28710547889E+02 -0.17191475594E+03  0.17445650498E+03  0.00000000000E+00 0.  1.
         11    1    1    2    0    0 -0.71576924544E+02 -0.13751595436E+02 -0.13946553690E+03  0.15736263371E+03  0.00000000000E+00 0. -1.
</event>
<event>
 7    1  0.2626349E-009  0.1069486E+03  0.7561462E-02  0.1266327E+00
          3   -1    0    0  501    0  0.00000000000E+00  0.00000000000E+00  0.10739329698E+02  0.10739329698E+02  0.00000000000E+00 0. -1.
         -3   -1    0    0    0  501 -0.00000000000E+00 -0.00000000000E+00 -0.13482906300E+04  0.13482906300E+04  0.00000000000E+00 0.  1.
         25    2    1    2    0    0  0.45137066416E+02 -0.19474765456E+02 -0.93697030302E+03  0.94656179914E+03  0.12509704076E+03 0.  0.
          5    1    3    3  502    0  0.47664378546E+02  0.41747199706E+02 -0.64992326177E+03  0.65301794788E+03  0.41800000000E+01 0.  1.
         -5    1    3    3    0  502 -0.25273121297E+01 -0.61221965163E+02 -0.28704704125E+03  0.29354385127E+03  0.41800000000E+01 0.  1.
        -11    1    1    2    0    0 -0.62428580962E+02 -0.67105574580E+00 -0.34809635028E+03  0.35365074172E+03  0.00000000000E+00 0.  1.
         11    1    1    2    0    0  0.17291514546E+02  0.20145821202E+02 -0.52484646962E+02  0.58817418797E+02  0.00000000000E+00 0. -1.
</event>
<event>
 7    1  0.2626349E-009  0.1294233E+03  0.7561462E-02  0.1228314E+00
         -3   -1    0    0    0  501 -0.00000000000E+00  0.00000000000E+00  0.24448694174E+03  0.24448694174E+03  0.00000000000E+00 0.  1.
          3   -1    0    0  501    0  0.00000000000E+00 -0.00000000000E+00 -0.69245834428E+02  0.69245834428E+02  0.00000000000E+00 0. -1.
         25    2    1    2    0    0 -0.54537356727E+02  0.26627405934E+02  0.81365633387E+02  0.16109381886E+03  0.12509000820E+03 0.  0.
          5    1    3    3  502    0  0.31252292620E+02 -0.23330495914E+02  0.28968753277E+02  0.48761448912E+02  0.41800000000E+01 0.  1.
         -5    1    3    3    0  502 -0.85789649347E+02  0.49957901848E+02  0.52396880110E+02  0.11233236994E+03  0.41800000000E+01 0.  1.
        -11    1    1    2    0    0 -0.95254223239E+01  0.32019351924E+02  0.23343957561E+02  0.40754299438E+02  0.00000000000E+00 0. -1.
         11    1    1    2    0    0  0.64062779051E+02 -0.58646757858E+02  0.70531516367E+02  0.11188465788E+03  0.00000000000E+00 0.  1.
</event>
<event>
 7    1  0.2626349E-009  0.9576219E+02  0.7561462E-02  0.1289469E+00
          1   -1    0    0  501    0  0.00000000000E+00  0.00000000000E+00  0.90127771621E+02  0.90127771621E+02  0.00000000000E+00 0. -1.
         -1   -1    0    0    0  501 -0.00000000000E+00 -0.00000000000E+00 -0.21271684662E+03  0.21271684662E+03  0.00000000000E+00 0.  1.
         25    2    1    2    0    0  0.69652154016E+02  0.27831203186E+02 -0.11451114174E+03  0.18543769261E+03  0.12509331648E+03 0.  0.
          5    1    3    3  502    0  0.28568081968E+02 -0.30906914239E+01  0.23973997671E+02  0.37655180854E+02  0.41800000000E+01 0.  1.
         -5    1    3    3    0  502  0.41084072047E+02  0.30921894610E+02 -0.13848513941E+03  0.14778251175E+03  0.41800000000E+01 0.  1.
        -11    1    1    2    0    0 -0.57107231578E+02  0.20721085071E+02  0.14429914253E+02  0.62440545244E+02  0.00000000000E+00 0. -1.
         11    1    1    2    0    0 -0.12544922438E+02 -0.48552288257E+02 -0.22507847515E+02  0.54966380395E+02  0.00000000000E+00 0.  1.
</event>
<event>
 7    1  0.2626349E-009  0.1029429E+03  0.7561462E-02  0.1274226E+00
         -3   -1    0    0    0  501 -0.00000000000E+00  0.00000000000E+00  0.25042848574E+03  0.25042848574E+03  0.00000000000E+00 0.  1.
          3   -1    0    0  501    0  0.00000000000E+00 -0.00000000000E+00 -0.50780213917E+02  0.50780213917E+02  0.00000000000E+00 0. -1.
         25    2    1    2    0    0 -0.20210819492E+01 -0.22370869307E+02  0.86463777962E+02  0.15371608189E+03  0.12509239931E+03 0.  0.
          5    1    3    3  502    0  0.54062975833E+02 -0.12691207726E+02  0.78276287123E+02  0.96065194713E+02  0.41800000000E+01 0.  1.
         -5    1    3    3    0  502 -0.56084057782E+02 -0.96796615812E+01  0.81874908389E+01  0.57650887173E+02  0.41800000000E+01 0.  1.
        -11    1    1    2    0    0  0.45211683391E+02  0.16910319985E+01  0.42220273728E+02  0.61883013969E+02  0.00000000000E+00 0.  1.
         11    1    1    2    0    0 -0.43190601442E+02  0.20679837309E+02  0.70964220129E+02  0.85609603798E+02  0.00000000000E+00 0. -1.
</event>
<event>
 7    1  0.2626349E-009  0.1580790E+03  0.7561462E-02  0.1190883E+00
         -1   -1    0    0    0  501 -0.00000000000E+00  0.00000000000E+00  0.48273595204E+03  0.48273595204E+03  0.00000000000E+00 0.  1.
          1   -1    0    0  501    0  0.00000000000E+00 -0.00000000000E+00 -0.72503149061E+02  0.72503149061E+02  0.00000000000E+00 0. -1.
         25    2    1    2    0    0 -0.14819526208E+03  0.69475667010E+01  0.16668740528E+03  0.25581628543E+03  0.12508867425E+03 0.  0.
          5    1    3    3  502    0 -0.69243500558E+02 -0.44305835313E+01 -0.16054216478E+01  0.69529434188E+02  0.41800000000E+01 0.  1.
         -5    1    3    3    0  502 -0.78951761523E+02  0.11378150232E+02  0.16829282693E+03  0.18628685125E+03  0.41800000000E+01 0.  1.
        -11    1    1    2    0    0  0.32620835454E+02  0.31123917465E+02  0.10930948190E+03  0.11824288553E+03  0.00000000000E+00 0. -1.
         11    1    1    2    0    0  0.11557442663E+03 -0.38071484166E+02  0.13423591579E+03  0.18117993014E+03  0.00000000000E+00 0.  1.
</event>
<event>
 7    1  0.2626349E-009  0.1176828E+03  0.7561462E-02  0.1246969E+00
         -1   -1    0    0    0  501 -0.00000000000E+00  0.00000000000E+00  0.18612993663E+02  0.18612993663E+02  0.00000000000E+00 0.  1.
          1   -1    0    0  501    0  0.00000000000E+00 -0.00000000000E+00 -0.14254183908E+04  0.14254183908E+04  0.00000000000E+00 0. -1.
         25    2    1    2    0    0 -0.92222171365E+02  0.43080518752E+02 -0.10202957979E+04  0.10329606821E+04  0.12507356057E+03 0.  0.
          5    1    3    3  502    0 -0.10866489171E+03  0.40203496966E+02 -0.53766377091E+03  0.55002198393E+03  0.41800000000E+01 0.  1.
         -5    1    3    3    0  502  0.16442720348E+02  0.28770217867E+01 -0.48263202700E+03  0.48293869817E+03  0.41800000000E+01 0.  1.
        -11    1    1    2    0    0  0.28897386195E+02 -0.87842216957E+01 -0.17101856818E+02  0.34708716288E+02  0.00000000000E+00 0.  1.
         11    1    1    2    0    0  0.63324785170E+02 -0.34296297057E+02 -0.36940774244E+03  0.37636198611E+03  0.00000000000E+00 0. -1.
</event>
<event>
 7    1  0.2626349E-009  0.1468866E+03  0.7561462E-02  0.1204352E+00
          2   -1    0    0  501    0  0.00000000000E+00  0.00000000000E+00  0.72958416134E+02  0.72958416134E+02  0.00000000000E+00 0. -1.
         -2   -1    0    0    0  501 -0.00000000000E+00 -0.00000000000E+00 -0.34621499858E+03  0.34621499858E+03  0.00000000000E+00 0.  1.
         25    2    1    2    0    0 -0.62625841720E+02  0.92869704752E+02 -0.18432607446E+03  0.24934201357E+03  0.12509420408E+03 0.  0.
          5    1    3    3  502    0 -0.63152350744E+02 -0.99154914104E+01 -0.84076246816E+02  0.10570158018E+03  0.41800000000E+01 0. -1.
         -5    1    3    3    0  502  0.52650902447E+00  0.10278519616E+03 -0.10024982764E+03  0.14364043339E+03  0.41800000000E+01 0. -1.
        -11    1    1    2    0    0  0.32135738807E+02 -0.33980371536E+01  0.91809681961E+01  0.33593787256E+02  0.00000000000E+00 0. -1.
         11    1    1    2    0    0  0.30490102913E+02 -0.89471667598E+02 -0.98111476184E+02  0.13623761389E+03  0.00000000000E+00 0.  1.
</event>
<event>
 7    1  0.2626349E-009  0.1154879E+03  0.7561462E-02  0.1250732E+00
         -2   -1    0    0    0  501 -0.00000000000E+00  0.00000000000E+00  0.15640838349E+02  0.15640838349E+02  0.00000000000E+00 0.  1.
          2   -1    0    0  501    0  0.00000000000E+00 -0.00000000000E+00 -0.10585687602E+04  0.10585687602E+04  0.00000000000E+00 0. -1.
         25    2    1    2    0    0  0.19204203296E+02 -0.36825343748E+02 -0.80005009716E+03  0.81083334263E+03  0.12508254954E+03 0.  0.
          5    1    3    3  502    0  0.55423919936E+02 -0.65141135190E+02 -0.52213892908E+03  0.52911408227E+03  0.41800000000E+01 0.  1.
         -5    1    3    3    0  502 -0.36219716640E+02  0.28315791442E+02 -0.27791116808E+03  0.28171926036E+03  0.41800000000E+01 0.  1.
        -11    1    1    2    0    0 -0.54846186749E+02  0.31194487631E+02 -0.12381059957E+03  0.13896137890E+03  0.00000000000E+00 0.  1.
         11    1    1    2    0    0  0.35641983453E+02  0.56308561168E+01 -0.11906722517E+03  0.12441487706E+03  0.00000000000E+00 0. -1.
</event>
<event>
 7    1  0.2626349E-009  0.1351310E+03  0.7561462E-02  0.1220035E+00
         -1   -1    0    0    0  501 -0.00000000000E+00  0.00000000000E+00  0.14514951778E+04  0.14514951778E+04  0.00000000000E+00 0.  1.
          1   -1    0    0  501    0  0.00000000000E+00 -0.00000000000E+00 -0.18693159915E+02  0.18693159915E+02  0.00000000000E+00 0. -1.
         25    2    1    2    0    0  0.10793874545E+03 -0.17998082311E+02  0.10353774013E+04  0.10486322668E+04  0.12509422053E+03 0.  0.
          5    1    3    3  502    0  0.59564311866E+02 -0.59864191829E+02  0.80728843286E+03  0.81170420410E+03  0.41800000000E+01 0. -1.
         -5    1    3    3    0  502  0.48374433588E+02  0.41866109518E+02  0.22808896847E+03  0.23692806269E+03  0.41800000000E+01 0. -1.
        -11    1    1    2    0    0 -0.10213754634E+03  0.31514607647E+02  0.39127685473E+03  0.40561413427E+03  0.00000000000E+00 0.  1.
         11    1    1    2    0    0 -0.58011991123E+01 -0.13516525336E+02  0.61477617716E+01  0.15941936617E+02  0.00000000000E+00 0. -1.
</event>
<event>
 7    1  0.2626349E-009  0.1377061E+03  0.7561462E-02  0.1216449E+00
         -2   -1    0    0    0  501 -0.00000000000E+00  0.00000000000E+00  0.19628183399E+02  0.19628183399E+02  0.00000000000E+00 0.  1.
          2   -1    0    0  501    0  0.00000000000E+00 -0.00000000000E+00 -0.14352726534E+04  0.14352726534E+04  0.00000000000E+00 0. -1.
         25    2    1    2    0    0  0.73408930446E+01  0.11270432089E+03 -0.10294162242E+04  0.10431210345E+04  0.12509027727E+03 0.  0.
          5    1    3    3  502    0 -0.65600372798E+01  0.11815896319E+03 -0.51368883776E+03  0.52716057241E+03  0.41800000000E+01 0. -1.
         -5    1    3    3    0  502  0.13900930324E+02 -0.54546422988E+01 -0.51572738641E+03  0.51596046213E+03  0.41800000000E+01 0. -1.
        -11    1    1    2    0    0 -0.27791794186E+02 -0.11728512763E+03 -0.34644808456E+03  0.36681665759E+03  0.00000000000E+00 0. -1.
         11    1    1    2    0    0  0.20450901142E+02  0.45808067443E+01 -0.39780161289E+02  0.44963144687E+02  0.00000000000E+00 0.  1.
</event>
<event>
 7    1  0.2626349E-009  0.1123668E+03  0.7561462E-02  0.1256249E+00
          2   -1    0    0  501    0  0.00000000000E+00  0.00000000000E+00  0.14298813984E+04  0.14298813984E+04  0.00000000000E+00 0. -1.
         -2   -1    0    0    0  501 -0.00000000000E+00 -0.00000000000E+00 -0.10518390522E+02  0.10518390522E+02  0.00000000000E+00 0.  1.
         25    2    1    2    0    0 -0.62784896710E+02 -0.10554858330E+02  0.81924770900E+03  0.83118474451E+03  0.12509165642E+03 0.  0.
          5    1    3    3  502    0 -0.79340572425E+02  0.22557215078E+02  0.72732562908E+03  0.73199986168E+03  0.41800000000E+01 0.  1.
         -5    1    3    3    0  502  0.16555675716E+02 -0.33112073408E+02  0.91922079925E+02  0.99184882828E+02  0.41800000000E+01 0.  1.
        -11    1    1    2    0    0  0.37695406982E+02 -0.35922285838E+02  0.29270425837E+03  0.29729974301E+03  0.00000000000E+00 0.  1.
         11    1    1    2    0    0  0.25089489727E+02  0.46477144168E+02  0.30741104047E+03  0.31191530137E+03  0.00000000000E+00 0. -1.
</event>
<event>
 7    1  0.2626349E-009  0.9068641E+02  0.7561462E-02  0.1301198E+00
          1   -1    0    0  501    0  0.00000000000E+00  0.00000000000E+00  0.28824384440E+03  0.28824384440E+03  0.00000000000E+00 0. -1.
         -1   -1    0    0    0  501 -0.00000000000E+00 -0.00000000000E+00 -0.65772736696E+02  0.65772736696E+02  0.00000000000E+00 0.  1.
         25    2    1    2    0    0  0.28708565282E+01 -0.34111309727E+02  0.22181088867E+03  0.25694289794E+03  0.12509100369E+03 0.  0.
          5    1    3    3  502    0  0.44382382255E+02 -0.25407586941E+02  0.20467278194E+03  0.21100654349E+03  0.41800000000E+01 0.  1.
         -5    1    3    3    0  502 -0.41511525727E+02 -0.87037227861E+01  0.17138106731E+02  0.45936354457E+02  0.41800000000E+01 0.  1.
        -11    1    1    2    0    0  0.98877556155E+01 -0.25044732856E+02 -0.19546807259E+02  0.33272872268E+02  0.00000000000E+00 0.  1.
         11    1    1    2    0    0 -0.12758612144E+02  0.59156042584E+02  0.20207026301E+02  0.63800810888E+02  0.00000000000E+00 0. -1.
</event>
<event>
 7    1  0.2626349E-009  0.2730948E+03  0.7561462E-02  0.1099521E+00
         -2   -1    0    0    0  501 -0.00000000000E+00  0.00000000000E+00  0.62767580598E+02  0.62767580598E+02  0.00000000000E+00 0.  1.
          2   -1    0    0  501    0  0.00000000000E+00 -0.00000000000E+00 -0.26011950181E+04  0.26011950181E+04  0.00000000000E+00 0. -1.
         25    2    1    2    0    0 -0.52597265725E+02  0.25828299692E+03 -0.22234496738E+04  0.22425101073E+04  0.12508617296E+03 0.  0.
          5    1    3    3  502    0  0.44396149412E+01  0.20233272463E+03 -0.18185654743E+04  0.18297967369E+04  0.41800000000E+01 0.  1.
         -5    1    3    3    0  502 -0.57036880666E+02  0.55950272289E+02 -0.40488419953E+03  0.41271337046E+03  0.41800000000E+01 0.  1.
        -11    1    1    2    0    0  0.42006032190E+02 -0.22291335396E+03 -0.20609466915E+03  0.30647982440E+03  0.00000000000E+00 0.  1.
         11    1    1    2    0    0  0.10591233534E+02 -0.35369642960E+02 -0.10888309454E+03  0.11497266696E+03  0.00000000000E+00 0. -1.
</event>
<event>
 7    1  0.2626349E-009  0.1474905E+03  0.7561462E-02  0.1203591E+00
          2   -1    0    0  501    0  0.00000000000E+00  0.00000000000E+00  0.26002443216E+03  0.26002443216E+03  0.00000000000E+00 0. -1.
         -2   -1    0    0    0  501 -0.00000000000E+00 -0.00000000000E+00 -0.15043468493E+03  0.15043468493E+03  0.00000000000E+00 0.  1.
         25    2    1    2    0    0  0.10335298962E+03  0.70646848615E+02 -0.53396670364E+02  0.18485706292E+03  0.12509241233E+03 0.  0.
          5    1    3    3  502    0  0.37157073616E+02 -0.30224082052E+02 -0.41563773600E+02  0.63554409221E+02  0.41800000000E+01 0.  1.
         -5    1    3    3    0  502  0.66195916004E+02  0.10087093067E+03 -0.11832896763E+02  0.12130265370E+03  0.41800000000E+01 0.  1.
        -11    1    1    2    0    0 -0.26056262545E+02 -0.26490848311E+02  0.12212392087E+03  0.12765165847E+03  0.00000000000E+00 0. -1.
         11    1    1    2    0    0 -0.77296727076E+02 -0.44156000304E+02  0.40862496721E+02  0.97950395699E+02  0.00000000000E+00 0.  1.
</event>
<event>
 7    1  0.2626349E-009  0.1541531E+03  0.7561462E-02  0.1195461E+00
         -2   -1    0    0    0  501 -0.00000000000E+00  0.00000000000E+00  0.88881222163E+02  0.88881222163E+02  0.00000000000E+00 0. -1.
          2   -1    0    0  501    0  0.00000000000E+00 -0.00000000000E+00 -0.31379762560E+03  0.31379762560E+03  0.00000000000E+00 0.  1.
         25    2    1    2    0    0  0.11755388887E+03  0.34837105173E+01 -0.18032769018E+03  0.24898700212E+03  0.12508156679E+03 0.  0.
          5    1    3    3  502    0  0.12497404146E+03  0.35845538959E+02 -0.10717944058E+03  0.16854767452E+03  0.41800000000E+01 0. -1.
         -5    1    3    3    0  502 -0.74201525935E+01 -0.32361828441E+02 -0.73148249603E+02  0.80439327599E+02  0.41800000000E+01 0. -1.
        -11    1    1    2    0    0 -0.11895721662E+03 -0.26360071894E+02 -0.26992783890E+02  0.12479696775E+03  0.00000000000E+00 0. -1.
         11    1    1    2    0    0  0.14033277562E+01  0.22876361377E+02 -0.17595929364E+02  0.28894877899E+02  0.00000000000E+00 0.  1.
</event>
<event>
 7    1  0.2626349E-009  0.1622602E+03  0.7561462E-02  0.1186168E+00
          1   -1    0    0  501    0  0.00000000000E+00  0.00000000000E+00  0.18193731592E+03  0.18193731592E+03  0.00000000000E+00 0. -1.
         -1   -1    0    0    0  501 -0.00000000000E+00 -0.00000000000E+00 -0.17114110976E+03  0.17114110976E+03  0.00000000000E+00 0.  1.
         25    2    1    2    0    0 -0.66747602344E+01  0.13551303824E+03  0.35351846662E+02  0.18789849827E+03  0.12509099342E+03 0.  0.
          5    1    3    3  502    0  0.35242055949E+02  0.11036725784E+03  0.62627061892E+02  0.13176704972E+03  0.41800000000E+01 0.  1.
         -5    1    3    3    0  502 -0.41916816184E+02  0.25145780399E+02 -0.27275215230E+02  0.56131448553E+02  0.41800000000E+01 0.  1.
        -11    1    1    2    0    0  0.35113522471E+02 -0.12395213376E+03 -0.52934932366E+01  0.12893840388E+03  0.00000000000E+00 0. -1.
         11    1    1    2    0    0 -0.28438762236E+02 -0.11560904480E+02 -0.19262147271E+02  0.36241523525E+02  0.00000000000E+00 0.  1.
</event>
<event>
 7    1  0.2626349E-009  0.1706444E+03  0.7561462E-02  0.1177178E+00
          2   -1    0    0  501    0  0.00000000000E+00  0.00000000000E+00  0.57096673135E+03  0.57096673135E+03  0.00000000000E+00 0. -1.
         -2   -1    0    0    0  501 -0.00000000000E+00 -0.00000000000E+00 -0.65572968641E+02  0.65572968641E+02  0.00000000000E+00 0.  1.
         25    2    1    2    0    0  0.11555328394E+03  0.91962581796E+02  0.36361758511E+03  0.41191883353E+03  0.12509875834E+03 0.  0.
          5    1    3    3  502    0  0.29734155756E+02 -0.31235509095E+02  0.79175575914E+02  0.90255311579E+02  0.41800000000E+01 0. -1.
         -5    1    3    3    0  502  0.85819128181E+02  0.12319809089E+03  0.28444200919E+03  0.32166352195E+03  0.41800000000E+01 0. -1.
        -11    1    1    2    0    0 -0.24582600500E+02 -0.17066302718E+02  0.91926858294E+02  0.96675282320E+02  0.00000000000E+00 0. -1.
         11    1    1    2    0    0 -0.90970683438E+02 -0.74896279077E+02  0.49849319305E+02  0.12794558414E+03  0.00000000000E+00 0.  1.
</event>
<event>
 7    1  0.2626349E-009  0.6097950E+02  0.7561462E-02  0.1393767E+00
         -2   -1    0    0    0  501 -0.00000000000E+00  0.00000000000E+00  0.77532894353E+02  0.77532894353E+02  0.00000000000E+00 0.  1.
          2   -1    0    0  501    0  0.00000000000E+00 -0.00000000000E+00 -0.16709891445E+03  0.16709891445E+03  0.00000000000E+00 0. -1.
         25    2    1    2    0    0  0.24356331274E+02  0.12853652391E+02 -0.69793612898E+02  0.14586762954E+03  0.12509104561E+03 0.  0.
          5    1    3    3  502    0  0.38548333605E+02  0.39143148685E+02 -0.92803985477E+02  0.10792688374E+03  0.41800000000E+01 0. -1.
         -5    1    3    3    0  502 -0.14192002331E+02 -0.26289496294E+02  0.23010372579E+02  0.37940745799E+02  0.41800000000E+01 0. -1.
        -11    1    1    2    0    0 -0.58278209341E+01 -0.16773637481E+02 -0.55530443613E+02  0.58300502391E+02  0.00000000000E+00 0. -1.
         11    1    1    2    0    0 -0.18528510340E+02  0.39199850896E+01  0.35758036412E+02  0.40463676879E+02  0.00000000000E+00 0.  1.
</event>
<event>
 7    1  0.2626349E-009  0.1047574E+03  0.7561462E-02  0.1270598E+00
          4   -1    0    0  501    0  0.00000000000E+00  0.00000000000E+00  0.54264415393E+02  0.54264415393E+02  0.00000000000E+00 0.  1.
         -4   -1    0    0    0  501 -0.00000000000E+00 -0.00000000000E+00 -0.22169453292E+03  0.22169453292E+03  0.00000000000E+00 0. -1.
         25    2    1    2    0    0  0.19458798187E+02  0.73510167367E+00 -0.83373563156E+02  0.15158446606E+03  0.12509002405E+03 0.  0.
          5    1    3    3  502    0 -0.11397439408E+02  0.56574122306E+02 -0.60412855659E+02  0.83652366784E+02  0.41800000000E+01 0.  1.
         -5    1    3    3    0  502  0.30856237595E+02 -0.55839020632E+02 -0.22960707497E+02  0.67932099279E+02  0.41800000000E+01 0.  1.
        -11    1    1    2    0    0  0.25857189290E+02 -0.25297621385E+02 -0.53091585107E+02  0.64243912512E+02  0.00000000000E+00 0. -1.
         11    1    1    2    0    0 -0.45315987477E+02  0.24562519711E+02 -0.30964969267E+02  0.60130569740E+02  0.00000000000E+00 0.  1.
</event>
<event>
 7    1  0.2626349E-009  0.1351531E+03  0.7561462E-02  0.1220004E+00
         -1   -1    0    0    0  501 -0.00000000000E+00  0.00000000000E+00  0.23953363548E+02  0.23953363548E+02  0.00000000000E+00 0.  1.
          1   -1    0    0  501    0  0.00000000000E+00 -0.00000000000E+00 -0.10764353666E+04  0.10764353666E+04  0.00000000000E+00 0. -1.
         25    2    1    2    0    0  0.10115159051E+03 -0.10802067940E+02 -0.35877079465E+03  0.39333257850E+03  0.12508279370E+03 0.  0.
          5    1    3    3  502    0 -0.84976140362E+01 -0.22322672389E+02 -0.19100410066E+03  0.19253713932E+03  0.41800000000E+01 0.  1.
         -5    1    3    3    0  502  0.10964920455E+03  0.11520604450E+02 -0.16776669399E+03  0.20079543918E+03  0.41800000000E+01 0.  1.
        -11    1    1    2    0    0 -0.25104240046E+02  0.45632152095E+02 -0.22590310149E+03  0.23182909100E+03  0.00000000000E+00 0.  1.
         11    1    1    2    0    0 -0.76047350466E+02 -0.34830084155E+02 -0.46780810696E+03  0.47522706069E+03  0.00000000000E+00 0. -1.
</event>
<event>
 7    1  0.2626349E-009  0.1138740E+03  0.7561462E-02  0.1253559E+00
          1   -1    0    0  501    0  0.00000000000E+00  0.00000000000E+00  0.22448005679E+03  0.22448005679E+03  0.00000000000E+00 0. -1.
         -1   -1    0    0    0  501 -0.00000000000E+00 -0.00000000000E+00 -0.61360123331E+02  0.61360123331E+02  0.00000000000E+00 0.  1.
         25    2    1    2    0    0 -0.79220234683E+00 -0.38432029108E+02  0.10555830302E+03  0.16812867065E+03  0.12508815336E+03 0.  0.
          5    1    3    3  502    0 -0.54710737818E+02  0.12642679067E+02  0.41288397482E+02  0.69823393882E+02  0.41800000000E+01 0. -1.
         -5    1    3    3    0  502  0.53918535471E+02 -0.51074708175E+02  0.64269905542E+02  0.98305276770E+02  0.41800000000E+01 0. -1.
        -11    1    1    2    0    0 -0.17128471521E+02  0.63763743713E+02  0.19992319286E+02  0.68984725696E+02  0.00000000000E+00 0.  1.
         11    1    1    2    0    0  0.17920673868E+02 -0.25331714605E+02  0.37569311149E+02  0.48726783774E+02  0.00000000000E+00 0. -1.
</event>
<event>
 7    1  0.2626349E-009  0.1035713E+03  0.7561462E-02  0.1272960E+00
         -1   -1    0    0    0  501 -0.00000000000E+00  0.00000000000E+00  0.42673426275E+02  0.42673426275E+02  0.00000000000E+00 0.  1.
          1   -1    0    0  501    0  0.00000000000E+00 -0.00000000000E+00 -0.26444125524E+03  0.26444125524E+03  0.00000000000E+00 0. -1.
         25    2    1    2    0    0 -0.12829433069E+02  0.16489624800E+02 -0.14120438001E+03  0.18979879477E+03  0.12509357890E+03 0.  0.
          5    1    3    3  502    0 -0.62563405092E+02 -0.16618297930E+02 -0.90374633387E+02  0.11124474928E+03  0.41800000000E+01 0.  1.
         -5    1    3    3    0  502  0.49733972023E+02  0.33107922730E+02 -0.50829746625E+02  0.78554045489E+02  0.41800000000E+01 0.  1.
        -11    1    1    2    0    0 -0.33279383765E+02 -0.14300538172E+02 -0.50801417479E+02  0.62392361661E+02  0.00000000000E+00 0.  1.
         11    1    1    2    0    0  0.46108816834E+02 -0.21890866289E+01 -0.29762031472E+02  0.54923525082E+02  0.00000000000E+00 0. -1.
</event>
<event>
 7    1  0.2626349E-009  0.1975341E+03  0.7561462E-02  0.1151836E+00
         -2   -1    0    0    0  501 -0.00000000000E+00  0.00000000000E+00  0.81187466512E+02  0.81187466512E+02  0.00000000000E+00 0. -1.
          2   -1    0    0  501    0  0.00000000000E+00 -0.00000000000E+00 -0.52914353455E+03  0.52914353455E+03  0.00000000000E+00 0.  1.
         25    2    1    2    0    0  0.16852937883E+03  0.43559327338E+02 -0.19304351264E+03  0.28846664065E+03  0.12509052109E+03 0.  0.
          5    1    3    3  502    0  0.27139647637E+02 -0.35326877594E+02 -0.13654749680E+02  0.46781121655E+02  0.41800000000E+01 0. -1.
         -5    1    3    3    0  502  0.14138973119E+03  0.78886204932E+02 -0.17938876296E+03  0.24168551899E+03  0.41800000000E+01 0. -1.
        -11    1    1    2    0    0 -0.73190968021E+02  0.17361833429E+02 -0.58884274822E+02  0.95528576255E+02  0.00000000000E+00 0. -1.
         11    1    1    2    0    0 -0.95338410809E+02 -0.60921160767E+02 -0.19602828058E+03  0.22633578416E+03  0.00000000000E+00 0.  1.
</event>
<event>
 7    1  0.2626349E-009  0.1603823E+03  0.7561462E-02  0.1188266E+00
         -2   -1    0    0    0  501 -0.00000000000E+00  0.00000000000E+00  0.10824938717E+02  0.10824938717E+02  0.00000000000E+00 0.  1.
          2   -1    0    0  501    0  0.00000000000E+00 -0.00000000000E+00 -0.30132406259E+04  0.30132406259E+04  0.00000000000E+00 0. -1.
         25    2    1    2    0    0  0.10495734180E+03  0.54614781039E+02 -0.22665992309E+04  0.22731297268E+04  0.12509142087E+03 0.  0.
          5    1    3    3  502    0  0.45014907644E+02 -0.39772847143E+02 -0.82581802668E+03  0.82801033018E+03  0.41800000000E+01 0.  1.
         -5    1    3    3    0  502  0.59942434153E+02  0.94387628183E+02 -0.14407812042E+04  0.14451193967E+04  0.41800000000E+01 0.  1.
        -11    1    1    2    0    0 -0.10189930651E+02 -0.52904710399E+02 -0.22147675332E+03  0.22793572631E+03  0.00000000000E+00 0. -1.
         11    1    1    2    0    0 -0.94767411147E+02 -0.17100706400E+01 -0.51433970296E+03  0.52300011147E+03  0.00000000000E+00 0.  1.
</event>
<event>
 7    1  0.2626349E-009  0.1651623E+03  0.7561462E-02  0.1182989E+00
          3   -1    0    0  501    0  0.00000000000E+00  0.00000000000E+00  0.87073422445E+02  0.87073422445E+02  0.00000000000E+00 0. -1.
         -3   -1    0    0    0  501 -0.00000000000E+00 -0.00000000000E+00 -0.31885606022E+03  0.31885606022E+03  0.00000000000E+00 0.  1.
         25    2    1    2    0    0  0.12583037787E+03  0.43180580009E+01 -0.14380577659E+03  0.22843217786E+03  0.12509687798E+03 0.  0.
          5    1    3    3  502    0  0.71799942683E+02  0.64296123681E+02 -0.73101893673E+02  0.12103959083E+03  0.41800000000E+01 0. -1.
         -5    1    3    3    0  502  0.54030435190E+02 -0.59978065680E+02 -0.70703882912E+02  0.10739258703E+03  0.41800000000E+01 0. -1.
        -11    1    1    2    0    0 -0.74485890640E+02  0.40571719842E+02 -0.59408662307E+02  0.10355482370E+03  0.00000000000E+00 0.  1.
         11    1    1    2    0    0 -0.51344487232E+02 -0.44889777843E+02 -0.28568198878E+02  0.73942481099E+02  0.00000000000E+00 0. -1.
</event>
<event>
 7    1  0.2626349E-009  0.1025503E+03  0.7561462E-02  0.1275023E+00
         -2   -1    0    0    0  501 -0.00000000000E+00  0.00000000000E+00  0.13039306866E+03  0.13039306866E+03  0.00000000000E+00 0. -1.
          2   -1    0    0  501    0  0.00000000000E+00 -0.00000000000E+00 -0.95694311869E+02  0.95694311869E+02  0.00000000000E+00 0.  1.
         25    2    1    2    0    0  0.22632995285E+02 -0.11546313183E+02  0.23725706659E+02  0.12983670952E+03  0.12509633152E+03 0.  0.
          5    1    3    3  502    0 -0.20731430449E+02 -0.57957485510E+02 -0.58286132815E+00  0.61698253318E+02  0.41800000000E+01 0. -1.
         -5    1    3    3    0  502  0.43364425734E+02  0.46411172327E+02  0.24308567987E+02  0.68138456203E+02  0.41800000000E+01 0. -1.
        -11    1    1    2    0    0 -0.46838949512E+02 -0.93610120378E+01  0.32430984567E+02  0.57734603989E+02  0.00000000000E+00 0.  1.
         11    1    1    2    0    0  0.24205954227E+02  0.20907325220E+02 -0.21457934440E+02  0.38516067016E+02  0.00000000000E+00 0. -1.
</event>
<event>
 7    1  0.2626349E-009  0.1985233E+03  0.7561462E-02  0.1150991E+00
         -1   -1    0    0    0  501 -0.00000000000E+00  0.00000000000E+00  0.38620016114E+03  0.38620016114E+03  0.00000000000E+00 0.  1.
          1   -1    0    0  501    0  0.00000000000E+00 -0.00000000000E+00 -0.11178531342E+03  0.11178531342E+03  0.00000000000E+00 0. -1.
         25    2    1    2    0    0 -0.86045263155E+02  0.15257135867E+03  0.16936715989E+03  0.27388720179E+03  0.12508859924E+03 0.  0.
          5    1    3    3  502    0  0.10496860142E+02  0.10826699160E+03  0.89461455484E+02  0.14089978694E+03  0.41800000000E+01 0.  1.
         -5    1    3    3    0  502 -0.96542123297E+02  0.44304367070E+02  0.79905704404E+02  0.13298741485E+03  0.41800000000E+01 0.  1.
        -11    1    1    2    0    0  0.28121296957E+02 -0.99250500410E+02  0.14600158446E+02  0.10418557386E+03  0.00000000000E+00 0.  1.
         11    1    1    2    0    0  0.57923966198E+02 -0.53320858261E+02  0.90447529393E+02  0.11991269891E+03  0.00000000000E+00 0. -1.
</event>
<event>
 7    1  0.2626349E-009  0.1295830E+03  0.7561462E-02  0.1228076E+00
         -1   -1    0    0    0  501 -0.00000000000E+00  0.00000000000E+00  0.12185737172E+03  0.12185737172E+03  0.00000000000E+00 0.  1.
          1   -1    0    0  501    0  0.00000000000E+00 -0.00000000000E+00 -0.17581664804E+03  0.17581664804E+03  0.00000000000E+00 0. -1.
         25    2    1    2    0    0  0.66780902946E+02  0.63337023050E+02  0.15827084636E+01  0.15530858130E+03  0.12508790098E+03 0.  0.
          5    1    3    3  502    0  0.75773393509E+02  0.90770376700E+02  0.21140321169E+02  0.12018841054E+03  0.41800000000E+01 0. -1.
         -5    1    3    3    0  502 -0.89924905626E+01 -0.27433353650E+02 -0.19557612705E+02  0.35120170753E+02  0.41800000000E+01 0. -1.
        -11    1    1    2    0    0 -0.59895118017E+02 -0.76301069505E+02 -0.71633313389E+02  0.12058445156E+03  0.00000000000E+00 0. -1.
         11    1    1    2    0    0 -0.68857849291E+01  0.12964046455E+02  0.16091328602E+02  0.21780986910E+02  0.00000000000E+00 0.  1.
</event>
<event>
 7    1  0.2626349E-009  0.1959654E+03  0.7561462E-02  0.1153188E+00
         -1   -1    0    0    0  501 -0.00000000000E+00  0.00000000000E+00  0.45357112813E+02  0.45357112813E+02  0.00000000000E+00 0.  1.
          1   -1    0    0  501    0  0.00000000000E+00 -0.00000000000E+00 -0.10273755681E+04  0.10273755681E+04  0.00000000000E+00 0. -1.
         25    2    1    2    0    0  0.17774705178E+03 -0.58350228910E+02 -0.48111807696E+03  0.53115085334E+03  0.12509141214E+03 0.  0.
          5    1    3    3  502    0  0.12876326596E+03 -0.77027350047E+02 -0.23043511956E+03  0.27501092349E+03  0.41800000000E+01 0.  1.
         -5    1    3    3    0  502  0.48983785822E+02  0.18677121136E+02 -0.25068295740E+03  0.25613992984E+03  0.41800000000E+01 0.  1.
        -11    1    1    2    0    0 -0.10088584567E+03  0.18171827563E+02 -0.16158661131E+03  0.19135935339E+03  0.00000000000E+00 0.  1.
         11    1    1    2    0    0 -0.76861206111E+02  0.40178401347E+02 -0.33931376702E+03  0.35022247419E+03  0.00000000000E+00 0. -1.
</event>
<event>
 7    1  0.2626349E-009  0.1359046E+03  0.7561462E-02  0.1218948E+00
          2   -1    0    0  501    0  0.00000000000E+00  0.00000000000E+00  0.11313263890E+04  0.11313263890E+04  0.00000000000E+00 0.  1.
         -2   -1    0    0    0  501 -0.00000000000E+00 -0.00000000000E+00 -0.19948050700E+02  0.19948050700E+02  0.00000000000E+00 0. -1.
         25    2    1    2    0    0 -0.17385186661E+02 -0.96096888385E+02  0.72358786537E+03  0.74078594335E+03  0.12509020062E+03 0.  0.
          5    1    3    3  502    0 -0.78345831629E+01 -0.12379364691E+03  0.64452630986E+03  0.65636718703E+03  0.41800000000E+01 0. -1.
         -5    1    3    3    0  502 -0.95506034976E+01  0.27696758523E+02  0.79061555509E+02  0.84418756324E+02  0.41800000000E+01 0. -1.
        -11    1    1    2    0    0  0.42992207161E+02  0.57850027550E+02  0.13020512748E+03  0.14882315272E+03  0.00000000000E+00 0. -1.
         11    1    1    2    0    0 -0.25607020500E+02  0.38246860835E+02  0.25758534548E+03  0.26166534366E+03  0.00000000000E+00 0.  1.
</event>
<event>
 7    1  0.2626349E-009  0.1095335E+03  0.7561462E-02  0.1261436E+00
          2   -1    0    0  501    0  0.00000000000E+00  0.00000000000E+00  0.40978025428E+03  0.40978025428E+03  0.00000000000E+00 0. -1.
         -2   -1    0    0    0  501 -0.00000000000E+00 -0.00000000000E+00 -0.35821306535E+02  0.35821306535E+02  0.00000000000E+00 0.  1.
         25    2    1    2    0    0  0.25356458760E+02 -0.18102999096E+02  0.12948883459E+03  0.18271640250E+03  0.12508899584E+03 0.  0.
          5    1    3    3  502    0  0.66522412209E+02 -0.37782016743E+02  0.10719681200E+03  0.13176244161E+03  0.41800000000E+01 0. -1.
         -5    1    3    3    0  502 -0.41165953449E+02  0.19679017648E+02  0.22292022588E+02  0.50953960886E+02  0.41800000000E+01 0. -1.
        -11    1    1    2    0    0 -0.57656722264E+02  0.26201320307E+02  0.16321420134E+03  0.17507050673E+03  0.00000000000E+00 0. -1.
         11    1    1    2    0    0  0.32300263504E+02 -0.80983212117E+01  0.81255911817E+02  0.87814651591E+02  0.00000000000E+00 0.  1.
</event>
<event>
 7    1  0.2626349E-009  0.1676631E+03  0.7561462E-02  0.1180307E+00
          1   -1    0    0  501    0  0.00000000000E+00  0.00000000000E+00  0.88623330228E+03  0.88623330228E+03  0.00000000000E+00 0.  1.
         -1   -1    0    0    0  501 -0.00000000000E+00 -0.00000000000E+00 -0.33796566970E+02  0.33796566970E+02  0.00000000000E+00 0. -1.
         25    2    1    2    0    0  0.83312428638E+02  0.99511637135E+02  0.35368593674E+03  0.39697020026E+03  0.12509225138E+03 0.  0.
          5    1    3    3  502    0 -0.32103088968E+02  0.33072013509E+02  0.10757380490E+03  0.11710662790E+03  0.41800000000E+01 0. -1.
         -5    1    3    3    0  502  0.11541551761E+03  0.66439623627E+02  0.24611213185E+03  0.27986357236E+03  0.41800000000E+01 0. -1.
        -11    1    1    2    0    0 -0.10083769087E+03 -0.92803238426E+02  0.46041244095E+03  0.48037516250E+03  0.00000000000E+00 0. -1.
         11    1    1    2    0    0  0.17525262232E+02 -0.67083987095E+01  0.38338357614E+02  0.42684506487E+02  0.00000000000E+00 0.  1.
</event>
<event>
 7    1  0.2626349E-009  0.2269353E+03  0.7561462E-02  0.1128816E+00
          3   -1    0    0  501    0  0.00000000000E+00  0.00000000000E+00  0.40277588331E+03  0.40277588331E+03  0.00000000000E+00 0. -1.
         -3   -1    0    0    0  501 -0.00000000000E+00 -0.00000000000E+00 -0.16608206105E+03  0.16608206105E+03  0.00000000000E+00 0.  1.
         25    2    1    2    0    0 -0.15459224515E+03 -0.13222348185E+03 -0.70367518776E+01  0.23891187371E+03  0.12509019189E+03 0.  0.
          5    1    3    3  502    0 -0.29219736826E+02 -0.97209898948E+02 -0.31569172097E+02  0.10638440910E+03  0.41800000000E+01 0. -1.
         -5    1    3    3    0  502 -0.12537250833E+03 -0.35013582904E+02  0.24532420219E+02  0.13252746460E+03  0.41800000000E+01 0. -1.
        -11    1    1    2    0    0  0.10082412765E+03  0.27798110678E+02  0.12412193889E+03  0.16230987459E+03  0.00000000000E+00 0.  1.
         11    1    1    2    0    0  0.53768117503E+02  0.10442537117E+03  0.11960863525E+03  0.16763619607E+03  0.00000000000E+00 0. -1.
</event>
<event>
 7    1  0.2797485E-009  0.8142653E+02  0.7561462E-02  0.1325051E+00
          1   -1    0    0  501    0  0.00000000000E+00  0.00000000000E+00  0.97660384296E+03  0.97660384296E+03  0.00000000000E+00 0. -1.
         -1   -1    0    0    0  501 -0.00000000000E+00 -0.00000000000E+00 -0.14181954781E+02  0.14181954781E+02  0.00000000000E+00 0.  1.
         25    2    1    2    0    0 -0.87535826456E+01  0.23775313304E+02  0.70297587749E+03  0.71446816238E+03  0.12509108680E+03 0.  0.
          5    1    3    3  502    0  0.22240047439E+02 -0.16174936238E+02  0.58962465199E+03  0.59028040024E+03  0.41800000000E+01 0. -1.
         -5    1    3    3    0  502 -0.30993630084E+02  0.39950249542E+02  0.11335122550E+03  0.12418776214E+03  0.41800000000E+01 0. -1.
        -11    1    1    2    0    0  0.13212325284E+01 -0.53573879550E+02  0.95399201267E+02  0.10942081076E+03  0.00000000000E+00 0.  1.
         11    1    1    2    0    0  0.74323501172E+01  0.29798566246E+02  0.16404680943E+03  0.16689682460E+03  0.00000000000E+00 0. -1.
</event>
<event>
 7    1  0.2626349E-009  0.1075046E+03  0.7561462E-02  0.1265262E+00
         -1   -1    0    0    0  501 -0.00000000000E+00  0.00000000000E+00  0.18188900417E+03  0.18188900417E+03  0.00000000000E+00 0.  1.
          1   -1    0    0  501    0  0.00000000000E+00 -0.00000000000E+00 -0.74110569607E+02  0.74110569607E+02  0.00000000000E+00 0. -1.
         25    2    1    2    0    0  0.17371932311E+02  0.24824055095E+02  0.90701463976E+02  0.15744877276E+03  0.12508134447E+03 0.  0.
          5    1    3    3  502    0 -0.38689972990E+02  0.51740121509E+02  0.58672409496E+02  0.87372067732E+02  0.41800000000E+01 0. -1.
         -5    1    3    3    0  502  0.56061905301E+02 -0.26916066414E+02  0.32029054480E+02  0.70076705032E+02  0.41800000000E+01 0. -1.
        -11    1    1    2    0    0  0.45950387382E+01  0.29231609738E+02 -0.13671330193E+02  0.32596114156E+02  0.00000000000E+00 0. -1.
         11    1    1    2    0    0 -0.21966971049E+02 -0.54055664833E+02  0.30748300778E+02  0.65954686856E+02  0.00000000000E+00 0.  1.
</event>
<event>
 7    1  0.2626349E-009  0.2189933E+03  0.7561462E-02  0.1134636E+00
         -2   -1    0    0    0  501 -0.00000000000E+00  0.00000000000E+00  0.17141329329E+03  0.17141329329E+03  0.00000000000E+00 0.  1.
          2   -1    0    0  501    0  0.00000000000E+00 -0.00000000000E+00 -0.34115994651E+03  0.34115994651E+03  0.00000000000E+00 0. -1.
         25    2    1    2    0    0  0.13285705626E+03 -0.13791422876E+03 -0.19265781717E+03  0.29905728237E+03  0.12508753627E+03 0.  0.
          5    1    3    3  502    0  0.10650019256E+03 -0.15986445382E+03 -0.17654944880E+03  0.26093316172E+03  0.41800000000E+01 0. -1.
         -5    1    3    3    0  502  0.26356863702E+02  0.21950225059E+02 -0.16108368363E+02  0.38124120654E+02  0.41800000000E+01 0. -1.
        -11    1    1    2    0    0 -0.15207044746E+02 -0.12954935617E+02  0.83225090775E+01  0.21641366040E+02  0.00000000000E+00 0.  1.
         11    1    1    2    0    0 -0.11765001152E+03  0.15086916438E+03  0.14588654863E+02  0.19187459139E+03  0.00000000000E+00 0. -1.
</event>
<event>
 7    1  0.2626349E-009  0.1128671E+03  0.7561462E-02  0.1255351E+00
          2   -1    0    0  501    0  0.00000000000E+00  0.00000000000E+00  0.77525814264E+03  0.77525814264E+03  0.00000000000E+00 0. -1.
         -2   -1    0    0    0  501 -0.00000000000E+00 -0.00000000000E+00 -0.19191936602E+02  0.19191936602E+02  0.00000000000E+00 0.  1.
         25    2    1    2    0    0 -0.23068775394E+02  0.36586425858E+02  0.33291132623E+03  0.35825688379E+03  0.12508920293E+03 0.  0.
          5    1    3    3  502    0  0.30739820449E+01 -0.39277001861E+02  0.48032092409E+02  0.62263043148E+02  0.41800000000E+01 0.  1.
         -5    1    3    3    0  502 -0.26142757439E+02  0.75863427719E+02  0.28487923383E+03  0.29599384064E+03  0.41800000000E+01 0.  1.
        -11    1    1    2    0    0  0.52816735570E+02  0.67027863645E+01  0.22177112763E+03  0.22807228668E+03  0.00000000000E+00 0.  1.
         11    1    1    2    0    0 -0.29747960176E+02 -0.43289212222E+02  0.20138375217E+03  0.20812090877E+03  0.00000000000E+00 0. -1.
</event>
<event>
 7    1  0.2626349E-009  0.1432563E+03  0.7561462E-02  0.1209013E+00
         -1   -1    0    0    0  501 -0.00000000000E+00  0.00000000000E+00  0.64129297880E+02  0.64129297880E+02  0.00000000000E+00 0.  1.
          1   -1    0    0  501    0  0.00000000000E+00 -0.00000000000E+00 -0.46400584583E+03  0.46400584583E+03  0.00000000000E+00 0. -1.
         25    2    1    2    0    0  0.38621810967E+02 -0.11096431631E+03 -0.11406976188E+03  0.20606704394E+03  0.12508793805E+03 0.  0.
          5    1    3    3  502    0  0.56283053540E+02 -0.47403012008E+01 -0.12539058890E+02  0.58008214670E+02  0.41800000000E+01 0. -1.
         -5    1    3    3    0  502 -0.17661242573E+02 -0.10622401511E+03 -0.10153070299E+03  0.14805882927E+03  0.41800000000E+01 0. -1.
        -11    1    1    2    0    0 -0.39840180239E+02  0.65726949319E+02 -0.25741732985E+03  0.26864652154E+03  0.00000000000E+00 0. -1.
         11    1    1    2    0    0  0.12183692715E+01  0.45237366991E+02 -0.28389456220E+02  0.53421578229E+02  0.00000000000E+00 0.  1.
</event>
<event>
 7    1  0.2626349E-009  0.1101300E+03  0.7561462E-02  0.1260329E+00
         -3   -1    0    0    0  501 -0.00000000000E+00  0.00000000000E+00  0.43632174086E+03  0.43632174086E+03  0.00000000000E+00 0.  1.
          3   -1    0    0  501    0  0.00000000000E+00 -0.00000000000E+00 -0.59971436068E+02  0.59971436068E+02  0.00000000000E+00 0. -1.
         25    2    1    2    0    0 -0.17323619409E+02 -0.64664794576E+02  0.35124396019E+03  0.37881580005E+03  0.12508975719E+03 0.  0.
          5    1    3    3  502    0  0.44122515716E+02 -0.57682424008E+02  0.24747505200E+03  0.25794463009E+03  0.41800000000E+01 0. -1.
         -5    1    3    3    0  502 -0.61446135124E+02 -0.69823705683E+01  0.10376890819E+03  0.12087116996E+03  0.41800000000E+01 0. -1.
        -11    1    1    2    0    0  0.25399945424E+02  0.57162355389E+01  0.47285161605E+02  0.53978876278E+02  0.00000000000E+00 0.  1.
         11    1    1    2    0    0 -0.80763260155E+01  0.58948559037E+02 -0.22178817002E+02  0.63498500597E+02  0.00000000000E+00 0. -1.
</event>
<event>
 7    1  0.2626349E-009  0.1783528E+03  0.7561462E-02  0.1169407E+00
          1   -1    0    0  501    0  0.00000000000E+00  0.00000000000E+00  0.12993260176E+04  0.12993260176E+04  0.00000000000E+00 0. -1.
         -1   -1    0    0    0  501 -0.00000000000E+00 -0.00000000000E+00 -0.30409795809E+02  0.30409795809E+02  0.00000000000E+00 0.  1.
         25    2    1    2    0    0  0.15883907453E+03  0.48137628450E+01  0.82646296674E+03  0.85084803202E+03  0.12509322239E+03 0.  0.
          5    1    3    3  502    0  0.68576145442E+02  0.45615714923E+02  0.56917766717E+03  0.57512100499E+03  0.41800000000E+01 0. -1.
         -5    1    3    3    0  502  0.90262929089E+02 -0.40801952078E+02  0.25728529957E+03  0.27572702703E+03  0.41800000000E+01 0. -1.
        -11    1    1    2    0    0 -0.12012563030E+03 -0.35974560798E+02  0.37278995557E+03  0.39331499724E+03  0.00000000000E+00 0. -1.
         11    1    1    2    0    0 -0.38713444227E+02  0.31160797953E+02  0.69663299504E+02  0.85572784171E+02  0.00000000000E+00 0.  1.
</event>
<event>
 7    1  0.2626349E-009  0.1391572E+03  0.7561462E-02  0.1214467E+00
          2   -1    0    0  501    0  0.00000000000E+00  0.00000000000E+00  0.17134266631E+03  0.17134266631E+03  0.00000000000E+00 0. -1.
         -2   -1    0    0    0  501 -0.00000000000E+00 -0.00000000000E+00 -0.12307962241E+03  0.12307962241E+03  0.00000000000E+00 0.  1.
         25    2    1    2    0    0 -0.53210030901E+02 -0.97218728650E+02  0.47244710605E+02  0.17367329519E+03  0.12509021621E+03 0.  0.
          5    1    3    3  502    0 -0.51884327331E+02  0.14694774744E+02  0.64252085228E+01  0.54467196843E+02  0.41800000000E+01 0. -1.
         -5    1    3    3    0  502 -0.13257035699E+01 -0.11191350339E+03  0.40819502082E+02  0.11920609834E+03  0.41800000000E+01 0. -1.
        -11    1    1    2    0    0  0.30041120099E+02  0.36708324402E+02 -0.21599955496E+02  0.52120322856E+02  0.00000000000E+00 0.  1.
         11    1    1    2    0    0  0.23168910803E+02  0.60510404248E+02  0.22618288792E+02  0.68628670670E+02  0.00000000000E+00 0. -1.
</event>
<event>
 7    1  0.2626349E-009  0.1069507E+03  0.7561462E-02  0.1266323E+00
         -2   -1    0    0    0  501 -0.00000000000E+00  0.00000000000E+00  0.11778726423E+02  0.11778726423E+02  0.00000000000E+00 0.  1.
          2   -1    0    0  501    0  0.00000000000E+00 -0.00000000000E+00 -0.14595907309E+04  0.14595907309E+04  0.00000000000E+00 0. -1.
         25    2    1    2    0    0 -0.10194729129E+02 -0.61309331289E+02 -0.99891828213E+03  0.10086372743E+04  0.12509456441E+03 0.  0.
          5    1    3    3  502    0 -0.42875486316E+02 -0.52434700585E+02 -0.92195735543E+03  0.92445148211E+03  0.41800000000E+01 0. -1.
         -5    1    3    3    0  502  0.32680757187E+02 -0.88746307036E+01 -0.76960926703E+02  0.84185792147E+02  0.41800000000E+01 0. -1.
        -11    1    1    2    0    0  0.34095705495E+02  0.76392681949E+02 -0.35172003588E+03  0.36153193860E+03  0.00000000000E+00 0.  1.
         11    1    1    2    0    0 -0.23900976366E+02 -0.15083350660E+02 -0.97173686488E+02  0.10120024449E+03  0.00000000000E+00 0. -1.
</event>
<event>
 7    1  0.2626349E-009  0.1450957E+03  0.7561462E-02  0.1206632E+00
         -1   -1    0    0    0  501 -0.00000000000E+00  0.00000000000E+00  0.97277768036E+02  0.97277768036E+02  0.00000000000E+00 0.  1.
          1   -1    0    0  501    0  0.00000000000E+00 -0.00000000000E+00 -0.30940867117E+03  0.30940867117E+03  0.00000000000E+00 0. -1.
         25    2    1    2    0    0 -0.32224960637E+02  0.13117077038E+03 -0.10146486354E+03  0.21020850588E+03  0.12509307863E+03 0.  0.
          5    1    3    3  502    0 -0.14128355499E+02  0.56980450699E+02 -0.11808909855E+03  0.13194275193E+03  0.41800000000E+01 0.  1.
         -5    1    3    3    0  502 -0.18096605138E+02  0.74190319680E+02  0.16624235007E+02  0.78265753950E+02  0.41800000000E+01 0.  1.
        -11    1    1    2    0    0  0.33466555822E+02 -0.11809240765E+02 -0.28097533607E+01  0.35600045506E+02  0.00000000000E+00 0. -1.
         11    1    1    2    0    0 -0.12415951853E+01 -0.11936152961E+03 -0.10785628624E+03  0.16087788783E+03  0.00000000000E+00 0.  1.
</event>
<event>
 7    1  0.2626349E-009  0.1106692E+03  0.7561462E-02  0.1259336E+00
         -1   -1    0    0    0  501 -0.00000000000E+00  0.00000000000E+00  0.12907966800E+03  0.12907966800E+03  0.00000000000E+00 0.  1.
          1   -1    0    0  501    0  0.00000000000E+00 -0.00000000000E+00 -0.16902945343E+03  0.16902945343E+03  0.00000000000E+00 0. -1.
         25    2    1    2    0    0 -0.85073454347E+00 -0.46421756167E+02 -0.11255517589E+03  0.17455319812E+03  0.12507776844E+03 0.  0.
          5    1    3    3  502    0 -0.59077018317E+02 -0.25797974362E+01 -0.61813242535E+02  0.85645191346E+02  0.41800000000E+01 0.  1.
         -5    1    3    3    0  502  0.58226283773E+02 -0.43841958731E+02 -0.50741933352E+02  0.88908006770E+02  0.41800000000E+01 0.  1.
        -11    1    1    2    0    0  0.38232937565E+02  0.27912449211E+02  0.66154209380E+02  0.81346430496E+02  0.00000000000E+00 0.  1.
         11    1    1    2    0    0 -0.37382203022E+02  0.18509306956E+02  0.64511810788E+01  0.42209492819E+02  0.00000000000E+00 0. -1.
</event>
<event>
 7    1  0.2626349E-009  0.1799779E+03  0.7561462E-02  0.1167824E+00
          1   -1    0    0  501    0  0.00000000000E+00  0.00000000000E+00  0.11655937879E+04  0.11655937879E+04  0.00000000000E+00 0. -1.
         -1   -1    0    0    0  501 -0.00000000000E+00 -0.00000000000E+00 -0.35520288202E+02  0.35520288202E+02  0.00000000000E+00 0.  1.
         25    2    1    2    0    0 -0.30277791121E+02 -0.17037028556E+03  0.54136521485E+03  0.58195114842E+03  0.12509222383E+03 0.  0.
          5    1    3    3  502    0 -0.35673949171E+02 -0.39604562563E+02  0.49179334219E+02  0.72644554782E+02  0.41800000000E+01 0.  1.
         -5    1    3    3    0  502  0.53961580495E+01 -0.13076572300E+03  0.49218588063E+03  0.50930659364E+03  0.41800000000E+01 0.  1.
        -11    1    1    2    0    0  0.16886782840E+02  0.29118811660E+02  0.39375277449E+02  0.51802327181E+02  0.00000000000E+00 0.  1.
         11    1    1    2    0    0  0.13391008282E+02  0.14125147390E+03  0.54933300743E+03  0.56736060053E+03  0.00000000000E+00 0. -1.
</event>
<event>
 7    1  0.2626349E-009  0.1496584E+03  0.7561462E-02  0.1200893E+00
          1   -1    0    0  501    0  0.00000000000E+00  0.00000000000E+00  0.73739222662E+03  0.73739222662E+03  0.00000000000E+00 0. -1.
         -1   -1    0    0    0  501 -0.00000000000E+00 -0.00000000000E+00 -0.35877753543E+02  0.35877753543E+02  0.00000000000E+00 0.  1.
         25    2    1    2    0    0  0.11330566049E+03 -0.22271946004E+02  0.28729127090E+03  0.33394312887E+03  0.12509007437E+03 0.  0.
          5    1    3    3  502    0  0.79560823958E+02 -0.70167750167E+02  0.14256873689E+03  0.17775476087E+03  0.41800000000E+01 0.  1.
         -5    1    3    3    0  502  0.33744836536E+02  0.47895804164E+02  0.14472253401E+03  0.15618836801E+03  0.41800000000E+01 0.  1.
        -11    1    1    2    0    0 -0.11740811376E+03  0.33800898350E+02  0.40737951372E+03  0.42530604758E+03  0.00000000000E+00 0. -1.
         11    1    1    2    0    0  0.41024532693E+01 -0.11528952347E+02  0.68436884494E+01  0.14020803709E+02  0.00000000000E+00 0.  1.
</event>
<event>
 7    1  0.2626349E-009  0.4716545E+03  0.7561462E-02  0.1021454E+00
         -1   -1    0    0    0  501 -0.00000000000E+00  0.00000000000E+00  0.13660024942E+03  0.13660024942E+03  0.00000000000E+00 0.  1.
          1   -1    0    0  501    0  0.00000000000E+00 -0.00000000000E+00 -0.18163009074E+04  0.18163009074E+04  0.00000000000E+00 0. -1.
         25    2    1    2    0    0 -0.46563685700E+03 -0.38191882505E+02 -0.11097218463E+04  0.12105401420E+04  0.12509419138E+03 0.  0.
          5    1    3    3  502    0 -0.28520436524E+02  0.20586302117E+01 -0.18103030122E+03  0.18332238166E+03  0.41800000000E+01 0.  1.
         -5    1    3    3    0  502 -0.43711642048E+03 -0.40250512717E+02 -0.92869154506E+03  0.10272177603E+04  0.41800000000E+01 0.  1.
        -11    1    1    2    0    0  0.66325425456E+02  0.37337112569E+02 -0.99416202314E+02  0.12520664247E+03  0.00000000000E+00 0.  1.
         11    1    1    2    0    0  0.39931143155E+03  0.85476993561E+00 -0.47056260938E+03  0.61715437238E+03  0.00000000000E+00 0. -1.
</event>
<event>
 7    1  0.3154688E-009  0.1164132E+03  0.7561462E-02  0.1249134E+00
          2   -1    0    0  501    0  0.00000000000E+00  0.00000000000E+00  0.12305476513E+03  0.12305476513E+03  0.00000000000E+00 0. -1.
         -2   -1    0    0    0  501 -0.00000000000E+00 -0.00000000000E+00 -0.12681330441E+03  0.12681330441E+03  0.00000000000E+00 0.  1.
         25    2    1    2    0    0  0.50014442040E+02  0.35576204393E+02 -0.15602582285E+02  0.14020705959E+03  0.12508984073E+03 0.  0.
          5    1    3    3  502    0 -0.35978908617E+02 -0.70823538924E+01  0.14296144793E+02  0.39578955998E+02  0.41800000000E+01 0. -1.
         -5    1    3    3    0  502  0.85993350657E+02  0.42658558285E+02 -0.29898727078E+02  0.10062810359E+03  0.41800000000E+01 0. -1.
        -11    1    1    2    0    0  0.87462118817E+01 -0.39965678428E+02 -0.16697920215E+02  0.44187919322E+02  0.00000000000E+00 0.  1.
         11    1    1    2    0    0 -0.58760653922E+02  0.43894740356E+01  0.28541963216E+02  0.65473090624E+02  0.00000000000E+00 0. -1.
</event>
<event>
 7    1  0.2626349E-009  0.1294314E+03  0.7561462E-02  0.1228302E+00
         -1   -1    0    0    0  501 -0.00000000000E+00  0.00000000000E+00  0.38419794173E+02  0.38419794173E+02  0.00000000000E+00 0.  1.
          1   -1    0    0  501    0  0.00000000000E+00 -0.00000000000E+00 -0.52973822501E+03  0.52973822501E+03  0.00000000000E+00 0. -1.
         25    2    1    2    0    0 -0.29927312365E+02 -0.77696821443E+02 -0.17363616681E+03  0.22962671026E+03  0.12508584074E+03 0.  0.
          5    1    3    3  502    0 -0.48354191855E+02 -0.10578094567E+03 -0.13641628144E+03  0.17931706717E+03  0.41800000000E+01 0.  1.
         -5    1    3    3    0  502  0.18426879490E+02  0.28084124225E+02 -0.37219885372E+02  0.50309643095E+02  0.41800000000E+01 0.  1.
        -11    1    1    2    0    0  0.33467281833E+02  0.27286091409E+01 -0.16521848173E+03  0.16859611788E+03  0.00000000000E+00 0. -1.
         11    1    1    2    0    0 -0.35399694676E+01  0.74968212302E+02 -0.15246378229E+03  0.16993519103E+03  0.00000000000E+00 0.  1.
</event>
<event>
 7    1  0.2626349E-009  0.1627098E+03  0.7561462E-02  0.1185671E+00
          1   -1    0    0  501    0  0.00000000000E+00  0.00000000000E+00  0.15850985453E+04  0.15850985453E+04  0.00000000000E+00 0. -1.
         -1   -1    0    0    0  501 -0.00000000000E+00 -0.00000000000E+00 -0.43817779129E+02  0.43817779129E+02  0.00000000000E+00 0.  1.
         25    2    1    2    0    0 -0.14438926956E+03 -0.54987226116E+01  0.13807957571E+04  0.13939590576E+04  0.12508570743E+03 0.  0.
          5    1    3    3  502    0 -0.30499064917E+02 -0.48119773385E+02  0.24055322966E+03  0.24724286491E+03  0.41800000000E+01 0.  1.
         -5    1    3    3    0  502 -0.11389020464E+03  0.42621050773E+02  0.11402425274E+04  0.11467161926E+04  0.41800000000E+01 0.  1.
        -11    1    1    2    0    0  0.97203594121E+02  0.15373062569E+02  0.15867519087E+03  0.18671552147E+03  0.00000000000E+00 0. -1.
         11    1    1    2    0    0  0.47185675435E+02 -0.98743399570E+01  0.18098181884E+01  0.48241745384E+02  0.00000000000E+00 0.  1.
</event>
<event>
 7    1  0.2626349E-009  0.9199788E+02  0.7561462E-02  0.1298084E+00
         -1   -1    0    0    0  501 -0.00000000000E+00  0.00000000000E+00  0.27198220964E+02  0.27198220964E+02  0.00000000000E+00 0.  1.
          1   -1    0    0  501    0  0.00000000000E+00 -0.00000000000E+00 -0.69871861395E+03  0.69871861395E+03  0.00000000000E+00 0. -1.
         25    2    1    2    0    0 -0.64263703745E+02 -0.34230302013E+02 -0.48606675870E+03  0.50715928750E+03  0.12509241301E+03 0.  0.
          5    1    3    3  502    0 -0.36518964494E+02 -0.36237653260E+02 -0.55946580936E+02  0.76120264056E+02  0.41800000000E+01 0.  1.
         -5    1    3    3    0  502 -0.27744739251E+02  0.20073512467E+01 -0.43012017776E+03  0.43103902344E+03  0.41800000000E+01 0.  1.
        -11    1    1    2    0    0  0.46692469481E+01 -0.21894550845E+02 -0.87937491339E+01  0.24052094454E+02  0.00000000000E+00 0.  1.
         11    1    1    2    0    0  0.59594456797E+02  0.56124852858E+02 -0.17665988516E+03  0.19470545296E+03  0.00000000000E+00 0. -1.
</event>
<event>
 7    1  0.2626349E-009  0.1264708E+03  0.7561462E-02  0.1232788E+00
         -2   -1    0    0    0  501 -0.00000000000E+00  0.00000000000E+00  0.86053441816E+02  0.86053441816E+02  0.00000000000E+00 0.  1.
          2   -1    0    0  501    0  0.00000000000E+00 -0.00000000000E+00 -0.25325462477E+03  0.25325462477E+03  0.00000000000E+00 0. -1.
         25    2    1    2    0    0  0.43108788216E+02 -0.76493567455E+02 -0.14616592522E+03  0.21147359758E+03  0.12508785431E+03 0.  0.
          5    1    3    3  502    0  0.59011025892E+02  0.12065420425E+02 -0.40871790894E+02  0.72909884362E+02  0.41800000000E+01 0. -1.
         -5    1    3    3    0  502 -0.15902237676E+02 -0.88558987880E+02 -0.10529413433E+03  0.13856371322E+03  0.41800000000E+01 0. -1.
        -11    1    1    2    0    0 -0.50061286660E+02  0.36640713238E+02  0.24700603026E+02  0.66774202193E+02  0.00000000000E+00 0.  1.
         11    1    1    2    0    0  0.69524984443E+01  0.39852854218E+02 -0.45735860760E+02  0.61060266814E+02  0.00000000000E+00 0. -1.
</event>
<event>
 7    1  0.2626349E-009  0.2349380E+03  0.7561462E-02  0.1123212E+00
          1   -1    0    0  501    0  0.00000000000E+00  0.00000000000E+00  0.67960645293E+03  0.67960645293E+03  0.00000000000E+00 0. -1.
         -1   -1    0    0    0  501 -0.00000000000E+00 -0.00000000000E+00 -0.86640241432E+02  0.86640241432E+02  0.00000000000E+00 0.  1.
         25    2    1    2    0    0  0.21549337023E+03  0.68826100624E+01  0.25729685159E+03  0.35823690336E+03  0.12508895298E+03 0.  0.
          5    1    3    3  502    0  0.80616744063E+02  0.51652020403E+02  0.53528006889E+02  0.10977117361E+03  0.41800000000E+01 0. -1.
         -5    1    3    3    0  502  0.13487662617E+03 -0.44769410341E+02  0.20376884470E+03  0.24846572975E+03  0.41800000000E+01 0. -1.
        -11    1    1    2    0    0 -0.48045342432E+02 -0.38366066584E+02  0.84397324837E+02  0.10441847746E+03  0.00000000000E+00 0.  1.
         11    1    1    2    0    0 -0.16744802780E+03  0.31483456522E+02  0.25127203507E+03  0.30359131354E+03  0.00000000000E+00 0. -1.
</event>
<event>
 7    1  0.2626349E-009  0.1344046E+03  0.7561462E-02  0.1221063E+00
          1   -1    0    0  501    0  0.00000000000E+00  0.00000000000E+00  0.45194934001E+02  0.45194934001E+02  0.00000000000E+00 0. -1.
         -1   -1    0    0    0  501 -0.00000000000E+00 -0.00000000000E+00 -0.54497075384E+03  0.54497075384E+03  0.00000000000E+00 0.  1.
         25    2    1    2    0    0 -0.10590846825E+03 -0.28490803613E+02 -0.21724018234E+03  0.27362280161E+03  0.12509121153E+03 0.  0.
          5    1    3    3  502    0 -0.79992277541E+02  0.29459916211E+02 -0.60938209215E+02  0.10486938958E+03  0.41800000000E+01 0.  1.
         -5    1    3    3    0  502 -0.25916190709E+02 -0.57950719824E+02 -0.15630197312E+03  0.16875341203E+03  0.41800000000E+01 0.  1.
        -11    1    1    2    0    0  0.10447676660E+02  0.21768269191E+02 -0.74222495129E+01  0.25260666638E+02  0.00000000000E+00 0. -1.
         11    1    1    2    0    0  0.95460791590E+02  0.67225344217E+01 -0.27511338799E+03  0.29128221959E+03  0.00000000000E+00 0.  1.
</event>
<event>
 7    1  0.3412517E-009  0.1116708E+03  0.7561462E-02  0.1257507E+00
         -2   -1    0    0    0  501 -0.00000000000E+00  0.00000000000E+00  0.67055671254E+02  0.67055671254E+02  0.00000000000E+00 0.  1.
          2   -1    0    0  501    0  0.00000000000E+00 -0.00000000000E+00 -0.20147119653E+03  0.20147119653E+03  0.00000000000E+00 0. -1.
         25    2    1    2    0    0 -0.32895788739E+02 -0.11113110647E+02 -0.10476673877E+03  0.16682444298E+03  0.12509472842E+03 0.  0.
          5    1    3    3  502    0 -0.74368006633E+02  0.20715808928E+02 -0.65033194030E+02  0.10102739171E+03  0.41800000000E+01 0.  1.
         -5    1    3    3    0  502  0.41472217894E+02 -0.31828919575E+02 -0.39733544738E+02  0.65797051270E+02  0.41800000000E+01 0.  1.
        -11    1    1    2    0    0  0.19685491607E+02  0.49348921925E+02 -0.29086600651E+01  0.53209914286E+02  0.00000000000E+00 0.  1.
         11    1    1    2    0    0  0.13210297132E+02 -0.38235811277E+02 -0.26740126448E+02  0.48492510523E+02  0.00000000000E+00 0. -1.
</event>
<event>
 7    1  0.2626349E-009  0.1043693E+03  0.7561462E-02  0.1271367E+00
          1   -1    0    0  501    0  0.00000000000E+00  0.00000000000E+00  0.35963200958E+03  0.35963200958E+03  0.00000000000E+00 0. -1.
         -1   -1    0    0    0  501 -0.00000000000E+00 -0.00000000000E+00 -0.41531988895E+02  0.41531988895E+02  0.00000000000E+00 0.  1.
         25    2    1    2    0    0 -0.24618580109E+02 -0.34876892869E+02  0.23847759406E+03  0.27265398165E+03  0.12508460617E+03 0.  0.
          5    1    3    3  502    0  0.42192390768E+02  0.51623382142E+01  0.36661460863E+02  0.56288388564E+02  0.41800000000E+01 0.  1.
         -5    1    3    3    0  502 -0.66810970877E+02 -0.40039231083E+02  0.20181613319E+03  0.21636559309E+03  0.41800000000E+01 0.  1.
        -11    1    1    2    0    0 -0.28060209076E+02  0.10253195441E+02 -0.48884866790E-01  0.29874834558E+02  0.00000000000E+00 0.  1.
         11    1    1    2    0    0  0.52678789185E+02  0.24623697428E+02  0.79671311494E+02  0.98635182264E+02  0.00000000000E+00 0. -1.
</event>
<event>
 7    1  0.2626349E-009  0.1460230E+03  0.7561462E-02  0.1205447E+00
         -1   -1    0    0    0  501 -0.00000000000E+00  0.00000000000E+00  0.15547846882E+02  0.15547846882E+02  0.00000000000E+00 0.  1.
          1   -1    0    0  501    0  0.00000000000E+00 -0.00000000000E+00 -0.16022547517E+04  0.16022547517E+04  0.00000000000E+00 0. -1.
         25    2    1    2    0    0  0.83269025520E+02 -0.54827246955E+02 -0.11381962848E+04  0.11493821138E+04  0.12509477671E+03 0.  0.
          5    1    3    3  502    0  0.24137658510E+02 -0.88454457754E+02 -0.66367183884E+03  0.66998850715E+03  0.41800000000E+01 0. -1.
         -5    1    3    3    0  502  0.59131367011E+02  0.33627210799E+02 -0.47452444596E+03  0.47939360663E+03  0.41800000000E+01 0. -1.
        -11    1    1    2    0    0 -0.57975468376E+02 -0.13262798019E+02 -0.25178341227E+03  0.25871208600E+03  0.00000000000E+00 0. -1.
         11    1    1    2    0    0 -0.25293557144E+02  0.68090044974E+02 -0.19672720779E+03  0.20970839884E+03  0.00000000000E+00 0.  1.
</event>
<event>
 7    1  0.2626349E-009  0.1382885E+03  0.7561462E-02  0.1215651E+00
         -2   -1    0    0    0  501 -0.00000000000E+00  0.00000000000E+00  0.93481925647E+02  0.93481925647E+02  0.00000000000E+00 0.  1.
          2   -1    0    0  501    0  0.00000000000E+00 -0.00000000000E+00 -0.33237264812E+03  0.33237264812E+03  0.00000000000E+00 0. -1.
         25    2    1    2    0    0  0.12799435847E+03  0.89355911491E+01 -0.18567821319E+03  0.25804140579E+03  0.12508624088E+03 0.  0.
          5    1    3    3  502    0  0.26946244441E+02 -0.10311844470E+02  0.14785028635E+02  0.32687974816E+02  0.41800000000E+01 0.  1.
         -5    1    3    3    0  502  0.10104811403E+03  0.19247435619E+02 -0.20046324183E+03  0.22535343097E+03  0.41800000000E+01 0.  1.
        -11    1    1    2    0    0 -0.25124313187E+02 -0.30348737889E+02 -0.48699559970E+02  0.62641233591E+02  0.00000000000E+00 0. -1.
         11    1    1    2    0    0 -0.10287004529E+03  0.21413146740E+02 -0.45129493083E+01  0.10517193438E+03  0.00000000000E+00 0.  1.
</event>
<event>
 7    1  0.2626349E-009  0.4614374E+03  0.7561462E-02  0.1024365E+00
         -2   -1    0    0    0  501 -0.00000000000E+00  0.00000000000E+00  0.11898790051E+03  0.11898790051E+03  0.00000000000E+00 0.  1.
          2   -1    0    0  501    0  0.00000000000E+00 -0.00000000000E+00 -0.19969524982E+04  0.19969524982E+04  0.00000000000E+00 0. -1.
         25    2    1    2    0    0 -0.41996093375E+03 -0.16534268239E+03 -0.12672134497E+04  0.13509943919E+04  0.12510208321E+03 0.  0.
          5    1    3    3  502    0 -0.26054837511E+03 -0.36187465004E+02 -0.72283518131E+03  0.76922243866E+03  0.41800000000E+01 0. -1.
         -5    1    3    3    0  502 -0.15941255864E+03 -0.12915521738E+03 -0.54437826842E+03  0.58177195322E+03  0.41800000000E+01 0. -1.
        -11    1    1    2    0    0  0.11145145220E+03  0.70276819965E+02 -0.12440392638E+03  0.18120870432E+03  0.00000000000E+00 0. -1.
         11    1    1    2    0    0  0.30850948155E+03  0.95065862421E+02 -0.48634722156E+03  0.58373730249E+03  0.00000000000E+00 0.  1.
</event>
<event>
 7    1  0.2626349E-009  0.8605622E+02  0.7561462E-02  0.1312693E+00
          2   -1    0    0  501    0  0.00000000000E+00  0.00000000000E+00  0.83109107980E+02  0.83109107980E+02  0.00000000000E+00 0. -1.
         -2   -1    0    0    0  501 -0.00000000000E+00 -0.00000000000E+00 -0.21560655700E+03  0.21560655700E+03  0.00000000000E+00 0.  1.
         25    2    1    2    0    0 -0.16688039944E+02  0.76792442133E+02 -0.63070076764E+02  0.16062214084E+03  0.12508424241E+03 0.  0.
          5    1    3    3  502    0 -0.86158688161E+01  0.81182002480E+02 -0.96053308104E+02  0.12612874819E+03  0.41800000000E+01 0. -1.
         -5    1    3    3    0  502 -0.80721711280E+01 -0.43895603477E+01  0.32983231340E+02  0.34493392648E+02  0.41800000000E+01 0. -1.
        -11    1    1    2    0    0  0.15601468606E+02 -0.33370116298E+02 -0.84448863466E+02  0.92133495674E+02  0.00000000000E+00 0.  1.
         11    1    1    2    0    0  0.10865713379E+01 -0.43422325835E+02  0.15021491213E+02  0.45960028465E+02  0.00000000000E+00 0. -1.
</event>
<event>
 7    1  0.2626349E-009  0.4061684E+02  0.7561462E-02  0.1503721E+00
         -2   -1    0    0    0  501 -0.00000000000E+00  0.00000000000E+00  0.86658502724E+02  0.86658502724E+02  0.00000000000E+00 0.  1.
          2   -1    0    0  501    0  0.00000000000E+00 -0.00000000000E+00 -0.13909867479E+03  0.13909867479E+03  0.00000000000E+00 0. -1.
         25    2    1    2    0    0 -0.11075613011E+02  0.14854114580E+02 -0.24523452066E+02  0.12881248139E+03  0.12509173329E+03 0.  0.
          5    1    3    3  502    0  0.10705029618E+02  0.16455048279E+02 -0.72877509500E+02  0.75590806742E+02  0.41800000000E+01 0. -1.
         -5    1    3    3    0  502 -0.21780642629E+02 -0.16009336984E+01  0.48354057434E+02  0.53221674648E+02  0.41800000000E+01 0. -1.
        -11    1    1    2    0    0 -0.11722005853E+02 -0.88635833452E-02  0.30406952040E+02  0.32588160920E+02  0.00000000000E+00 0.  1.
         11    1    1    2    0    0  0.22797618864E+02 -0.14845250997E+02 -0.58323672040E+02  0.64356535202E+02  0.00000000000E+00 0. -1.
</event>
<event>
 7    1  0.2626349E-009  0.1371037E+03  0.7561462E-02  0.1217280E+00
         -1   -1    0    0    0  501 -0.00000000000E+00  0.00000000000E+00  0.13329767305E+03  0.13329767305E+03  0.00000000000E+00 0.  1.
          1   -1    0    0  501    0  0.00000000000E+00 -0.00000000000E+00 -0.19579780332E+03  0.19579780332E+03  0.00000000000E+00 0. -1.
         25    2    1    2    0    0  0.62590697958E+01  0.11787945558E+03 -0.48107660479E+02  0.17859465269E+03  0.12508781303E+03 0.  0.
          5    1    3    3  502    0  0.33481245836E+02  0.80997686777E+01  0.25956234831E+02  0.43333573612E+02  0.41800000000E+01 0. -1.
         -5    1    3    3    0  502 -0.27222176040E+02  0.10977968690E+03 -0.74063895309E+02  0.13526107907E+03  0.41800000000E+01 0. -1.
        -11    1    1    2    0    0  0.16953340914E+02 -0.80957615353E+02  0.30268264959E+02  0.88077915027E+02  0.00000000000E+00 0.  1.
         11    1    1    2    0    0 -0.23212410709E+02 -0.36921840223E+02 -0.44660734755E+02  0.62422908657E+02  0.00000000000E+00 0. -1.
</event>
<event>
 7    1  0.3038262E-009  0.1241500E+03  0.7561462E-02  0.1236404E+00
          2   -1    0    0  501    0  0.00000000000E+00  0.00000000000E+00  0.19397486781E+03  0.19397486781E+03  0.00000000000E+00 0.  1.
         -2   -1    0    0    0  501 -0.00000000000E+00 -0.00000000000E+00 -0.10893558651E+03  0.10893558651E+03  0.00000000000E+00 0. -1.
         25    2    1    2    0    0 -0.84299100474E+02  0.36046265436E+02  0.16187956977E+02  0.15593247994E+03  0.12508883545E+03 0.  0.
          5    1    3    3  502    0  0.33030157377E+02  0.67072169729E+01  0.10873747443E+01  0.33979888753E+02  0.41800000000E+01 0.  1.
         -5    1    3    3    0  502 -0.11732925785E+03  0.29339048464E+02  0.15100582233E+02  0.12195259118E+03  0.41800000000E+01 0.  1.
        -11    1    1    2    0    0  0.40098965867E+02 -0.77479303700E+01 -0.18686575844E+02  0.44912644160E+02  0.00000000000E+00 0. -1.
         11    1    1    2    0    0  0.44200134606E+02 -0.28298335066E+02  0.87537900170E+02  0.10206533022E+03  0.00000000000E+00 0.  1.
</event>
<event>
 7    1  0.2626349E-009  0.9349217E+02  0.7561462E-02  0.1294609E+00
          2   -1    0    0  501    0  0.00000000000E+00  0.00000000000E+00  0.66918007612E+02  0.66918007612E+02  0.00000000000E+00 0. -1.
         -2   -1    0    0    0  501 -0.00000000000E+00 -0.00000000000E+00 -0.18567477509E+03  0.18567477509E+03  0.00000000000E+00 0.  1.
         25    2    1    2    0    0  0.11181053614E+02  0.22986492545E+02 -0.81979002684E+02  0.15172093491E+03  0.12508113531E+03 0.  0.
          5    1    3    3  502    0  0.45859654424E+02  0.39198828990E+02 -0.93653579446E+02  0.11148148475E+03  0.41800000000E+01 0. -1.
         -5    1    3    3    0  502 -0.34678600810E+02 -0.16212336445E+02  0.11674576761E+02  0.40239450167E+02  0.41800000000E+01 0. -1.
        -11    1    1    2    0    0  0.13317627882E+02  0.28237512356E+02 -0.30667290826E+02  0.43762987135E+02  0.00000000000E+00 0.  1.
         11    1    1    2    0    0 -0.24498681496E+02 -0.51224004901E+02 -0.61104739683E+01  0.57108860654E+02  0.00000000000E+00 0. -1.
</event>
<event>
 7    1  0.2626349E-009  0.9652154E+02  0.7561462E-02  0.1287786E+00
         -4   -1    0    0    0  501 -0.00000000000E+00  0.00000000000E+00  0.19625433128E+02  0.19625433128E+02  0.00000000000E+00 0.  1.
          4   -1    0    0  501    0  0.00000000000E+00 -0.00000000000E+00 -0.68060775190E+03  0.68060775190E+03  0.00000000000E+00 0. -1.
         25    2    1    2    0    0 -0.30412270624E+02  0.16939603750E+02 -0.42261921668E+03  0.44211580706E+03  0.12509008021E+03 0.  0.
          5    1    3    3  502    0 -0.60012160985E+02  0.28025893253E+02 -0.11443403591E+03  0.13228579339E+03  0.41800000000E+01 0. -1.
         -5    1    3    3    0  502  0.29599890361E+02 -0.11086289502E+02 -0.30818518077E+03  0.30983001367E+03  0.41800000000E+01 0. -1.
        -11    1    1    2    0    0  0.34730295937E+01  0.35590436151E+02 -0.12867773133E+03  0.13355410747E+03  0.00000000000E+00 0.  1.
         11    1    1    2    0    0  0.26939241030E+02 -0.52530039901E+02 -0.10968537076E+03  0.12456327050E+03  0.00000000000E+00 0. -1.
</event>
<event>
 7    1  0.2626349E-009  0.2612912E+03  0.7561462E-02  0.1106370E+00
          1   -1    0    0  501    0  0.00000000000E+00  0.00000000000E+00  0.35962809373E+03  0.35962809373E+03  0.00000000000E+00 0. -1.
         -1   -1    0    0    0  501 -0.00000000000E+00 -0.00000000000E+00 -0.30106078033E+03  0.30106078033E+03  0.00000000000E+00 0.  1.
         25    2    1    2    0    0  0.18440645107E+03  0.15875630325E+03  0.22333568364E+03  0.35317948954E+03  0.12509045219E+03 0.  0.
          5    1    3    3  502    0 -0.95617286377E+01 -0.30174012432E+01  0.38942604639E+02  0.40429323774E+02  0.41800000000E+01 0.  1.
         -5    1    3    3    0  502  0.19396817971E+03  0.16177370449E+03  0.18439307900E+03  0.31275016577E+03  0.41800000000E+01 0.  1.
        -11    1    1    2    0    0 -0.18808256414E+03 -0.12654909592E+03 -0.13737824144E+03  0.26507075628E+03  0.00000000000E+00 0.  1.
         11    1    1    2    0    0  0.36761130681E+01 -0.32207207326E+02 -0.27390128793E+02  0.42438628233E+02  0.00000000000E+00 0. -1.
</event>
<event>
 7    1  0.2626349E-009  0.1102801E+03  0.7561462E-02  0.1260052E+00
          2   -1    0    0  501    0  0.00000000000E+00  0.00000000000E+00  0.34941390485E+03  0.34941390485E+03  0.00000000000E+00 0.  1.
         -2   -1    0    0    0  501 -0.00000000000E+00 -0.00000000000E+00 -0.38100409986E+02  0.38100409986E+02  0.00000000000E+00 0. -1.
         25    2    1    2    0    0  0.32461220766E+02  0.22462189134E+02  0.18527488719E+03  0.22700257059E+03  0.12508038390E+03 0.  0.
          5    1    3    3  502    0  0.79836281781E+02  0.20118038139E+02  0.10283816533E+03  0.13180185126E+03  0.41800000000E+01 0. -1.
         -5    1    3    3    0  502 -0.47375061015E+02  0.23441509950E+01  0.82436721862E+02  0.95200719332E+02  0.41800000000E+01 0. -1.
        -11    1    1    2    0    0 -0.53799011459E+02  0.68668163329E+01  0.10601312466E+03  0.11908093634E+03  0.00000000000E+00 0.  1.
         11    1    1    2    0    0  0.21337790693E+02 -0.29329005467E+02  0.20025483018E+02  0.41430807902E+02  0.00000000000E+00 0. -1.
</event>
<event>
 7    1  0.2626349E-009  0.1363224E+03  0.7561462E-02  0.1218365E+00
         -2   -1    0    0    0  501 -0.00000000000E+00  0.00000000000E+00  0.43058745877E+02  0.43058745877E+02  0.00000000000E+00 0. -1.
          2   -1    0    0  501    0  0.00000000000E+00 -0.00000000000E+00 -0.77517417516E+03  0.77517417516E+03  0.00000000000E+00 0.  1.
         25    2    1    2    0    0 -0.77560726833E+02  0.60572923619E+02 -0.63168118429E+03  0.65142325071E+03  0.12508552098E+03 0.  0.
          5    1    3    3  502    0 -0.10405892433E+03  0.50906045727E+02 -0.35889664762E+03  0.37715243774E+03  0.41800000000E+01 0.  1.
         -5    1    3    3    0  502  0.26498197498E+02  0.96668778924E+01 -0.27278453667E+03  0.27427081297E+03  0.41800000000E+01 0.  1.
        -11    1    1    2    0    0 -0.17685942999E+02 -0.78951882059E+01 -0.34467228262E+02  0.39536266903E+02  0.00000000000E+00 0.  1.
         11    1    1    2    0    0  0.95246669832E+02 -0.52677735413E+02 -0.65967016731E+02  0.12727340342E+03  0.00000000000E+00 0. -1.
</event>
<event>
 7    1  0.2626349E-009  0.4153580E+03  0.7561462E-02  0.1038588E+00
          2   -1    0    0  501    0  0.00000000000E+00  0.00000000000E+00  0.22971560129E+04  0.22971560129E+04  0.00000000000E+00 0.  1.
         -2   -1    0    0    0  501 -0.00000000000E+00 -0.00000000000E+00 -0.79053885771E+02  0.79053885771E+02  0.00000000000E+00 0. -1.
         25    2    1    2    0    0 -0.35969312319E+03  0.18252201354E+03  0.13546708392E+04  0.14189693059E+04  0.12508948903E+03 0.  0.
          5    1    3    3  502    0 -0.21897716032E+03  0.41415589464E+02  0.70108354304E+03  0.73566422675E+03  0.41800000000E+01 0. -1.
         -5    1    3    3    0  502 -0.14071596287E+03  0.14110642408E+03  0.65358729618E+03  0.68330507919E+03  0.41800000000E+01 0. -1.
        -11    1    1    2    0    0  0.20448852954E+03 -0.67593166428E+02  0.38220851306E+03  0.43871145679E+03  0.00000000000E+00 0. -1.
         11    1    1    2    0    0  0.15520459365E+03 -0.11492884711E+03  0.48122277483E+03  0.51852913592E+03  0.00000000000E+00 0.  1.
</event>
<event>
 7    1  0.2626349E-009  0.8140047E+02  0.7561462E-02  0.1325123E+00
          1   -1    0    0  501    0  0.00000000000E+00  0.00000000000E+00  0.81388860881E+03  0.81388860881E+03  0.00000000000E+00 0. -1.
         -1   -1    0    0    0  501 -0.00000000000E+00 -0.00000000000E+00 -0.15714987580E+02  0.15714987580E+02  0.00000000000E+00 0.  1.
         25    2    1    2    0    0 -0.38735653484E+02 -0.17939500946E+02  0.40637141007E+03  0.42732573378E+03  0.12508910138E+03 0.  0.
          5    1    3    3  502    0 -0.14983048618E+02 -0.37570982428E+02  0.39012802535E+03  0.39224153149E+03  0.41800000000E+01 0.  1.
         -5    1    3    3    0  502 -0.23752604866E+02  0.19631481482E+02  0.16243384727E+02  0.35084202293E+02  0.41800000000E+01 0.  1.
        -11    1    1    2    0    0  0.82463439062E+01  0.47715412700E+02  0.19623756185E+03  0.20212358467E+03  0.00000000000E+00 0.  1.
         11    1    1    2    0    0  0.30489309577E+02 -0.29775911754E+02  0.19556464931E+03  0.20015427794E+03  0.00000000000E+00 0. -1.
</event>
<event>
 7    1  0.2626349E-009  0.9198959E+02  0.7561462E-02  0.1298104E+00
          1   -1    0    0  501    0  0.00000000000E+00  0.00000000000E+00  0.13704299032E+03  0.13704299032E+03  0.00000000000E+00 0. -1.
         -1   -1    0    0    0  501 -0.00000000000E+00 -0.00000000000E+00 -0.92450359492E+02  0.92450359492E+02  0.00000000000E+00 0.  1.
         25    2    1    2    0    0  0.12672557982E+02  0.60462371857E+01  0.38794308522E+01  0.12593559449E+03  0.12509026047E+03 0.  0.
          5    1    3    3  502    0  0.50720867249E+02 -0.17197301025E+02  0.41153061383E+02  0.67671267154E+02  0.41800000000E+01 0. -1.
         -5    1    3    3    0  502 -0.38048309267E+02  0.23243538211E+02 -0.37273630531E+02  0.58264327334E+02  0.41800000000E+01 0. -1.
        -11    1    1    2    0    0 -0.76871613570E+01 -0.45280197652E+02  0.44344228874E+02  0.63841987623E+02  0.00000000000E+00 0. -1.
         11    1    1    2    0    0 -0.49853966250E+01  0.39233960467E+02 -0.36310288959E+01  0.39715767703E+02  0.00000000000E+00 0.  1.
</event>
<event>
 7    1  0.2626349E-009  0.1009493E+03  0.7561462E-02  0.1278312E+00
         -4   -1    0    0    0  501 -0.00000000000E+00  0.00000000000E+00  0.67524675369E+03  0.67524675369E+03  0.00000000000E+00 0. -1.
          4   -1    0    0  501    0  0.00000000000E+00 -0.00000000000E+00 -0.24803921674E+02  0.24803921674E+02  0.00000000000E+00 0.  1.
         25    2    1    2    0    0  0.19357453477E+02 -0.61190848101E+02  0.41450649188E+03  0.43770158490E+03  0.12509202500E+03 0.  0.
          5    1    3    3  502    0 -0.42295898133E+01  0.16966396885E+02  0.30892892257E+01  0.18241824502E+02  0.41800000000E+01 0.  1.
         -5    1    3    3    0  502  0.23587043291E+02 -0.78157244986E+02  0.41141720266E+03  0.41945976040E+03  0.41800000000E+01 0.  1.
        -11    1    1    2    0    0  0.27955693950E+02  0.44694233620E+01  0.21503971384E+02  0.35551615360E+02  0.00000000000E+00 0.  1.
         11    1    1    2    0    0 -0.47313147427E+02  0.56721424739E+02  0.21443236875E+03  0.22679747510E+03  0.00000000000E+00 0. -1.
</event>
<event>
 7    1  0.2626349E-009  0.2216347E+03  0.7561462E-02  0.1132670E+00
         -2   -1    0    0    0  501 -0.00000000000E+00  0.00000000000E+00  0.24974690858E+03  0.24974690858E+03  0.00000000000E+00 0.  1.
          2   -1    0    0  501    0  0.00000000000E+00 -0.00000000000E+00 -0.27209787522E+03  0.27209787522E+03  0.00000000000E+00 0. -1.
         25    2    1    2    0    0 -0.20017999036E+03 -0.34946427949E+02  0.10957670957E+03  0.26257710311E+03  0.12508556444E+03 0.  0.
          5    1    3    3  502    0 -0.15993647755E+03 -0.77985206108E+02  0.68901414739E+02  0.19085661260E+03  0.41800000000E+01 0. -1.
         -5    1    3    3    0  502 -0.40243512816E+02  0.43038778159E+02  0.40675294830E+02  0.71720490508E+02  0.41800000000E+01 0. -1.
        -11    1    1    2    0    0  0.70765130151E+02 -0.45337635042E+01 -0.89518156332E+00  0.70915865692E+02  0.00000000000E+00 0.  1.
         11    1    1    2    0    0  0.12941486021E+03  0.39480191453E+02 -0.13103249464E+03  0.18835181500E+03  0.00000000000E+00 0. -1.
</event>
<event>
 7    1  0.2955374E-009  0.1649596E+03  0.7561462E-02  0.1183209E+00
          1   -1    0    0  501    0  0.00000000000E+00  0.00000000000E+00  0.14350923476E+03  0.14350923476E+03  0.00000000000E+00 0. -1.
         -1   -1    0    0    0  501 -0.00000000000E+00 -0.00000000000E+00 -0.22468555208E+03  0.22468555208E+03  0.00000000000E+00 0.  1.
         25    2    1    2    0    0  0.10018272963E+03  0.99906478421E+02 -0.63874059910E+02  0.19936184160E+03  0.12508942645E+03 0.  0.
          5    1    3    3  502    0 -0.15513073016E+02  0.19740131537E+02 -0.52183574471E+02  0.58059676817E+02  0.41800000000E+01 0. -1.
         -5    1    3    3    0  502  0.11569580265E+03  0.80166346884E+02 -0.11690485439E+02  0.14130216478E+03  0.41800000000E+01 0. -1.
        -11    1    1    2    0    0 -0.27341982256E+02 -0.85013003092E+02  0.94910561466E+01  0.89804648183E+02  0.00000000000E+00 0.  1.
         11    1    1    2    0    0 -0.72840747373E+02 -0.14893475328E+02 -0.26793313549E+02  0.79028297059E+02  0.00000000000E+00 0. -1.
</event>
<event>
 7    1  0.2626349E-009  0.1070365E+03  0.7561462E-02  0.1266158E+00
         -2   -1    0    0    0  501 -0.00000000000E+00  0.00000000000E+00  0.16702726036E+03  0.16702726036E+03  0.00000000000E+00 0.  1.
          2   -1    0    0  501    0  0.00000000000E+00 -0.00000000000E+00 -0.11690422089E+03  0.11690422089E+03  0.00000000000E+00 0. -1.
         25    2    1    2    0    0  0.44364971616E+02  0.20149126132E+02 -0.45728768356E+02  0.14181899960E+03  0.12508904989E+03 0.  0.
          5    1    3    3  502    0 -0.34499828296E+02  0.40809961834E+01 -0.50097139095E+02  0.61107188020E+02  0.41800000000E+01 0.  1.
         -5    1    3    3    0  502  0.78864799912E+02  0.16068129949E+02  0.43683707390E+01  0.80711811578E+02  0.41800000000E+01 0.  1.
        -11    1    1    2    0    0 -0.56976668957E+01 -0.49572946411E+02  0.72982375003E+02  0.88410222741E+02  0.00000000000E+00 0.  1.
         11    1    1    2    0    0 -0.38667304721E+02  0.29423820279E+02  0.22869432823E+02  0.53702258908E+02  0.00000000000E+00 0. -1.
</event>
<event>
 7    1  0.2626349E-009  0.1146668E+03  0.7561462E-02  0.1252164E+00
          2   -1    0    0  501    0  0.00000000000E+00  0.00000000000E+00  0.11977056365E+04  0.11977056365E+04  0.00000000000E+00 0. -1.
         -2   -1    0    0    0  501 -0.00000000000E+00 -0.00000000000E+00 -0.24249817319E+02  0.24249817319E+02  0.00000000000E+00 0.  1.
         25    2    1    2    0    0  0.24190123617E+02  0.57787962913E+02  0.10376267915E+04  0.10470158572E+04  0.12509290969E+03 0.  0.
          5    1    3    3  502    0  0.45052220008E+02  0.80998963998E+02  0.93689034740E+03  0.94147306396E+03  0.41800000000E+01 0.  1.
         -5    1    3    3    0  502 -0.20862096391E+02 -0.23211001085E+02  0.10073644412E+03  0.10554279327E+03  0.41800000000E+01 0.  1.
        -11    1    1    2    0    0 -0.55966945345E+02 -0.37324989269E+02  0.11075079331E+03  0.12958083197E+03  0.00000000000E+00 0. -1.
         11    1    1    2    0    0  0.31776821728E+02 -0.20462973644E+02  0.25078234329E+02  0.45358764606E+02  0.00000000000E+00 0.  1.
</event>
<event>
 7    1  0.3181518E-009  0.1179009E+03  0.7561462E-02  0.1246601E+00
          1   -1    0    0  501    0  0.00000000000E+00  0.00000000000E+00  0.54448613961E+03  0.54448613961E+03  0.00000000000E+00 0. -1.
         -1   -1    0    0    0  501 -0.00000000000E+00 -0.00000000000E+00 -0.34272180622E+02  0.34272180622E+02  0.00000000000E+00 0.  1.
         25    2    1    2    0    0  0.44179155642E+02 -0.69557614455E+02  0.27051077049E+03  0.30921400677E+03  0.12508863063E+03 0.  0.
          5    1    3    3  502    0 -0.39500640076E+02  0.11109348261E+01  0.61803691974E+02  0.73475870081E+02  0.41800000000E+01 0. -1.
         -5    1    3    3    0  502  0.83679795718E+02 -0.70668549281E+02  0.20870707851E+03  0.23573813669E+03  0.41800000000E+01 0. -1.
        -11    1    1    2    0    0 -0.23381252859E+02  0.14280656313E+02  0.54159082732E+01  0.27927624181E+02  0.00000000000E+00 0.  1.
         11    1    1    2    0    0 -0.20797902783E+02  0.55276958142E+02  0.23428728023E+03  0.24161668928E+03  0.00000000000E+00 0. -1.
</event>
<event>
 7    1  0.2626349E-009  0.6532737E+02  0.7561462E-02  0.1376744E+00
         -1   -1    0    0    0  501 -0.00000000000E+00  0.00000000000E+00  0.11048513317E+03  0.11048513317E+03  0.00000000000E+00 0.  1.
          1   -1    0    0  501    0  0.00000000000E+00 -0.00000000000E+00 -0.13655149745E+03  0.13655149745E+03  0.00000000000E+00 0. -1.
         25    2    1    2    0    0  0.39443047535E+02 -0.13896804720E+01  0.34627762057E+02  0.13566055377E+03  0.12508804393E+03 0.  0.
          5    1    3    3  502    0  0.23758687547E+02  0.37875438882E+02 -0.33046263856E+02  0.55754390493E+02  0.41800000000E+01 0.  1.
         -5    1    3    3    0  502  0.15684359989E+02 -0.39265119354E+02  0.67674025914E+02  0.79906163276E+02  0.41800000000E+01 0.  1.
        -11    1    1    2    0    0 -0.24063518464E+02  0.95042666481E+01 -0.80772217632E+02  0.84814710673E+02  0.00000000000E+00 0. -1.
         11    1    1    2    0    0 -0.15379529072E+02 -0.81145861760E+01  0.20078091299E+02  0.26561366182E+02  0.00000000000E+00 0.  1.
</event>
<event>
 7    1  0.2626349E-009  0.1093192E+03  0.7561462E-02  0.1261836E+00
         -3   -1    0    0    0  501 -0.00000000000E+00  0.00000000000E+00  0.10498318807E+03  0.10498318807E+03  0.00000000000E+00 0.  1.
          3   -1    0    0  501    0  0.00000000000E+00 -0.00000000000E+00 -0.18864904526E+03  0.18864904526E+03  0.00000000000E+00 0. -1.
         25    2    1    2    0    0  0.20559613753E+02 -0.57049367853E+02 -0.11209731275E+03  0.17858201326E+03  0.12509356436E+03 0.  0.
          5    1    3    3  502    0 -0.37939850705E+02 -0.68982406794E+02 -0.69762672796E+02  0.10527253979E+03  0.41800000000E+01 0.  1.
         -5    1    3    3    0  502  0.58499464458E+02  0.11933038942E+02 -0.42334639954E+02  0.73309473469E+02  0.41800000000E+01 0.  1.
        -11    1    1    2    0    0 -0.33910991122E+02  0.17403549510E+02  0.53943537593E+02  0.66051071925E+02  0.00000000000E+00 0.  1.
         11    1    1    2    0    0  0.13351377368E+02  0.39645818343E+02 -0.25512082036E+02  0.48999148151E+02  0.00000000000E+00 0. -1.
</event>
<event>
 7    1  0.2626349E-009  0.1040892E+03  0.7561462E-02  0.1271925E+00
          2   -1    0    0  501    0  0.00000000000E+00  0.00000000000E+00  0.10017547250E+03  0.10017547250E+03  0.00000000000E+00 0. -1.
         -2   -1    0    0    0  501 -0.00000000000E+00 -0.00000000000E+00 -0.12958266624E+03  0.12958266624E+03  0.00000000000E+00 0.  1.
         25    2    1    2    0    0  0.14226694692E+02  0.22391880124E+02 -0.38030576866E+02  0.13340594171E+03  0.12508807045E+03 0.  0.
          5    1    3    3  502    0  0.10165298738E+02  0.70693198593E+02 -0.44610240808E+02  0.84311372961E+02  0.41800000000E+01 0.  1.
         -5    1    3    3    0  502  0.40613959543E+01 -0.48301318469E+02  0.65796639414E+01  0.49094568748E+02  0.41800000000E+01 0.  1.
        -11    1    1    2    0    0 -0.33560913462E+02  0.21613698235E+02 -0.15190071066E+02  0.42710948512E+02  0.00000000000E+00 0.  1.
         11    1    1    2    0    0  0.19334218770E+02 -0.44005578359E+02  0.23813454196E+02  0.53641248521E+02  0.00000000000E+00 0. -1.
</event>
<event>
 7    1  0.2807681E-009  0.1176501E+03  0.7561462E-02  0.1247025E+00
          1   -1    0    0  501    0  0.00000000000E+00  0.00000000000E+00  0.16295237596E+03  0.16295237596E+03  0.00000000000E+00 0. -1.
         -1   -1    0    0    0  501 -0.00000000000E+00 -0.00000000000E+00 -0.11338455054E+03  0.11338455054E+03  0.00000000000E+00 0.  1.
         25    2    1    2    0    0 -0.54609540258E+02  0.56443722761E+02  0.50310543684E+02  0.15603349953E+03  0.12508879423E+03 0.  0.
          5    1    3    3  502    0 -0.87939536070E+02  0.75595753053E+01  0.31490973028E+02  0.93806518778E+02  0.41800000000E+01 0.  1.
         -5    1    3    3    0  502  0.33329995812E+02  0.48884147456E+02  0.18819570656E+02  0.62226980747E+02  0.41800000000E+01 0.  1.
        -11    1    1    2    0    0  0.64952513744E+01 -0.33853511147E+02  0.40385173439E+02  0.53096240367E+02  0.00000000000E+00 0. -1.
         11    1    1    2    0    0  0.48114288884E+02 -0.22590211614E+02 -0.41127891705E+02  0.67207186608E+02  0.00000000000E+00 0.  1.
</event>
<event>
 7    1  0.2626349E-009  0.2310166E+03  0.7561462E-02  0.1125926E+00
          2   -1    0    0  501    0  0.00000000000E+00  0.00000000000E+00  0.74976372156E+03  0.74976372156E+03  0.00000000000E+00 0. -1.
         -2   -1    0    0    0  501 -0.00000000000E+00 -0.00000000000E+00 -0.74026603254E+02  0.74026603254E+02  0.00000000000E+00 0.  1.
         25    2    1    2    0    0  0.16238502979E+03 -0.13105294662E+03  0.34971067928E+03  0.42601509940E+03  0.12509009952E+03 0.  0.
          5    1    3    3  502    0 -0.74658523865E+01 -0.41023589864E+02  0.11620538627E+03  0.12353071713E+03  0.41800000000E+01 0.  1.
         -5    1    3    3    0  502  0.16985088217E+03 -0.90029356753E+02  0.23350529301E+03  0.30248438227E+03  0.41800000000E+01 0.  1.
        -11    1    1    2    0    0  0.10300432361E+02 -0.11505719572E+01  0.16438547424E+02  0.19433182036E+02  0.00000000000E+00 0.  1.
         11    1    1    2    0    0 -0.17268546215E+03  0.13220351857E+03  0.30958789161E+03  0.37834204338E+03  0.00000000000E+00 0. -1.
</event>
<event>
 7    1  0.2626349E-009  0.1116946E+03  0.7561462E-02  0.1257464E+00
         -1   -1    0    0    0  501 -0.00000000000E+00  0.00000000000E+00  0.84498466419E+03  0.84498466419E+03  0.00000000000E+00 0.  1.
          1   -1    0    0  501    0  0.00000000000E+00 -0.00000000000E+00 -0.17346153916E+02  0.17346153916E+02  0.00000000000E+00 0. -1.
         25    2    1    2    0    0 -0.13396758230E+02 -0.17938793743E+02  0.30237371858E+03  0.32799162218E+03  0.12508942834E+03 0.  0.
          5    1    3    3  502    0  0.80330606129E+01  0.51804223598E+02  0.10306192787E+03  0.11570410979E+03  0.41800000000E+01 0.  1.
         -5    1    3    3    0  502 -0.21429818842E+02 -0.69743017341E+02  0.19931179071E+03  0.21228751239E+03  0.41800000000E+01 0.  1.
        -11    1    1    2    0    0  0.51710447248E+02  0.27018916424E+02  0.33503302750E+03  0.34007517068E+03  0.00000000000E+00 0.  1.
         11    1    1    2    0    0 -0.38313689018E+02 -0.90801226811E+01  0.19023176420E+03  0.19426402524E+03  0.00000000000E+00 0. -1.
</event>
<event>
 7    1  0.2626349E-009  0.8943750E+02  0.7561462E-02  0.1304220E+00
         -2   -1    0    0    0  501 -0.00000000000E+00  0.00000000000E+00  0.10430803808E+03  0.10430803808E+03  0.00000000000E+00 0.  1.
          2   -1    0    0  501    0  0.00000000000E+00 -0.00000000000E+00 -0.17944720264E+03  0.17944720264E+03  0.00000000000E+00 0. -1.
         25    2    1    2    0    0  0.68042570719E+01 -0.53752612999E+02  0.23816767261E+02  0.13838016551E+03  0.12508473322E+03 0.  0.
          5    1    3    3  502    0  0.49276223132E+02  0.49628690883E+01  0.40250992225E+02  0.63956164760E+02  0.41800000000E+01 0. -1.
         -5    1    3    3    0  502 -0.42471966060E+02 -0.58715482088E+02 -0.16434224964E+02  0.74424000752E+02  0.41800000000E+01 0. -1.
        -11    1    1    2    0    0 -0.11187376460E+02  0.23603717842E+02  0.13121095392E+02  0.29231079903E+02  0.00000000000E+00 0.  1.
         11    1    1    2    0    0  0.43831193879E+01  0.30148895157E+02 -0.11207702722E+03  0.11614399530E+03  0.00000000000E+00 0. -1.
</event>
<event>
 7    1  0.2626349E-009  0.1115116E+03  0.7561462E-02  0.1257796E+00
         -2   -1    0    0    0  501 -0.00000000000E+00  0.00000000000E+00  0.22601264270E+02  0.22601264270E+02  0.00000000000E+00 0.  1.
          2   -1    0    0  501    0  0.00000000000E+00 -0.00000000000E+00 -0.70921060725E+03  0.70921060725E+03  0.00000000000E+00 0. -1.
         25    2    1    2    0    0 -0.15681335128E+02  0.64892665253E+02 -0.34100179047E+03  0.36930316874E+03  0.12508256099E+03 0.  0.
          5    1    3    3  502    0  0.53036138693E+02  0.19476343114E+02 -0.10506124127E+03  0.11936287851E+03  0.41800000000E+01 0. -1.
         -5    1    3    3    0  502 -0.68717473821E+02  0.45416322139E+02 -0.23594054920E+03  0.24994029023E+03  0.41800000000E+01 0. -1.
        -11    1    1    2    0    0  0.32409867575E+02 -0.56601508461E+02 -0.33446664176E+03  0.34076687739E+03  0.00000000000E+00 0. -1.
         11    1    1    2    0    0 -0.16728532448E+02 -0.82911567918E+01 -0.11140910746E+02  0.21741825385E+02  0.00000000000E+00 0.  1.
</event>
<event>
 7    1  0.2626349E-009  0.9458017E+02  0.7561462E-02  0.1292124E+00
          1   -1    0    0  501    0  0.00000000000E+00  0.00000000000E+00  0.20148464345E+03  0.20148464345E+03  0.00000000000E+00 0. -1.
         -1   -1    0    0    0  501 -0.00000000000E+00 -0.00000000000E+00 -0.71127364616E+02  0.71127364616E+02  0.00000000000E+00 0.  1.
         25    2    1    2    0    0 -0.31075562341E+01 -0.48651897937E+02  0.74330512044E+02  0.15345723629E+03  0.12508970489E+03 0.  0.
          5    1    3    3  502    0  0.16450476359E+02  0.22263099621E+02 -0.19527589156E+02  0.34133017966E+02  0.41800000000E+01 0.  1.
         -5    1    3    3    0  502 -0.19558032593E+02 -0.70914997558E+02  0.93858101200E+02  0.11932421832E+03  0.41800000000E+01 0.  1.
        -11    1    1    2    0    0  0.34242622344E+02  0.61382650314E+01  0.56623043802E+02  0.66456034880E+02  0.00000000000E+00 0. -1.
         11    1    1    2    0    0 -0.31135066110E+02  0.42513632905E+02 -0.59627700869E+00  0.52698736899E+02  0.00000000000E+00 0.  1.
</event>
<event>
 7    1  0.2626349E-009  0.9210031E+02  0.7561462E-02  0.1297844E+00
         -1   -1    0    0    0  501 -0.00000000000E+00  0.00000000000E+00  0.64073041542E+03  0.64073041542E+03  0.00000000000E+00 0.  1.
          1   -1    0    0  501    0  0.00000000000E+00 -0.00000000000E+00 -0.23227434724E+02  0.23227434724E+02  0.00000000000E+00 0. -1.
         25    2    1    2    0    0  0.22948790167E+02  0.55703638068E+01  0.47917621894E+03  0.49579732439E+03  0.12508981635E+03 0.  0.
          5    1    3    3  502    0 -0.37845206000E+02  0.13633425098E+01  0.53040691260E+02  0.65306245102E+02  0.41800000000E+01 0. -1.
         -5    1    3    3    0  502  0.60793996167E+02  0.42070212971E+01  0.42613552768E+03  0.43049107929E+03  0.41800000000E+01 0. -1.
        -11    1    1    2    0    0 -0.24937391794E+02 -0.41832621812E+02  0.11528782486E+03  0.12515240436E+03  0.00000000000E+00 0.  1.
         11    1    1    2    0    0  0.19886016265E+01  0.36262258005E+02  0.23038936899E+02  0.43008121390E+02  0.00000000000E+00 0. -1.
</event>
<event>
 7    1  0.2626349E-009  0.7668105E+02  0.7561462E-02  0.1338743E+00
         -1   -1    0    0    0  501 -0.00000000000E+00  0.00000000000E+00  0.12406615936E+03  0.12406615936E+03  0.00000000000E+00 0.  1.
          1   -1    0    0  501    0  0.00000000000E+00 -0.00000000000E+00 -0.12719366190E+03  0.12719366190E+03  0.00000000000E+00 0. -1.
         25    2    1    2    0    0 -0.31100399707E+02  0.18559037756E+02  0.49014715117E+02  0.13914575346E+03  0.12508967049E+03 0.  0.
          5    1    3    3  502    0 -0.13223128375E+02 -0.21576043015E+02 -0.35502854389E+02  0.43798422642E+02  0.41800000000E+01 0. -1.
         -5    1    3    3    0  502 -0.17877271332E+02  0.40135080771E+02  0.84517569506E+02  0.95347330817E+02  0.41800000000E+01 0. -1.
        -11    1    1    2    0    0 -0.41452418054E+01  0.26246399476E+02 -0.48115632077E+02  0.54965175932E+02  0.00000000000E+00 0. -1.
         11    1    1    2    0    0  0.35245641512E+02 -0.44805437232E+02 -0.40265855789E+01  0.57148891876E+02  0.00000000000E+00 0.  1.
</event>
<event>
 7    1  0.2626349E-009  0.1010319E+03  0.7561462E-02  0.1278141E+00
          2   -1    0    0  501    0  0.00000000000E+00  0.00000000000E+00  0.57966575949E+02  0.57966575949E+02  0.00000000000E+00 0.  1.
         -2   -1    0    0    0  501 -0.00000000000E+00 -0.00000000000E+00 -0.48505520014E+03  0.48505520014E+03  0.00000000000E+00 0. -1.
         25    2    1    2    0    0  0.40802399942E+02 -0.75284796776E+02 -0.74599967667E+02  0.16895294117E+03  0.12508918694E+03 0.  0.
          5    1    3    3  502    0  0.69343149630E+01 -0.83411489464E+01 -0.91252628097E+02  0.91990075684E+02  0.41800000000E+01 0. -1.
         -5    1    3    3    0  502  0.33868084979E+02 -0.66943647830E+02  0.16652660430E+02  0.76962865489E+02  0.41800000000E+01 0. -1.
        -11    1    1    2    0    0 -0.34132248477E+02 -0.52110503627E+01 -0.18410365640E+03  0.18731343179E+03  0.00000000000E+00 0. -1.
         11    1    1    2    0    0 -0.66701514644E+01  0.80495847139E+02 -0.16838500013E+03  0.18675540312E+03  0.00000000000E+00 0.  1.
</event>
<event>
 7    1  0.2626349E-009  0.1148177E+03  0.7561462E-02  0.1251900E+00
          2   -1    0    0  501    0  0.00000000000E+00  0.00000000000E+00  0.13217793080E+04  0.13217793080E+04  0.00000000000E+00 0. -1.
         -2   -1    0    0    0  501 -0.00000000000E+00 -0.00000000000E+00 -0.14788811485E+02  0.14788811485E+02  0.00000000000E+00 0.  1.
         25    2    1    2    0    0  0.31855590274E+01 -0.52818159942E+02  0.10441629055E+04  0.10529598543E+04  0.12509346806E+03 0.  0.
          5    1    3    3  502    0 -0.57819071136E+02 -0.44174049839E+02  0.49528007377E+03  0.50061383874E+03  0.41800000000E+01 0. -1.
         -5    1    3    3    0  502  0.61004630163E+02 -0.86441101034E+01  0.54888283170E+03  0.55234601553E+03  0.41800000000E+01 0. -1.
        -11    1    1    2    0    0  0.37771119282E+02  0.28986148475E+02  0.67416403747E+02  0.82533785503E+02  0.00000000000E+00 0. -1.
         11    1    1    2    0    0 -0.40956678309E+02  0.23832011467E+02  0.19541118735E+03  0.20107447976E+03  0.00000000000E+00 0.  1.
</event>
<event>
 7    1  0.2626349E-009  0.1023886E+03  0.7561462E-02  0.1275352E+00
          2   -1    0    0  501    0  0.00000000000E+00  0.00000000000E+00  0.64693847014E+02  0.64693847014E+02  0.00000000000E+00 0. -1.
         -2   -1    0    0    0  501 -0.00000000000E+00 -0.00000000000E+00 -0.21289667115E+03  0.21289667115E+03  0.00000000000E+00 0.  1.
         25    2    1    2    0    0  0.14793167024E+02 -0.35792386238E+02 -0.10627775235E+03  0.16863845799E+03  0.12507612149E+03 0.  0.
          5    1    3    3  502    0  0.47851964077E+02 -0.62057347077E+02 -0.35531406534E+02  0.86144518355E+02  0.41800000000E+01 0.  1.
         -5    1    3    3    0  502 -0.33058797053E+02  0.26264960840E+02 -0.70746345812E+02  0.82493939633E+02  0.41800000000E+01 0.  1.
        -11    1    1    2    0    0  0.30501242271E+02  0.15998305898E+02 -0.48075891378E+02  0.59140197019E+02  0.00000000000E+00 0. -1.
         11    1    1    2    0    0 -0.45294409295E+02  0.19794080340E+02  0.61508195847E+01  0.49811863160E+02  0.00000000000E+00 0.  1.
</event>
<event>
 7    1  0.2626349E-009  0.9098437E+02  0.7561462E-02  0.1300485E+00
         -1   -1    0    0    0  501 -0.00000000000E+00  0.00000000000E+00  0.38733313928E+03  0.38733313928E+03  0.00000000000E+00 0.  1.
          1   -1    0    0  501    0  0.00000000000E+00 -0.00000000000E+00 -0.37094098898E+02  0.37094098898E+02  0.00000000000E+00 0. -1.
         25    2    1    2    0    0  0.29861313717E+02  0.14117073329E+01  0.26974981077E+03  0.29884261674E+03  0.12509299818E+03 0.  0.
          5    1    3    3  502    0 -0.24377104744E+02  0.47401463117E+02  0.80573131881E+02  0.96698727616E+02  0.41800000000E+01 0.  1.
         -5    1    3    3    0  502  0.54238418460E+02 -0.45989755784E+02  0.18917667889E+03  0.20214388912E+03  0.41800000000E+01 0.  1.
        -11    1    1    2    0    0 -0.85090520310E+00 -0.21795880095E+02 -0.13141634351E+02  0.25465407560E+02  0.00000000000E+00 0. -1.
         11    1    1    2    0    0 -0.29010408514E+02  0.20384172762E+02  0.93630863968E+02  0.10011921388E+03  0.00000000000E+00 0.  1.
</event>
<event>
 7    1  0.2626349E-009  0.3331992E+03  0.7561462E-02  0.1069730E+00
         -2   -1    0    0    0  501 -0.00000000000E+00  0.00000000000E+00  0.15319800255E+03  0.15319800255E+03  0.00000000000E+00 0.  1.
          2   -1    0    0  501    0  0.00000000000E+00 -0.00000000000E+00 -0.82191083356E+03  0.82191083356E+03  0.00000000000E+00 0. -1.
         25    2    1    2    0    0 -0.18535568417E+03 -0.27021909236E+03 -0.22830634340E+03  0.41850605674E+03  0.12509374709E+03 0.  0.
          5    1    3    3  502    0 -0.88114352823E+02 -0.12996552677E+03 -0.35604317219E+02  0.16105997990E+03  0.41800000000E+01 0. -1.
         -5    1    3    3    0  502 -0.97241331352E+02 -0.14025356559E+03 -0.19270202619E+03  0.25744607684E+03  0.41800000000E+01 0. -1.
        -11    1    1    2    0    0  0.18284410911E+03  0.21045479100E+03 -0.33949882082E+03  0.43929789053E+03  0.00000000000E+00 0.  1.
         11    1    1    2    0    0  0.25115750638E+01  0.59764301359E+02 -0.10090766680E+03  0.11730488883E+03  0.00000000000E+00 0. -1.
</event>
<event>
 7    1  0.2626349E-009  0.1082727E+03  0.7561462E-02  0.1263802E+00
          2   -1    0    0  501    0  0.00000000000E+00  0.00000000000E+00  0.69142993869E+02  0.69142993869E+02  0.00000000000E+00 0. -1.
         -2   -1    0    0    0  501 -0.00000000000E+00 -0.00000000000E+00 -0.17650663579E+03  0.17650663579E+03  0.00000000000E+00 0.  1.
         25    2    1    2    0    0 -0.16322338781E+02  0.10034417806E+02 -0.77613254776E+02  0.14845269715E+03  0.12508907902E+03 0.  0.
          5    1    3    3  502    0 -0.29081468922E+02  0.63264198119E+02 -0.30577393944E+02  0.76161276373E+02  0.41800000000E+01 0.  1.
         -5    1    3    3    0  502  0.12759130141E+02 -0.53229780314E+02 -0.47035860832E+02  0.72291420780E+02  0.41800000000E+01 0.  1.
        -11    1    1    2    0    0 -0.16833208073E+02 -0.42364232165E+02 -0.20452643246E+02  0.49963943766E+02  0.00000000000E+00 0. -1.
         11    1    1    2    0    0  0.33155546854E+02  0.32329814360E+02 -0.92977438984E+01  0.47232988740E+02  0.00000000000E+00 0.  1.
</event>
<event>
 7    1  0.2626349E-009  0.7253511E+02  0.7561462E-02  0.1351678E+00
          3   -1    0    0  501    0  0.00000000000E+00  0.00000000000E+00  0.15919083354E+03  0.15919083354E+03  0.00000000000E+00 0. -1.
         -3   -1    0    0    0  501 -0.00000000000E+00 -0.00000000000E+00 -0.85325305958E+02  0.85325305958E+02  0.00000000000E+00 0.  1.
         25    2    1    2    0    0 -0.16885316528E+01  0.25922380839E+02  0.77626868101E+02  0.14949304974E+03  0.12508964907E+03 0.  0.
          5    1    3    3  502    0 -0.30639138649E+02  0.24813101122E+02 -0.22216165613E+02  0.45447521594E+02  0.41800000000E+01 0. -1.
         -5    1    3    3    0  502  0.28950606997E+02  0.11092797171E+01  0.99843033714E+02  0.10404552815E+03  0.41800000000E+01 0. -1.
        -11    1    1    2    0    0  0.33178940507E+02 -0.29578278369E+02 -0.30204600588E+02  0.53740436741E+02  0.00000000000E+00 0.  1.
         11    1    1    2    0    0 -0.31490408854E+02  0.36558975303E+01  0.26443260066E+02  0.41282653009E+02  0.00000000000E+00 0. -1.
</event>
<event>
 7    1  0.2626349E-009  0.1653477E+03  0.7561462E-02  0.1182788E+00
         -2   -1    0    0    0  501 -0.00000000000E+00  0.00000000000E+00  0.15888430817E+03  0.15888430817E+03  0.00000000000E+00 0.  1.
          2   -1    0    0  501    0  0.00000000000E+00 -0.00000000000E+00 -0.20640069766E+03  0.20640069766E+03  0.00000000000E+00 0. -1.
         25    2    1    2    0    0  0.57153341234E+02  0.11864460278E+03  0.34271228745E+02  0.18483996062E+03  0.12509295640E+03 0.  0.
          5    1    3    3  502    0  0.28048418666E+02  0.13494349391E+03  0.51337302205E+02  0.14713752525E+03  0.41800000000E+01 0. -1.
         -5    1    3    3    0  502  0.29104922568E+02 -0.16298891131E+02 -0.17066073460E+02  0.37702435374E+02  0.41800000000E+01 0. -1.
        -11    1    1    2    0    0 -0.42524330300E+02 -0.13242677456E+03 -0.79532055051E+02  0.16022021430E+03  0.00000000000E+00 0. -1.
         11    1    1    2    0    0 -0.14629010934E+02  0.13782171784E+02 -0.22555631840E+01  0.20224830908E+02  0.00000000000E+00 0.  1.
</event>
<event>
 7    1  0.2626349E-009  0.1586792E+03  0.7561462E-02  0.1190196E+00
         -3   -1    0    0    0  501 -0.00000000000E+00  0.00000000000E+00  0.93631659305E+02  0.93631659305E+02  0.00000000000E+00 0.  1.
          3   -1    0    0  501    0  0.00000000000E+00 -0.00000000000E+00 -0.38297179703E+03  0.38297179703E+03  0.00000000000E+00 0. -1.
         25    2    1    2    0    0  0.59340520150E+02  0.14142161099E+03 -0.12339033219E+03  0.23322552657E+03  0.12509037844E+03 0.  0.
          5    1    3    3  502    0  0.57683643302E+02  0.63316357379E+02 -0.12887539093E+03  0.15479891022E+03  0.41800000000E+01 0. -1.
         -5    1    3    3    0  502  0.16568768478E+01  0.78105253612E+02  0.54850587410E+01  0.78426616350E+02  0.41800000000E+01 0. -1.
        -11    1    1    2    0    0 -0.48774308357E+02 -0.11535099431E+03 -0.17375394650E+03  0.21418501107E+03  0.00000000000E+00 0. -1.
         11    1    1    2    0    0 -0.10566211792E+02 -0.26070616681E+02  0.78041409650E+01  0.29192918696E+02  0.00000000000E+00 0.  1.
</event>
<event>
 7    1  0.2626349E-009  0.2218613E+03  0.7561462E-02  0.1132503E+00
         -2   -1    0    0    0  501 -0.00000000000E+00  0.00000000000E+00  0.17980725684E+03  0.17980725684E+03  0.00000000000E+00 0.  1.
          2   -1    0    0  501    0  0.00000000000E+00 -0.00000000000E+00 -0.37515185969E+03  0.37515185969E+03  0.00000000000E+00 0. -1.
         25    2    1    2    0    0 -0.68663873491E+02 -0.19961854855E+03 -0.21138593383E+03  0.32387278322E+03  0.12508906522E+03 0.  0.
          5    1    3    3  502    0 -0.17861340105E+02 -0.16213222572E+03 -0.88423965949E+02  0.18558598072E+03  0.41800000000E+01 0. -1.
         -5    1    3    3    0  502 -0.50802533387E+02 -0.37486322832E+02 -0.12296196788E+03  0.13828680249E+03  0.41800000000E+01 0. -1.
        -11    1    1    2    0    0  0.43156696724E+02  0.52466542140E+02 -0.30765092582E+02  0.74577003412E+02  0.00000000000E+00 0. -1.
         11    1    1    2    0    0  0.25507176768E+02  0.14715200641E+03  0.46806423567E+02  0.15650932990E+03  0.00000000000E+00 0.  1.
</event>
<event>
 7    1  0.2626349E-009  0.1738199E+03  0.7561462E-02  0.1173922E+00
         -1   -1    0    0    0  501 -0.00000000000E+00  0.00000000000E+00  0.99988393720E+02  0.99988393720E+02  0.00000000000E+00 0.  1.
          1   -1    0    0  501    0  0.00000000000E+00 -0.00000000000E+00 -0.32749877823E+03  0.32749877823E+03  0.00000000000E+00 0. -1.
         25    2    1    2    0    0 -0.11159793913E+03 -0.96908442274E+02 -0.12252458943E+03  0.22914276179E+03  0.12509510008E+03 0.  0.
          5    1    3    3  502    0 -0.26600142569E+02  0.28585242407E+02 -0.41849545007E+02  0.57389376067E+02  0.41800000000E+01 0.  1.
         -5    1    3    3    0  502 -0.84997796560E+02 -0.12549368468E+03 -0.80675044428E+02  0.17175338573E+03  0.41800000000E+01 0.  1.
        -11    1    1    2    0    0  0.94304785356E+00  0.24464872914E+02 -0.48895584020E+02  0.54682698201E+02  0.00000000000E+00 0. -1.
         11    1    1    2    0    0  0.11065489128E+03  0.72443569360E+02 -0.56090211051E+02  0.14366171195E+03  0.00000000000E+00 0.  1.
</event>
<event>
 7    1  0.2626349E-009  0.1139400E+03  0.7561462E-02  0.1253443E+00
          1   -1    0    0  501    0  0.00000000000E+00  0.00000000000E+00  0.29980829758E+03  0.29980829758E+03  0.00000000000E+00 0. -1.
         -1   -1    0    0    0  501 -0.00000000000E+00 -0.00000000000E+00 -0.45873686858E+02  0.45873686858E+02  0.00000000000E+00 0.  1.
         25    2    1    2    0    0  0.34188668463E+02  0.18834932697E+02  0.10618581082E+03  0.16866116554E+03  0.12509013791E+03 0.  0.
          5    1    3    3  502    0  0.38739536441E+02  0.69317808448E+02  0.72898975492E+02  0.10787698216E+03  0.41800000000E+01 0.  1.
         -5    1    3    3    0  502 -0.45508679784E+01 -0.50482875751E+02  0.33286835331E+02  0.60784183386E+02  0.41800000000E+01 0.  1.
        -11    1    1    2    0    0  0.15110342477E+02 -0.40817004503E+02  0.66118533132E+02  0.79158137484E+02  0.00000000000E+00 0.  1.
         11    1    1    2    0    0 -0.49299010940E+02  0.21982071807E+02  0.81630266769E+02  0.97862681413E+02  0.00000000000E+00 0. -1.
</event>
<event>
 7    1  0.2626349E-009  0.9733553E+02  0.7561462E-02  0.1286001E+00
          2   -1    0    0  501    0  0.00000000000E+00  0.00000000000E+00  0.16140032428E+03  0.16140032428E+03  0.00000000000E+00 0. -1.
         -2   -1    0    0    0  501 -0.00000000000E+00 -0.00000000000E+00 -0.96497528815E+02  0.96497528815E+02  0.00000000000E+00 0.  1.
         25    2    1    2    0    0 -0.20190255888E+02 -0.19647861802E+02  0.93543950862E+02  0.15871814920E+03  0.12508914915E+03 0.  0.
          5    1    3    3  502    0 -0.51693993537E+02 -0.56867871232E+02  0.42160235434E+02  0.87756376395E+02  0.41800000000E+01 0. -1.
         -5    1    3    3    0  502  0.31503737649E+02  0.37220009430E+02  0.51383715429E+02  0.70961772801E+02  0.41800000000E+01 0. -1.
        -11    1    1    2    0    0 -0.17208985467E+01  0.39295864133E+02 -0.49413442415E+02  0.63157063905E+02  0.00000000000E+00 0.  1.
         11    1    1    2    0    0  0.21911154435E+02 -0.19648002331E+02  0.20772287022E+02  0.36022639997E+02  0.00000000000E+00 0. -1.
</event>
<event>
 7    1  0.2626349E-009  0.1109941E+03  0.7561462E-02  0.1258740E+00
         -2   -1    0    0    0  501 -0.00000000000E+00  0.00000000000E+00  0.99811264801E+01  0.99811264801E+01  0.00000000000E+00 0.  1.
          2   -1    0    0  501    0  0.00000000000E+00 -0.00000000000E+00 -0.19626404622E+04  0.19626404622E+04  0.00000000000E+00 0. -1.
         25    2    1    2    0    0  0.31016466784E+02  0.48250838618E+02 -0.15389150972E+04  0.15450560255E+04  0.12509308898E+03 0.  0.
          5    1    3    3  502    0  0.33432700195E+02 -0.32681157356E+02 -0.31725936483E+03  0.32071292531E+03  0.41800000000E+01 0.  1.
         -5    1    3    3    0  502 -0.24162334111E+01  0.80931995974E+02 -0.12216557324E+04  0.12243431002E+04  0.41800000000E+01 0.  1.
        -11    1    1    2    0    0  0.20822617401E+02  0.30460035011E+01 -0.28212639467E+02  0.35196769147E+02  0.00000000000E+00 0.  1.
         11    1    1    2    0    0 -0.51839084185E+02 -0.51296842119E+02 -0.38553159907E+03  0.39236879404E+03  0.00000000000E+00 0. -1.
</event>
<event>
 7    1  0.2626349E-009  0.1452517E+03  0.7561462E-02  0.1206432E+00
          2   -1    0    0  501    0  0.00000000000E+00  0.00000000000E+00  0.19282385807E+03  0.19282385807E+03  0.00000000000E+00 0.  1.
         -2   -1    0    0    0  501 -0.00000000000E+00 -0.00000000000E+00 -0.15265228774E+03  0.15265228774E+03  0.00000000000E+00 0. -1.
         25    2    1    2    0    0 -0.11436181225E+03  0.64776354875E+02  0.59499383095E+01  0.18154895000E+03  0.12510003688E+03 0.  0.
          5    1    3    3  502    0 -0.53292043208E+02  0.72354205894E+02 -0.45880419530E+02  0.10098345546E+03  0.41800000000E+01 0. -1.
         -5    1    3    3    0  502 -0.61069769040E+02 -0.75778510186E+01  0.51830357839E+02  0.80565494539E+02  0.41800000000E+01 0. -1.
        -11    1    1    2    0    0  0.10287079137E+03 -0.71751498936E+02  0.56773347282E+02  0.13767312838E+03  0.00000000000E+00 0.  1.
         11    1    1    2    0    0  0.11491020873E+02  0.69751440608E+01 -0.22551715264E+02  0.26254067432E+02  0.00000000000E+00 0. -1.
</event>
<event>
 7    1  0.2626349E-009  0.1363027E+03  0.7561462E-02  0.1218392E+00
          1   -1    0    0  501    0  0.00000000000E+00  0.00000000000E+00  0.12876951407E+04  0.12876951407E+04  0.00000000000E+00 0. -1.
         -1   -1    0    0    0  501 -0.00000000000E+00 -0.00000000000E+00 -0.17358847508E+02  0.17358847508E+02  0.00000000000E+00 0.  1.
         25    2    1    2    0    0 -0.79818169553E+02 -0.62454183079E+02  0.71523319769E+03  0.73312735688E+03  0.12508288910E+03 0.  0.
          5    1    3    3  502    0 -0.15211457613E+02 -0.68387032416E+02  0.16835117851E+03  0.18239453487E+03  0.41800000000E+01 0. -1.
         -5    1    3    3    0  502 -0.64606711940E+02  0.59328493369E+01  0.54688201918E+03  0.55073282200E+03  0.41800000000E+01 0. -1.
        -11    1    1    2    0    0  0.16791922801E+02 -0.24691877148E+02  0.10601979738E+03  0.11014469985E+03  0.00000000000E+00 0. -1.
         11    1    1    2    0    0  0.63026246752E+02  0.87146060227E+02  0.44908329810E+03  0.46178193146E+03  0.00000000000E+00 0.  1.
</event>
<event>
 7    1  0.2626349E-009  0.1037805E+03  0.7561462E-02  0.1272541E+00
          2   -1    0    0  501    0  0.00000000000E+00  0.00000000000E+00  0.25483404794E+03  0.25483404794E+03  0.00000000000E+00 0. -1.
         -2   -1    0    0    0  501 -0.00000000000E+00 -0.00000000000E+00 -0.65246107585E+02  0.65246107585E+02  0.00000000000E+00 0.  1.
         25    2    1    2    0    0  0.61394341635E+02 -0.47360636384E+01  0.71303483123E+02  0.15659818046E+03  0.12508840048E+03 0.  0.
          5    1    3    3  502    0  0.96244464075E+01 -0.33693162391E+02  0.88017825762E+02  0.94828630763E+02  0.41800000000E+01 0. -1.
         -5    1    3    3    0  502  0.51769895228E+02  0.28957098752E+02 -0.16714342639E+02  0.61769549698E+02  0.41800000000E+01 0. -1.
        -11    1    1    2    0    0 -0.73117694843E+02 -0.27798936661E+02  0.84097441508E+02  0.11485363663E+03  0.00000000000E+00 0. -1.
         11    1    1    2    0    0  0.11723353208E+02  0.32535000299E+02  0.34187015728E+02  0.48628338439E+02  0.00000000000E+00 0.  1.
</event>
<event>
 7    1  0.2626349E-009  0.1996123E+03  0.7561462E-02  0.1150067E+00
          2   -1    0    0  501    0  0.00000000000E+00  0.00000000000E+00  0.13443909991E+04  0.13443909991E+04  0.00000000000E+00 0.  1.
         -2   -1    0    0    0  501 -0.00000000000E+00 -0.00000000000E+00 -0.34244081982E+02  0.34244081982E+02  0.00000000000E+00 0. -1.
         25    2    1    2    0    0  0.15700662999E+03  0.81334426539E+02  0.50008220317E+03  0.54497589916E+03  0.12510055930E+03 0.  0.
          5    1    3    3  502    0  0.10009616271E+03 -0.33301907633E+01  0.15079074645E+03  0.18106809099E+03  0.41800000000E+01 0. -1.
         -5    1    3    3    0  502  0.56910467276E+02  0.84664617303E+02  0.34929145672E+03  0.36390780817E+03  0.41800000000E+01 0. -1.
        -11    1    1    2    0    0 -0.12725288825E+03 -0.20133420841E+02  0.53871549662E+03  0.55390706666E+03  0.00000000000E+00 0. -1.
         11    1    1    2    0    0 -0.29753741742E+02 -0.61201005698E+02  0.27134921729E+03  0.27975211522E+03  0.00000000000E+00 0.  1.
</event>
<event>
 7    1  0.2626349E-009  0.1152182E+03  0.7561462E-02  0.1251201E+00
         -2   -1    0    0    0  501 -0.00000000000E+00  0.00000000000E+00  0.74963812477E+02  0.74963812477E+02  0.00000000000E+00 0.  1.
          2   -1    0    0  501    0  0.00000000000E+00 -0.00000000000E+00 -0.35946498797E+03  0.35946498797E+03  0.00000000000E+00 0. -1.
         25    2    1    2    0    0 -0.71179416473E+02  0.40218537298E+02 -0.34035477137E+02  0.15326053978E+03  0.12508532799E+03 0.  0.
          5    1    3    3  502    0 -0.56305679904E+02  0.66996718179E+02  0.21036057847E+02  0.90104816552E+02  0.41800000000E+01 0. -1.
         -5    1    3    3    0  502 -0.14873736569E+02 -0.26778180881E+02 -0.55071534983E+02  0.63155723226E+02  0.41800000000E+01 0. -1.
        -11    1    1    2    0    0  0.81610254660E+02 -0.51531620362E+02 -0.24728698723E+03  0.26545544940E+03  0.00000000000E+00 0. -1.
         11    1    1    2    0    0 -0.10430838187E+02  0.11313083065E+02 -0.31787111328E+01  0.15712811275E+02  0.00000000000E+00 0.  1.
</event>
<event>
 7    1  0.2626349E-009  0.9601775E+02  0.7561462E-02  0.1288900E+00
          2   -1    0    0  501    0  0.00000000000E+00  0.00000000000E+00  0.31326586512E+03  0.31326586512E+03  0.00000000000E+00 0. -1.
         -2   -1    0    0    0  501 -0.00000000000E+00 -0.00000000000E+00 -0.45898805587E+02  0.45898805587E+02  0.00000000000E+00 0.  1.
         25    2    1    2    0    0  0.48866508249E+02 -0.12843295229E+01  0.14613693289E+03  0.19847451726E+03  0.12508615319E+03 0.  0.
          5    1    3    3  502    0  0.70910943172E+02 -0.65009835357E+01  0.25645701846E+02  0.75801049278E+02  0.41800000000E+01 0. -1.
         -5    1    3    3    0  502 -0.22044434923E+02  0.52166540128E+01  0.12049123104E+03  0.12267346798E+03  0.41800000000E+01 0. -1.
        -11    1    1    2    0    0 -0.37457590765E+02 -0.40021773355E+02  0.97116606161E+02  0.11151882640E+03  0.00000000000E+00 0.  1.
         11    1    1    2    0    0 -0.11408917483E+02  0.41306102878E+02  0.24113520483E+02  0.49171327043E+02  0.00000000000E+00 0. -1.
</event>
<event>
 7    1  0.2626349E-009  0.1075451E+03  0.7561462E-02  0.1265185E+00
          2   -1    0    0  501    0  0.00000000000E+00  0.00000000000E+00  0.21155282777E+03  0.21155282777E+03  0.00000000000E+00 0. -1.
         -2   -1    0    0    0  501 -0.00000000000E+00 -0.00000000000E+00 -0.83045759064E+02  0.83045759064E+02  0.00000000000E+00 0.  1.
         25    2    1    2    0    0  0.18160073895E+02 -0.64785472553E+01 -0.11282227987E+02  0.12706677725E+03  0.12508763870E+03 0.  0.
          5    1    3    3  502    0  0.58818285441E+02 -0.39768863747E+02  0.65328363696E+01  0.71423410567E+02  0.41800000000E+01 0. -1.
         -5    1    3    3    0  502 -0.40658211546E+02  0.33290316492E+02 -0.17815064357E+02  0.55643366687E+02  0.41800000000E+01 0. -1.
        -11    1    1    2    0    0 -0.50773541843E+02 -0.14092072990E+02  0.67822141846E+02  0.85885866107E+02  0.00000000000E+00 0.  1.
         11    1    1    2    0    0  0.32613467947E+02  0.20570620245E+02  0.71967154847E+02  0.81645943473E+02  0.00000000000E+00 0. -1.
</event>
<event>
 7    1  0.2626349E-009  0.1272273E+03  0.7561462E-02  0.1231629E+00
          1   -1    0    0  501    0  0.00000000000E+00  0.00000000000E+00  0.56858151685E+03  0.56858151685E+03  0.00000000000E+00 0. -1.
         -1   -1    0    0    0  501 -0.00000000000E+00 -0.00000000000E+00 -0.31527088365E+02  0.31527088365E+02  0.00000000000E+00 0.  1.
         25    2    1    2    0    0 -0.75924075022E+02 -0.21789623602E+02  0.30043839444E+03  0.33488793325E+03  0.12508975224E+03 0.  0.
          5    1    3    3  502    0 -0.42497954843E+02  0.47896916353E+02  0.18577584985E+03  0.19654599855E+03  0.41800000000E+01 0. -1.
         -5    1    3    3    0  502 -0.33426120179E+02 -0.69686539955E+02  0.11466254460E+03  0.13834193469E+03  0.41800000000E+01 0. -1.
        -11    1    1    2    0    0  0.84030489773E+02 -0.57006039977E+01  0.13063009271E+03  0.15542792934E+03  0.00000000000E+00 0.  1.
         11    1    1    2    0    0 -0.81064147517E+01  0.27490227599E+02  0.10598594134E+03  0.10979274263E+03  0.00000000000E+00 0. -1.
</event>
<event>
 7    1  0.2626349E-009  0.1328329E+03  0.7561462E-02  0.1223312E+00
          2   -1    0    0  501    0  0.00000000000E+00  0.00000000000E+00  0.42295415513E+03  0.42295415513E+03  0.00000000000E+00 0.  1.
         -2   -1    0    0    0  501 -0.00000000000E+00 -0.00000000000E+00 -0.57881514269E+02  0.57881514269E+02  0.00000000000E+00 0. -1.
         25    2    1    2    0    0 -0.21662729135E+01  0.88661913130E+02  0.91980918958E+02  0.17880984679E+03  0.12508734659E+03 0.  0.
          5    1    3    3  502    0 -0.60114817858E+02  0.69889382853E+02  0.55449132140E+02  0.10765870061E+03  0.41800000000E+01 0.  1.
         -5    1    3    3    0  502  0.57948544945E+02  0.18772530276E+02  0.36531786818E+02  0.71151146177E+02  0.41800000000E+01 0.  1.
        -11    1    1    2    0    0 -0.87010706577E+01 -0.97765310802E+02  0.27031105696E+03  0.28757926236E+03  0.00000000000E+00 0.  1.
         11    1    1    2    0    0  0.10867343571E+02  0.91033976724E+01  0.27806649406E+01  0.14446560248E+02  0.00000000000E+00 0. -1.
</event>
<event>
 7    1  0.2626349E-009  0.9576660E+02  0.7561462E-02  0.1289459E+00
          3   -1    0    0  501    0  0.00000000000E+00  0.00000000000E+00  0.20559002145E+03  0.20559002145E+03  0.00000000000E+00 0. -1.
         -3   -1    0    0    0  501 -0.00000000000E+00 -0.00000000000E+00 -0.11581277783E+03  0.11581277783E+03  0.00000000000E+00 0.  1.
         25    2    1    2    0    0 -0.89886670071E+01 -0.84150685370E+02 -0.12987874982E+02  0.15158377398E+03  0.12508725616E+03 0.  0.
          5    1    3    3  502    0 -0.11513976704E+02  0.47857428638E+01  0.43946227991E+02  0.45871759819E+02  0.41800000000E+01 0. -1.
         -5    1    3    3    0  502  0.25253096966E+01 -0.88936428234E+02 -0.56934102973E+02  0.10571201416E+03  0.41800000000E+01 0. -1.
        -11    1    1    2    0    0  0.12610025270E+02  0.13150775671E+02  0.96774725645E+02  0.98474885945E+02  0.00000000000E+00 0. -1.
         11    1    1    2    0    0 -0.36213582632E+01  0.70999909699E+02  0.59903929606E+01  0.71344139358E+02  0.00000000000E+00 0.  1.
</event>
<event>
 7    1  0.2626349E-009  0.1240794E+03  0.7561462E-02  0.1236515E+00
          2   -1    0    0  501    0  0.00000000000E+00  0.00000000000E+00  0.32824419735E+02  0.32824419735E+02  0.00000000000E+00 0.  1.
         -2   -1    0    0    0  501 -0.00000000000E+00 -0.00000000000E+00 -0.56715446902E+03  0.56715446902E+03  0.00000000000E+00 0. -1.
         25    2    1    2    0    0  0.34538279808E+02  0.72984412269E+02 -0.34769811739E+03  0.37823480654E+03  0.12509184960E+03 0.  0.
          5    1    3    3  502    0  0.53191606207E+01  0.94930648684E+02 -0.31485425508E+03  0.32892369309E+03  0.41800000000E+01 0.  1.
         -5    1    3    3    0  502  0.29219119187E+02 -0.21946236415E+02 -0.32843862303E+02  0.49311113451E+02  0.41800000000E+01 0.  1.
        -11    1    1    2    0    0 -0.36247617791E+02 -0.91081116931E+02 -0.17364297224E+03  0.19940296253E+03  0.00000000000E+00 0.  1.
         11    1    1    2    0    0  0.17093379835E+01  0.18096704662E+02 -0.12988959659E+02  0.22341119690E+02  0.00000000000E+00 0. -1.
</event>
<event>
 7    1  0.2626349E-009  0.8977861E+02  0.7561462E-02  0.1303389E+00
         -1   -1    0    0    0  501 -0.00000000000E+00  0.00000000000E+00  0.36364066288E+02  0.36364066288E+02  0.00000000000E+00 0.  1.
          1   -1    0    0  501    0  0.00000000000E+00 -0.00000000000E+00 -0.37009047263E+03  0.37009047263E+03  0.00000000000E+00 0. -1.
         25    2    1    2    0    0  0.71543872661E+01 -0.39869979969E+02 -0.20784472146E+03  0.24594451012E+03  0.12509385779E+03 0.  0.
          5    1    3    3  502    0 -0.24429841598E+02  0.18366142663E+02 -0.34497596208E+01  0.31040386567E+02  0.41800000000E+01 0.  1.
         -5    1    3    3    0  502  0.31584228864E+02 -0.58236122632E+02 -0.20439496184E+03  0.21490412355E+03  0.41800000000E+01 0.  1.
        -11    1    1    2    0    0  0.17085115472E+02 -0.14749693158E+02 -0.16230397108E+01  0.22629380832E+02  0.00000000000E+00 0.  1.
         11    1    1    2    0    0 -0.24239502738E+02  0.54619673126E+02 -0.12425864517E+03  0.13788064797E+03  0.00000000000E+00 0. -1.
</event>
<event>
 7    1  0.2626349E-009  0.1414936E+03  0.7561462E-02  0.1211333E+00
         -2   -1    0    0    0  501 -0.00000000000E+00  0.00000000000E+00  0.12402229378E+03  0.12402229378E+03  0.00000000000E+00 0.  1.
          2   -1    0    0  501    0  0.00000000000E+00 -0.00000000000E+00 -0.25990171638E+03  0.25990171638E+03  0.00000000000E+00 0. -1.
         25    2    1    2    0    0 -0.12521336952E+03 -0.60389784940E+02 -0.10471676622E+03  0.21433983609E+03  0.12510255863E+03 0.  0.
          5    1    3    3  502    0 -0.10756656805E+03 -0.36583009833E+02 -0.13174054083E+03  0.17401702695E+03  0.41800000000E+01 0. -1.
         -5    1    3    3    0  502 -0.17646801477E+02 -0.23806775107E+02  0.27023774606E+02  0.40322809144E+02  0.41800000000E+01 0. -1.
        -11    1    1    2    0    0  0.65666063428E+02  0.37132324020E+02  0.29930303461E+02  0.81158267838E+02  0.00000000000E+00 0.  1.
         11    1    1    2    0    0  0.59547306095E+02  0.23257460920E+02 -0.61092959838E+02  0.88425906234E+02  0.00000000000E+00 0. -1.
</event>
<event>
 7    1  0.2626349E-009  0.5686068E+02  0.7561462E-02  0.1411499E+00
         -1   -1    0    0    0  501 -0.00000000000E+00  0.00000000000E+00  0.24451805710E+02  0.24451805710E+02  0.00000000000E+00 0.  1.
          1   -1    0    0  501    0  0.00000000000E+00 -0.00000000000E+00 -0.51629708924E+03  0.51629708924E+03  0.00000000000E+00 0. -1.
         25    2    1    2    0    0 -0.12629861068E+02 -0.22062551915E+02 -0.25116390329E+03  0.28173928524E+03  0.12508976355E+03 0.  0.
          5    1    3    3  502    0 -0.22624471615E+02 -0.21923412461E+02 -0.14738294886E+01  0.31814262574E+02  0.41800000000E+01 0.  1.
         -5    1    3    3    0  502  0.99946105465E+01 -0.13913945395E+00 -0.24969007380E+03  0.24992502266E+03  0.41800000000E+01 0.  1.
        -11    1    1    2    0    0  0.35848442169E+02 -0.41521690983E+01 -0.34671654495E+02  0.50044729389E+02  0.00000000000E+00 0.  1.
         11    1    1    2    0    0 -0.23218581101E+02  0.26214721013E+02 -0.20600972575E+03  0.20896488032E+03  0.00000000000E+00 0. -1.
</event>
<event>
 7    1  0.2626349E-009  0.1454598E+03  0.7561462E-02  0.1206166E+00
          2   -1    0    0  501    0  0.00000000000E+00  0.00000000000E+00  0.50381968915E+03  0.50381968915E+03  0.00000000000E+00 0. -1.
         -2   -1    0    0    0  501 -0.00000000000E+00 -0.00000000000E+00 -0.64268939937E+02  0.64268939937E+02  0.00000000000E+00 0.  1.
         25    2    1    2    0    0 -0.94338865681E+02  0.56578132780E+02  0.88599858325E+02  0.18867653076E+03  0.12509193290E+03 0.  0.
          5    1    3    3  502    0  0.26868250046E+02  0.31119093256E+02  0.12169419622E+02  0.43079786438E+02  0.41800000000E+01 0. -1.
         -5    1    3    3    0  502 -0.12120711573E+03  0.25459039524E+02  0.76430438702E+02  0.14559674432E+03  0.41800000000E+01 0. -1.
        -11    1    1    2    0    0  0.43226099823E+02 -0.60559713424E+02  0.29179603578E+03  0.30113269682E+03  0.00000000000E+00 0. -1.
         11    1    1    2    0    0  0.51112765859E+02  0.39815806440E+01  0.59154855109E+02  0.78279401512E+02  0.00000000000E+00 0.  1.
</event>
<event>
 7    1  0.2626349E-009  0.3581188E+03  0.7561462E-02  0.1059331E+00
         -1   -1    0    0    0  501 -0.00000000000E+00  0.00000000000E+00  0.10103419726E+03  0.10103419726E+03  0.00000000000E+00 0.  1.
          1   -1    0    0  501    0  0.00000000000E+00 -0.00000000000E+00 -0.13598991989E+04  0.13598991989E+04  0.00000000000E+00 0. -1.
         25    2    1    2    0    0  0.25097079000E+03 -0.23913698616E+03 -0.78366704983E+03  0.86599894602E+03  0.12508914395E+03 0.  0.
          5    1    3    3  502    0  0.11139175179E+03 -0.31881911745E+02 -0.29907558924E+03  0.32076199766E+03  0.41800000000E+01 0. -1.
         -5    1    3    3    0  502  0.13957903821E+03 -0.20725507442E+03 -0.48459146058E+03  0.54523694835E+03  0.41800000000E+01 0. -1.
        -11    1    1    2    0    0 -0.13288028755E+03  0.91515096946E+02 -0.28026885637E+03  0.32339266479E+03  0.00000000000E+00 0.  1.
         11    1    1    2    0    0 -0.11809050245E+03  0.14762188922E+03 -0.19492909547E+03  0.27154178538E+03  0.00000000000E+00 0. -1.
</event>
<event>
 7    1  0.2626349E-009  0.1946572E+03  0.7561462E-02  0.1154327E+00
         -2   -1    0    0    0  501 -0.00000000000E+00  0.00000000000E+00  0.92676952081E+03  0.92676952081E+03  0.00000000000E+00 0.  1.
          2   -1    0    0  501    0  0.00000000000E+00 -0.00000000000E+00 -0.73862426454E+02  0.73862426454E+02  0.00000000000E+00 0. -1.
         25    2    1    2    0    0 -0.18475405854E+03  0.17315202187E+02  0.15350545047E+03  0.27137595958E+03  0.12508840769E+03 0.  0.
          5    1    3    3  502    0 -0.12963114952E+03 -0.27343268082E+02  0.41806331209E+02  0.13898608191E+03  0.41800000000E+01 0. -1.
         -5    1    3    3    0  502 -0.55122909020E+02  0.44658470268E+02  0.11169911926E+03  0.13238987767E+03  0.41800000000E+01 0. -1.
        -11    1    1    2    0    0  0.25150764647E+02 -0.48075620660E+01  0.23845808853E+02  0.34989944487E+02  0.00000000000E+00 0.  1.
         11    1    1    2    0    0  0.15960329390E+03 -0.12507640121E+02  0.67555583503E+03  0.69426604319E+03  0.00000000000E+00 0. -1.
</event>
<event>
 7    1  0.2626349E-009  0.1232286E+03  0.7561462E-02  0.1237864E+00
          2   -1    0    0  501    0  0.00000000000E+00  0.00000000000E+00  0.43130897718E+02  0.43130897718E+02  0.00000000000E+00 0.  1.
         -2   -1    0    0    0  501 -0.00000000000E+00 -0.00000000000E+00 -0.47856529181E+03  0.47856529181E+03  0.00000000000E+00 0. -1.
         25    2    1    2    0    0  0.56943824997E+02 -0.84306981041E+01 -0.36483504068E+03  0.38995574354E+03  0.12508876503E+03 0.  0.
          5    1    3    3  502    0  0.90607197941E+02  0.19930307335E+02 -0.26380453826E+03  0.27967335997E+03  0.41800000000E+01 0.  1.
         -5    1    3    3    0  502 -0.33663372944E+02 -0.28361005439E+02 -0.10103050242E+03  0.11028238357E+03  0.41800000000E+01 0.  1.
        -11    1    1    2    0    0 -0.10444845366E+02  0.47503381311E+02 -0.43424761259E+02  0.65202576031E+02  0.00000000000E+00 0.  1.
         11    1    1    2    0    0 -0.46498979631E+02 -0.39072683207E+02 -0.27174592155E+02  0.66537869957E+02  0.00000000000E+00 0. -1.
</event>
<event>
 7    1  0.2626349E-009  0.1230296E+03  0.7561462E-02  0.1238181E+00
          1   -1    0    0  501    0  0.00000000000E+00  0.00000000000E+00  0.81310607166E+02  0.81310607166E+02  0.00000000000E+00 0.  1.
         -1   -1    0    0    0  501 -0.00000000000E+00 -0.00000000000E+00 -0.18905157198E+03  0.18905157198E+03  0.00000000000E+00 0. -1.
         25    2    1    2    0    0 -0.60906521572E+02 -0.62753731822E+01 -0.62887126351E+02  0.15281244287E+03  0.12509143599E+03 0.  0.
          5    1    3    3  502    0  0.34565163243E+02 -0.23498784254E+02 -0.22431516112E+02  0.47619205018E+02  0.41800000000E+01 0. -1.
         -5    1    3    3    0  502 -0.95471684815E+02  0.17223411072E+02 -0.40455610239E+02  0.10519323785E+03  0.41800000000E+01 0. -1.
        -11    1    1    2    0    0  0.18263336255E+02  0.45489451734E+02 -0.30950436576E+02  0.57972141538E+02  0.00000000000E+00 0.  1.
         11    1    1    2    0    0  0.42643185316E+02 -0.39214078552E+02 -0.13903401886E+02  0.59577594736E+02  0.00000000000E+00 0. -1.
</event>
<event>
 7    1  0.2626349E-009  0.1649436E+03  0.7561462E-02  0.1183226E+00
          2   -1    0    0  501    0  0.00000000000E+00  0.00000000000E+00  0.82217243672E+03  0.82217243672E+03  0.00000000000E+00 0.  1.
         -2   -1    0    0    0  501 -0.00000000000E+00 -0.00000000000E+00 -0.46826251257E+02  0.46826251257E+02  0.00000000000E+00 0. -1.
         25    2    1    2    0    0 -0.15173854426E+03 -0.54387121796E+02  0.46756093297E+03  0.51014110231E+03  0.12509265924E+03 0.  0.
          5    1    3    3  502    0 -0.10546013531E+03 -0.23649944563E+02  0.42890082679E+03  0.44232855621E+03  0.41800000000E+01 0. -1.
         -5    1    3    3    0  502 -0.46278408946E+02 -0.30737177233E+02  0.38660106184E+02  0.67812546103E+02  0.41800000000E+01 0. -1.
        -11    1    1    2    0    0  0.12515516584E+03  0.27373193263E+02  0.15326909423E+03  0.19976116362E+03  0.00000000000E+00 0. -1.
         11    1    1    2    0    0  0.26583378414E+02  0.27013928533E+02  0.15451615826E+03  0.15909642204E+03  0.00000000000E+00 0.  1.
</event>
<event>
 7    1  0.2626349E-009  0.9711091E+02  0.7561462E-02  0.1286491E+00
          4   -1    0    0  501    0  0.00000000000E+00  0.00000000000E+00  0.13261622100E+03  0.13261622100E+03  0.00000000000E+00 0. -1.
         -4   -1    0    0    0  501 -0.00000000000E+00 -0.00000000000E+00 -0.12707315693E+03  0.12707315693E+03  0.00000000000E+00 0.  1.
         25    2    1    2    0    0 -0.53047680072E+02  0.21057257047E+02 -0.28885530628E+02  0.14050302322E+03  0.12509700723E+03 0.  0.
          5    1    3    3  502    0 -0.90954550014E+02  0.30565465169E+02 -0.90277674603E+01  0.96467356212E+02  0.41800000000E+01 0. -1.
         -5    1    3    3    0  502  0.37906869942E+02 -0.95082081215E+01 -0.19857763168E+02  0.44035667004E+02  0.41800000000E+01 0. -1.
        -11    1    1    2    0    0  0.36526825166E+02 -0.21429073197E+02 -0.30499431463E+02  0.52188403447E+02  0.00000000000E+00 0.  1.
         11    1    1    2    0    0  0.16520854907E+02  0.37181615034E+00  0.64928026156E+02  0.66997951272E+02  0.00000000000E+00 0. -1.
</event>
<event>
 7    1  0.2626349E-009  0.1645159E+03  0.7561462E-02  0.1183691E+00
          2   -1    0    0  501    0  0.00000000000E+00  0.00000000000E+00  0.84756658564E+03  0.84756658564E+03  0.00000000000E+00 0. -1.
         -2   -1    0    0    0  501 -0.00000000000E+00 -0.00000000000E+00 -0.51139625244E+02  0.51139625244E+02  0.00000000000E+00 0.  1.
         25    2    1    2    0    0 -0.78883467280E+02  0.11496088830E+03  0.17844767910E+03  0.25870758557E+03  0.12508970145E+03 0.  0.
          5    1    3    3  502    0 -0.95886721136E+02  0.69026377114E+02  0.17259503561E+03  0.20920187080E+03  0.41800000000E+01 0. -1.
         -5    1    3    3    0  502  0.17003253856E+02  0.45934511183E+02  0.58526434854E+01  0.49505714772E+02  0.41800000000E+01 0. -1.
        -11    1    1    2    0    0  0.63999956719E+02 -0.12719268987E+03  0.58224233810E+03  0.59939979571E+03  0.00000000000E+00 0. -1.
         11    1    1    2    0    0  0.14883510561E+02  0.12231801574E+02  0.35736943203E+02  0.40598829612E+02  0.00000000000E+00 0.  1.
</event>
<event>
 7    1  0.2626349E-009  0.2074020E+03  0.7561462E-02  0.1143640E+00
          2   -1    0    0  501    0  0.00000000000E+00  0.00000000000E+00  0.22513479338E+03  0.22513479338E+03  0.00000000000E+00 0. -1.
         -2   -1    0    0    0  501 -0.00000000000E+00 -0.00000000000E+00 -0.20244166154E+03  0.20244166154E+03  0.00000000000E+00 0.  1.
         25    2    1    2    0    0  0.18174448423E+03  0.10890984351E+02  0.47432852303E+02  0.22593550550E+03  0.12508919250E+03 0.  0.
          5    1    3    3  502    0  0.10608674740E+03  0.62677005332E+02  0.52533348522E+02  0.13401503676E+03  0.41800000000E+01 0.  1.
         -5    1    3    3    0  502  0.75657736833E+02 -0.51786020981E+02 -0.51004962187E+01  0.91920468740E+02  0.41800000000E+01 0.  1.
        -11    1    1    2    0    0 -0.49979499531E+01 -0.22076831015E+02  0.11178552203E+01  0.22663088308E+02  0.00000000000E+00 0.  1.
         11    1    1    2    0    0 -0.17674653428E+03  0.11185846664E+02 -0.25857575682E+02  0.17897786111E+03  0.00000000000E+00 0. -1.
</event>
<event>
 7    1  0.2626349E-009  0.5073210E+02  0.7561462E-02  0.1441432E+00
         -2   -1    0    0    0  501 -0.00000000000E+00  0.00000000000E+00  0.10231657393E+02  0.10231657393E+02  0.00000000000E+00 0.  1.
          2   -1    0    0  501    0  0.00000000000E+00 -0.00000000000E+00 -0.12321210203E+04  0.12321210203E+04  0.00000000000E+00 0. -1.
         25    2    1    2    0    0  0.40753271005E+01  0.43760053160E+01 -0.10411248746E+04  0.10486294836E+04  0.12508809562E+03 0.  0.
          5    1    3    3  502    0  0.88931837225E+01 -0.14810993642E+02 -0.17972048726E+02  0.25276890331E+02  0.41800000000E+01 0. -1.
         -5    1    3    3    0  502 -0.48178566220E+01  0.19186998958E+02 -0.10231528259E+04  0.10233525933E+04  0.41800000000E+01 0. -1.
        -11    1    1    2    0    0 -0.33036031107E+02  0.41133576818E+01 -0.13394312538E+03  0.13801833175E+03  0.00000000000E+00 0. -1.
         11    1    1    2    0    0  0.28960704006E+02 -0.84893629978E+01 -0.46821362885E+02  0.55704862293E+02  0.00000000000E+00 0.  1.
</event>
<event>
 7    1  0.2626349E-009  0.1725038E+03  0.7561462E-02  0.1175262E+00
          2   -1    0    0  501    0  0.00000000000E+00  0.00000000000E+00  0.93062119709E+03  0.93062119709E+03  0.00000000000E+00 0. -1.
         -2   -1    0    0    0  501 -0.00000000000E+00 -0.00000000000E+00 -0.47091401214E+02  0.47091401214E+02  0.00000000000E+00 0.  1.
         25    2    1    2    0    0 -0.14040541736E+03  0.52791827880E+02  0.68757966231E+03  0.71478286395E+03  0.12509233496E+03 0.  0.
          5    1    3    3  502    0  0.75553781733E+01 -0.23472309021E+02  0.51234808884E+02  0.57013253472E+02  0.41800000000E+01 0.  1.
         -5    1    3    3    0  502 -0.14796079554E+03  0.76264136901E+02  0.63634485342E+03  0.65776961048E+03  0.41800000000E+01 0.  1.
        -11    1    1    2    0    0  0.35020160503E+02  0.12697911940E+01  0.12894939710E+01  0.35066890452E+02  0.00000000000E+00 0.  1.
         11    1    1    2    0    0  0.10538525686E+03 -0.54061619074E+02  0.19466063960E+03  0.22786284390E+03  0.00000000000E+00 0. -1.
</event>
<event>
 7    1  0.2698370E-009  0.2004738E+03  0.7561462E-02  0.1149340E+00
         -1   -1    0    0    0  501 -0.00000000000E+00  0.00000000000E+00  0.96629760222E+02  0.96629760222E+02  0.00000000000E+00 0.  1.
          1   -1    0    0  501    0  0.00000000000E+00 -0.00000000000E+00 -0.46450511573E+03  0.46450511573E+03  0.00000000000E+00 0. -1.
         25    2    1    2    0    0  0.12088197829E+03  0.12575230957E+03 -0.25824610790E+03  0.33580378471E+03  0.12508810314E+03 0.  0.
          5    1    3    3  502    0  0.94273605236E+02  0.12745292372E+02 -0.14568378961E+03  0.17404365566E+03  0.41800000000E+01 0. -1.
         -5    1    3    3    0  502  0.26608373059E+02  0.11300701720E+03 -0.11256231829E+03  0.16176012905E+03  0.41800000000E+01 0. -1.
        -11    1    1    2    0    0 -0.54508690124E+02 -0.10779411690E+03 -0.39425013546E+02  0.12706337249E+03  0.00000000000E+00 0.  1.
         11    1    1    2    0    0 -0.66373288170E+02 -0.17958192672E+02 -0.70204234067E+02  0.98267718745E+02  0.00000000000E+00 0. -1.
</event>
<event>
 7    1  0.2626349E-009  0.1090520E+03  0.7561462E-02  0.1262335E+00
         -3   -1    0    0    0  501 -0.00000000000E+00  0.00000000000E+00  0.66098490193E+03  0.66098490193E+03  0.00000000000E+00 0.  1.
          3   -1    0    0  501    0  0.00000000000E+00 -0.00000000000E+00 -0.33391159019E+02  0.33391159019E+02  0.00000000000E+00 0. -1.
         25    2    1    2    0    0  0.94078165011E+02  0.38537135202E+02  0.36162521203E+03  0.39592771255E+03  0.12510055025E+03 0.  0.
          5    1    3    3  502    0  0.74568485178E+02  0.25593443936E+02  0.36359078799E+03  0.37206345812E+03  0.41800000000E+01 0. -1.
         -5    1    3    3    0  502  0.19509679834E+02  0.12943691265E+02 -0.19655759682E+01  0.23864254434E+02  0.41800000000E+01 0. -1.
        -11    1    1    2    0    0 -0.93937551221E+02 -0.19006976362E+02  0.26136401040E+03  0.27838224550E+03  0.00000000000E+00 0.  1.
         11    1    1    2    0    0 -0.14061379014E+00 -0.19530158839E+02  0.46045204925E+01  0.20066102898E+02  0.00000000000E+00 0. -1.
</event>
<event>
 7    1  0.2626349E-009  0.1176228E+03  0.7561462E-02  0.1247071E+00
         -1   -1    0    0    0  501 -0.00000000000E+00  0.00000000000E+00  0.24180923612E+03  0.24180923612E+03  0.00000000000E+00 0.  1.
          1   -1    0    0  501    0  0.00000000000E+00 -0.00000000000E+00 -0.97478843847E+02  0.97478843847E+02  0.00000000000E+00 0. -1.
         25    2    1    2    0    0  0.95901705592E+01  0.61313240106E+02 -0.20054595251E+02  0.14107039489E+03  0.12508950692E+03 0.  0.
          5    1    3    3  502    0  0.67104396152E+02  0.37373916296E+02 -0.15475765202E+02  0.78465159853E+02  0.41800000000E+01 0.  1.
         -5    1    3    3    0  502 -0.57514225592E+02  0.23939323810E+02 -0.45788300489E+01  0.62605235042E+02  0.41800000000E+01 0.  1.
        -11    1    1    2    0    0 -0.25118783839E+02 -0.72511478701E+02  0.76814126943E+02  0.10857844143E+03  0.00000000000E+00 0. -1.
         11    1    1    2    0    0  0.15528613280E+02  0.11198238595E+02  0.87570860577E+02  0.89639243639E+02  0.00000000000E+00 0.  1.
</event>
<event>
 7    1  0.2626349E-009  0.9186668E+02  0.7561462E-02  0.1298393E+00
         -2   -1    0    0    0  501 -0.00000000000E+00  0.00000000000E+00  0.20592020756E+02  0.20592020756E+02  0.00000000000E+00 0.  1.
          2   -1    0    0  501    0  0.00000000000E+00 -0.00000000000E+00 -0.79970003520E+03  0.79970003520E+03  0.00000000000E+00 0. -1.
         25    2    1    2    0    0  0.41952780062E+02  0.36844609255E+02 -0.55285828823E+03  0.56957813679E+03  0.12509758616E+03 0.  0.
          5    1    3    3  502    0  0.38188637914E+01  0.48168718235E+02 -0.70543562213E+02  0.85607684858E+02  0.41800000000E+01 0.  1.
         -5    1    3    3    0  502  0.38133916271E+02 -0.11324108980E+02 -0.48231472601E+03  0.48397045193E+03  0.41800000000E+01 0.  1.
        -11    1    1    2    0    0 -0.64154930340E+02 -0.34675746220E+02 -0.21212426530E+03  0.22430997836E+03  0.00000000000E+00 0. -1.
         11    1    1    2    0    0  0.22202150278E+02 -0.21688630354E+01 -0.14125460913E+02  0.26403940801E+02  0.00000000000E+00 0.  1.
</event>
<event>
 7    1  0.2626349E-009  0.1113602E+03  0.7561462E-02  0.1258072E+00
          2   -1    0    0  501    0  0.00000000000E+00  0.00000000000E+00  0.37222463991E+03  0.37222463991E+03  0.00000000000E+00 0. -1.
         -2   -1    0    0    0  501 -0.00000000000E+00 -0.00000000000E+00 -0.43970109310E+02  0.43970109310E+02  0.00000000000E+00 0.  1.
         25    2    1    2    0    0 -0.14601298166E+02 -0.24912688736E+02  0.83488967111E+02  0.15313995553E+03  0.12509036087E+03 0.  0.
          5    1    3    3  502    0  0.26639439117E+01  0.50449871842E+02  0.37827092575E+02  0.63250671923E+02  0.41800000000E+01 0.  1.
         -5    1    3    3    0  502 -0.17265242077E+02 -0.75362560578E+02  0.45661874536E+02  0.89889283605E+02  0.41800000000E+01 0.  1.
        -11    1    1    2    0    0 -0.35194678602E+02 -0.64071778012E+01  0.69264056174E+02  0.77956570005E+02  0.00000000000E+00 0.  1.
         11    1    1    2    0    0  0.49795976768E+02  0.31319866537E+02  0.17550150732E+03  0.18509822369E+03  0.00000000000E+00 0. -1.
</event>
<event>
 7    1  0.2626349E-009  0.1072894E+03  0.7561462E-02  0.1265673E+00
          2   -1    0    0  501    0  0.00000000000E+00  0.00000000000E+00  0.73087456273E+03  0.73087456273E+03  0.00000000000E+00 0. -1.
         -2   -1    0    0    0  501 -0.00000000000E+00 -0.00000000000E+00 -0.23916727632E+02  0.23916727632E+02  0.00000000000E+00 0.  1.
         25    2    1    2    0    0  0.43987726279E+02 -0.43961496978E+02  0.47710137357E+03  0.49713211504E+03  0.12508831224E+03 0.  0.
          5    1    3    3  502    0 -0.18290277885E+02  0.33940012243E+02  0.10723676787E+03  0.11403357172E+03  0.41800000000E+01 0. -1.
         -5    1    3    3    0  502  0.62278004164E+02 -0.77901509220E+02  0.36986460570E+03  0.38309854332E+03  0.41800000000E+01 0. -1.
        -11    1    1    2    0    0 -0.52673273823E+02  0.33700558614E+02  0.23506642899E+03  0.24324150029E+03  0.00000000000E+00 0. -1.
         11    1    1    2    0    0  0.86855475431E+01  0.10260938363E+02 -0.52099674664E+01  0.14417675028E+02  0.00000000000E+00 0.  1.
</event>
<event>
 7    1  0.2626349E-009  0.1598957E+03  0.7561462E-02  0.1188815E+00
         -1   -1    0    0    0  501 -0.00000000000E+00  0.00000000000E+00  0.43379064377E+02  0.43379064377E+02  0.00000000000E+00 0.  1.
          1   -1    0    0  501    0  0.00000000000E+00 -0.00000000000E+00 -0.94399439055E+03  0.94399439055E+03  0.00000000000E+00 0. -1.
         25    2    1    2    0    0 -0.15796141024E+03  0.56614421115E+01 -0.63586765793E+03  0.66705100587E+03  0.12508200106E+03 0.  0.
          5    1    3    3  502    0 -0.60854552950E+02  0.18071859895E+02 -0.78053104822E+02  0.10069572139E+03  0.41800000000E+01 0.  1.
         -5    1    3    3    0  502 -0.97106857286E+02 -0.12410417783E+02 -0.55781455310E+03  0.56635528448E+03  0.41800000000E+01 0.  1.
        -11    1    1    2    0    0  0.12307771899E+03 -0.70096424600E+01 -0.25629824995E+03  0.28440473436E+03  0.00000000000E+00 0. -1.
         11    1    1    2    0    0  0.34883691251E+02  0.13482003485E+01 -0.84494182994E+01  0.35917714697E+02  0.00000000000E+00 0.  1.
</event>
<event>
 7    1  0.2626349E-009  0.1256179E+03  0.7561462E-02  0.1234107E+00
          2   -1    0    0  501    0  0.00000000000E+00  0.00000000000E+00  0.12232008189E+04  0.12232008189E+04  0.00000000000E+00 0. -1.
         -2   -1    0    0    0  501 -0.00000000000E+00 -0.00000000000E+00 -0.40302912585E+02  0.40302912585E+02  0.00000000000E+00 0.  1.
         25    2    1    2    0    0 -0.83109004545E+01  0.91749496797E+02  0.10918581958E+04  0.11028545483E+04  0.12508714509E+03 0.  0.
          5    1    3    3  502    0 -0.74720610631E+00 -0.31351180398E+02  0.19601251294E+03  0.19854931997E+03  0.41800000000E+01 0. -1.
         -5    1    3    3    0  502 -0.75636943482E+01  0.12310067720E+03  0.89584568281E+03  0.90430522834E+03  0.41800000000E+01 0. -1.
        -11    1    1    2    0    0 -0.10285835699E+02 -0.34473431518E+02 -0.14781230697E+02  0.38893452888E+02  0.00000000000E+00 0.  1.
         11    1    1    2    0    0  0.18596736154E+02 -0.57276065279E+02  0.10582094128E+03  0.12175573030E+03  0.00000000000E+00 0. -1.
</event>
<event>
 7    1  0.2626349E-009  0.1009537E+03  0.7561462E-02  0.1278303E+00
         -1   -1    0    0    0  501 -0.00000000000E+00  0.00000000000E+00  0.87520830732E+02  0.87520830732E+02  0.00000000000E+00 0.  1.
          1   -1    0    0  501    0  0.00000000000E+00 -0.00000000000E+00 -0.27060810591E+03  0.27060810591E+03  0.00000000000E+00 0. -1.
         25    2    1    2    0    0  0.36395860986E+02 -0.68950687667E+02 -0.10016408403E+02  0.14773948644E+03  0.12509105240E+03 0.  0.
          5    1    3    3  502    0  0.47476740335E+02 -0.83154743106E+02 -0.46730948192E+02  0.10663023067E+03  0.41800000000E+01 0.  1.
         -5    1    3    3    0  502 -0.11080879349E+02  0.14204055440E+02  0.36714539790E+02  0.41109255771E+02  0.41800000000E+01 0.  1.
        -11    1    1    2    0    0  0.43934045107E+01  0.32715902883E+02 -0.46298550271E+01  0.33332684593E+02  0.00000000000E+00 0.  1.
         11    1    1    2    0    0 -0.40789265497E+02  0.36234784784E+02 -0.16844101174E+03  0.17705676560E+03  0.00000000000E+00 0. -1.
</event>
<event>
 7    1  0.2626349E-009  0.2034915E+03  0.7561462E-02  0.1146826E+00
          1   -1    0    0  501    0  0.00000000000E+00  0.00000000000E+00  0.99096899727E+03  0.99096899727E+03  0.00000000000E+00 0. -1.
         -1   -1    0    0    0  501 -0.00000000000E+00 -0.00000000000E+00 -0.78767708182E+02  0.78767708182E+02  0.00000000000E+00 0.  1.
         25    2    1    2    0    0  0.22852376643E+02  0.17812002919E+03  0.81824991358E+03  0.84701222898E+03  0.12509124288E+03 0.  0.
          5    1    3    3  502    0  0.21313414517E+02 -0.60118174527E+01  0.29955191169E+02  0.37485856872E+02  0.41800000000E+01 0. -1.
         -5    1    3    3    0  502  0.15389621267E+01  0.18413184664E+03  0.78829472241E+03  0.80952637211E+03  0.41800000000E+01 0. -1.
        -11    1    1    2    0    0 -0.42170699250E+02 -0.32175492694E+02  0.37922701728E+02  0.65205532830E+02  0.00000000000E+00 0.  1.
         11    1    1    2    0    0  0.19318322607E+02 -0.14594453649E+03  0.56028673776E+02  0.15751894364E+03  0.00000000000E+00 0. -1.
</event>
<event>
 7    1  0.2626349E-009  0.1580754E+03  0.7561462E-02  0.1190887E+00
         -1   -1    0    0    0  501 -0.00000000000E+00  0.00000000000E+00  0.68194467676E+02  0.68194467676E+02  0.00000000000E+00 0.  1.
          1   -1    0    0  501    0  0.00000000000E+00 -0.00000000000E+00 -0.52282518171E+03  0.52282518171E+03  0.00000000000E+00 0. -1.
         25    2    1    2    0    0  0.13284676209E+03 -0.75896787697E+02 -0.26386343156E+03  0.32966616048E+03  0.12508909732E+03 0.  0.
          5    1    3    3  502    0  0.54855399041E+02 -0.17095574789E+02 -0.11118911434E+02  0.58672617743E+02  0.41800000000E+01 0.  1.
         -5    1    3    3    0  502  0.77991363044E+02 -0.58801212907E+02 -0.25274452013E+03  0.27099354273E+03  0.41800000000E+01 0.  1.
        -11    1    1    2    0    0 -0.46576044484E+02  0.54887473515E+02 -0.14401754835E+03  0.16100626354E+03  0.00000000000E+00 0. -1.
         11    1    1    2    0    0 -0.86270717601E+02  0.21009314182E+02 -0.46749734127E+02  0.10034722537E+03  0.00000000000E+00 0.  1.
</event>
<event>
 7    1  0.2626349E-009  0.1197996E+03  0.7561462E-02  0.1243428E+00
         -1   -1    0    0    0  501 -0.00000000000E+00  0.00000000000E+00  0.12086256606E+03  0.12086256606E+03  0.00000000000E+00 0.  1.
          1   -1    0    0  501    0  0.00000000000E+00 -0.00000000000E+00 -0.15530263985E+03  0.15530263985E+03  0.00000000000E+00 0. -1.
         25    2    1    2    0    0 -0.26936329156E+01  0.80083850901E+02 -0.44934046569E+02  0.15519362319E+03  0.12508122682E+03 0.  0.
          5    1    3    3  502    0 -0.50511086216E+02  0.51140377200E+02 -0.63648991985E+02  0.96100856352E+02  0.41800000000E+01 0.  1.
         -5    1    3    3    0  502  0.47817453301E+02  0.28943473702E+02  0.18714945416E+02  0.59092766833E+02  0.41800000000E+01 0.  1.
        -11    1    1    2    0    0 -0.17087494860E+02 -0.88438291516E+02  0.26836762090E+02  0.93986837836E+02  0.00000000000E+00 0.  1.
         11    1    1    2    0    0  0.19781127776E+02  0.83544406148E+01 -0.16342789319E+02  0.26984744890E+02  0.00000000000E+00 0. -1.
</event>
<event>
 7    1  0.2626349E-009  0.9315780E+02  0.7561462E-02  0.1295380E+00
          2   -1    0    0  501    0  0.00000000000E+00  0.00000000000E+00  0.41456764312E+03  0.41456764312E+03  0.00000000000E+00 0. -1.
         -2   -1    0    0    0  501 -0.00000000000E+00 -0.00000000000E+00 -0.29990640397E+02  0.29990640397E+02  0.00000000000E+00 0.  1.
         25    2    1    2    0    0 -0.27092587649E+02 -0.24482229830E+00  0.22108901192E+03  0.25546479578E+03  0.12509133641E+03 0.  0.
          5    1    3    3  502    0  0.14886524663E+02  0.44180132127E+02  0.32004996212E+02  0.56703482025E+02  0.41800000000E+01 0.  1.
         -5    1    3    3    0  502 -0.41979112312E+02 -0.44424954425E+02  0.18908401571E+03  0.19876131375E+03  0.41800000000E+01 0.  1.
        -11    1    1    2    0    0  0.29031740980E+01  0.35428302229E+02  0.13016737711E+03  0.13493383223E+03  0.00000000000E+00 0. -1.
         11    1    1    2    0    0  0.24189413551E+02 -0.35183479930E+02  0.33320613696E+02  0.54159655510E+02  0.00000000000E+00 0.  1.
</event>
<event>
 7    1  0.2626349E-009  0.1143941E+03  0.7561462E-02  0.1252642E+00
          1   -1    0    0  501    0  0.00000000000E+00  0.00000000000E+00  0.39712915574E+03  0.39712915574E+03  0.00000000000E+00 0. -1.
         -1   -1    0    0    0  501 -0.00000000000E+00 -0.00000000000E+00 -0.44495819948E+02  0.44495819948E+02  0.00000000000E+00 0.  1.
         25    2    1    2    0    0  0.52745804737E+02 -0.48308752826E+02  0.23969537202E+03  0.27967236085E+03  0.12508757946E+03 0.  0.
          5    1    3    3  502    0  0.54799472615E+02  0.10205630343E+02  0.20274891265E+03  0.21031341154E+03  0.41800000000E+01 0.  1.
         -5    1    3    3    0  502 -0.20536678788E+01 -0.58514383169E+02  0.36946459368E+02  0.69358949309E+02  0.41800000000E+01 0.  1.
        -11    1    1    2    0    0 -0.35731482940E+02  0.74690972459E+02  0.94103180253E+02  0.12534308427E+03  0.00000000000E+00 0. -1.
         11    1    1    2    0    0 -0.17014321796E+02 -0.26382219633E+02  0.18834783520E+02  0.36609530578E+02  0.00000000000E+00 0.  1.
</event>
<event>
 7    1  0.2626349E-009  0.1364635E+03  0.7561462E-02  0.1218168E+00
         -1   -1    0    0    0  501 -0.00000000000E+00  0.00000000000E+00  0.20959787262E+03  0.20959787262E+03  0.00000000000E+00 0.  1.
          1   -1    0    0  501    0  0.00000000000E+00 -0.00000000000E+00 -0.16898667214E+03  0.16898667214E+03  0.00000000000E+00 0. -1.
         25    2    1    2    0    0 -0.81985309873E+02  0.84796632519E+02 -0.77138738655E+02  0.18844075616E+03  0.12508986233E+03 0.  0.
          5    1    3    3  502    0 -0.80405440921E+02  0.10029649715E+03 -0.98266709804E+02  0.16185870668E+03  0.41800000000E+01 0. -1.
         -5    1    3    3    0  502 -0.15798689514E+01 -0.15499864636E+02  0.21127971149E+02  0.26582049479E+02  0.41800000000E+01 0. -1.
        -11    1    1    2    0    0  0.74330466360E+02 -0.91582682160E+02  0.61596010207E+02  0.13306567692E+03  0.00000000000E+00 0. -1.
         11    1    1    2    0    0  0.76548435127E+01  0.67860496407E+01  0.56153928935E+02  0.57078111687E+02  0.00000000000E+00 0.  1.
</event>
<event>
 7    1  0.2626349E-009  0.1163857E+03  0.7561462E-02  0.1249182E+00
         -1   -1    0    0    0  501 -0.00000000000E+00  0.00000000000E+00  0.22947467805E+03  0.22947467805E+03  0.00000000000E+00 0.  1.
          1   -1    0    0  501    0  0.00000000000E+00 -0.00000000000E+00 -0.88520319367E+02  0.88520319367E+02  0.00000000000E+00 0. -1.
         25    2    1    2    0    0  0.84285345285E+02 -0.20393615812E+02  0.43891074793E+02  0.15840856988E+03  0.12508768753E+03 0.  0.
          5    1    3    3  502    0 -0.45308701065E+01  0.36358569690E+02 -0.12322981916E+02  0.38881906552E+02  0.41800000000E+01 0.  1.
         -5    1    3    3    0  502  0.88816215391E+02 -0.56752185502E+02  0.56214056710E+02  0.11952666333E+03  0.41800000000E+01 0.  1.
        -11    1    1    2    0    0 -0.18634257490E+02  0.16089288407E+02  0.90127891665E+02  0.93429853952E+02  0.00000000000E+00 0.  1.
         11    1    1    2    0    0 -0.65651087795E+02  0.43043274060E+01  0.69353922287E+01  0.66156573584E+02  0.00000000000E+00 0. -1.
</event>
<event>
 7    1  0.2626349E-009  0.1016737E+03  0.7561462E-02  0.1276815E+00
         -1   -1    0    0    0  501 -0.00000000000E+00  0.00000000000E+00  0.22760277993E+02  0.22760277993E+02  0.00000000000E+00 0.  1.
          1   -1    0    0  501    0  0.00000000000E+00 -0.00000000000E+00 -0.10611990327E+04  0.10611990327E+04  0.00000000000E+00 0. -1.
         25    2    1    2    0    0  0.22342391010E+02  0.73607970788E+02 -0.83845871583E+03  0.85122096718E+03  0.12508717367E+03 0.  0.
          5    1    3    3  502    0  0.36411676650E+02  0.72638434290E+02 -0.25689106116E+03  0.26946733018E+03  0.41800000000E+01 0.  1.
         -5    1    3    3    0  502 -0.14069285641E+02  0.96953649839E+00 -0.58156765467E+03  0.58175363700E+03  0.41800000000E+01 0.  1.
        -11    1    1    2    0    0 -0.43157868973E+02 -0.74875713847E+02 -0.19173718194E+03  0.21031433883E+03  0.00000000000E+00 0. -1.
         11    1    1    2    0    0  0.20815477964E+02  0.12677430587E+01 -0.82428569250E+01  0.22424004674E+02  0.00000000000E+00 0.  1.
</event>
<event>
 7    1  0.2626349E-009  0.1798840E+03  0.7561462E-02  0.1167915E+00
         -2   -1    0    0    0  501 -0.00000000000E+00  0.00000000000E+00  0.42312898134E+02  0.42312898134E+02  0.00000000000E+00 0. -1.
          2   -1    0    0  501    0  0.00000000000E+00 -0.00000000000E+00 -0.10051315467E+04  0.10051315467E+04  0.00000000000E+00 0.  1.
         25    2    1    2    0    0 -0.42304553033E+02  0.14637625731E+03 -0.72084301149E+03  0.74731402942E+03  0.12509167614E+03 0.  0.
          5    1    3    3  502    0 -0.71827567544E+02  0.12927540559E+03 -0.43629577324E+03  0.46069817028E+03  0.41800000000E+01 0.  1.
         -5    1    3    3    0  502  0.29523014511E+02  0.17100851719E+02 -0.28454723825E+03  0.28661585914E+03  0.41800000000E+01 0.  1.
        -11    1    1    2    0    0 -0.13183036136E+02 -0.11069273958E+03 -0.14687745770E+03  0.18438997429E+03  0.00000000000E+00 0.  1.
         11    1    1    2    0    0  0.55487589169E+02 -0.35683517731E+02 -0.95098179337E+02  0.11574044109E+03  0.00000000000E+00 0. -1.
</event>
<event>
 7    1  0.2626349E-009  0.1133249E+03  0.7561462E-02  0.1254534E+00
         -2   -1    0    0    0  501 -0.00000000000E+00  0.00000000000E+00  0.85937051993E+02  0.85937051993E+02  0.00000000000E+00 0. -1.
          2   -1    0    0  501    0  0.00000000000E+00 -0.00000000000E+00 -0.30979189742E+03  0.30979189742E+03  0.00000000000E+00 0.  1.
         25    2    1    2    0    0  0.55795662198E+02  0.49776046256E+02 -0.37868263238E+01  0.14578152050E+03  0.12508837262E+03 0.  0.
          5    1    3    3  502    0 -0.22823583269E+02  0.13832022728E+02  0.40406060654E+02  0.48604145333E+02  0.41800000000E+01 0. -1.
         -5    1    3    3    0  502  0.78619245467E+02  0.35944023527E+02 -0.44192886977E+02  0.97177375168E+02  0.41800000000E+01 0. -1.
        -11    1    1    2    0    0 -0.78289983790E+02 -0.32686193144E+02 -0.12735618656E+03  0.15302714478E+03  0.00000000000E+00 0.  1.
         11    1    1    2    0    0  0.22494321592E+02 -0.17089853111E+02 -0.92711832540E+02  0.96920284132E+02  0.00000000000E+00 0. -1.
</event>
<event>
 7    1  0.2626349E-009  0.9611270E+02  0.7561462E-02  0.1288689E+00
         -2   -1    0    0    0  501 -0.00000000000E+00  0.00000000000E+00  0.12726655573E+03  0.12726655573E+03  0.00000000000E+00 0.  1.
          2   -1    0    0  501    0  0.00000000000E+00 -0.00000000000E+00 -0.16319358042E+03  0.16319358042E+03  0.00000000000E+00 0. -1.
         25    2    1    2    0    0  0.27476304899E+01 -0.35209468642E+01 -0.11439849224E+03  0.16957102998E+03  0.12508945856E+03 0.  0.
          5    1    3    3  502    0 -0.43742084437E+02  0.35727163481E+02 -0.26344557758E+02  0.62460453767E+02  0.41800000000E+01 0.  1.
         -5    1    3    3    0  502  0.46489714927E+02 -0.39248110345E+02 -0.88053934481E+02  0.10711057622E+03  0.41800000000E+01 0.  1.
        -11    1    1    2    0    0  0.17867022157E+01  0.38899036936E+02  0.75682585206E+02  0.85112755112E+02  0.00000000000E+00 0.  1.
         11    1    1    2    0    0 -0.45343327055E+01 -0.35378090072E+02  0.27888823420E+01  0.35776351057E+02  0.00000000000E+00 0. -1.
</event>
<event>
 7    1  0.2626349E-009  0.3235518E+03  0.7561462E-02  0.1074026E+00
         -3   -1    0    0    0  501 -0.00000000000E+00  0.00000000000E+00  0.10466266795E+03  0.10466266795E+03  0.00000000000E+00 0.  1.
          3   -1    0    0  501    0  0.00000000000E+00 -0.00000000000E+00 -0.13212255041E+04  0.13212255041E+04  0.00000000000E+00 0. -1.
         25    2    1    2    0    0 -0.29137695359E+03 -0.10503703635E+03 -0.95002886115E+03  0.10070427783E+04  0.12508801828E+03 0.  0.
          5    1    3    3  502    0 -0.64571923365E+02 -0.68519841812E+02 -0.17616402312E+03  0.19978923257E+03  0.41800000000E+01 0.  1.
         -5    1    3    3    0  502 -0.22680503023E+03 -0.36517194534E+02 -0.77386483803E+03  0.80725354578E+03  0.41800000000E+01 0.  1.
        -11    1    1    2    0    0  0.14110743552E+03  0.99617684006E+02 -0.14201705629E+03  0.22361537425E+03  0.00000000000E+00 0. -1.
         11    1    1    2    0    0  0.15026951807E+03  0.54193523400E+01 -0.12451691869E+03  0.19523001942E+03  0.00000000000E+00 0.  1.
</event>
<event>
 7    1  0.2626349E-009  0.1085281E+03  0.7561462E-02  0.1263320E+00
         -1   -1    0    0    0  501 -0.00000000000E+00  0.00000000000E+00  0.17562753277E+03  0.17562753277E+03  0.00000000000E+00 0.  1.
          1   -1    0    0  501    0  0.00000000000E+00 -0.00000000000E+00 -0.27423356252E+03  0.27423356252E+03  0.00000000000E+00 0. -1.
         25    2    1    2    0    0  0.79453721104E+02 -0.43048343605E+02 -0.22316188927E+03  0.27132018480E+03  0.12508940873E+03 0.  0.
          5    1    3    3  502    0  0.72719447159E+02 -0.34878977718E+02 -0.44330057325E+02  0.92126475371E+02  0.41800000000E+01 0. -1.
         -5    1    3    3    0  502  0.67342739448E+01 -0.81693658865E+01 -0.17883183194E+03  0.17919370943E+03  0.41800000000E+01 0. -1.
        -11    1    1    2    0    0 -0.82384021084E+01  0.52438954120E+02  0.72385137229E+02  0.89762593936E+02  0.00000000000E+00 0.  1.
         11    1    1    2    0    0 -0.71215318995E+02 -0.93906105154E+01  0.52170722289E+02  0.88778316551E+02  0.00000000000E+00 0. -1.
</event>
<event>
 7    1  0.2626349E-009  0.5610708E+02  0.7561462E-02  0.1414935E+00
         -1   -1    0    0    0  501 -0.00000000000E+00  0.00000000000E+00  0.38906449155E+02  0.38906449155E+02  0.00000000000E+00 0.  1.
          1   -1    0    0  501    0  0.00000000000E+00 -0.00000000000E+00 -0.35710207407E+03  0.35710207407E+03  0.00000000000E+00 0. -1.
         25    2    1    2    0    0  0.13525996048E+02 -0.12464954483E+02 -0.25511394113E+03  0.28472322015E+03  0.12508341806E+03 0.  0.
          5    1    3    3  502    0 -0.11007923645E+02  0.13801083558E+02 -0.24696811607E+03  0.24763353377E+03  0.41800000000E+01 0. -1.
         -5    1    3    3    0  502  0.24533919693E+02 -0.26266038041E+02 -0.81458250539E+01  0.37089686379E+02  0.41800000000E+01 0. -1.
        -11    1    1    2    0    0 -0.33096462273E+02 -0.25894583537E+01  0.95725669702E+01  0.34550183038E+02  0.00000000000E+00 0.  1.
         11    1    1    2    0    0  0.19570466225E+02  0.15054412837E+02 -0.72654250757E+02  0.76735120038E+02  0.00000000000E+00 0. -1.
</event>
<event>
 7    1  0.2626349E-009  0.8646052E+02  0.7561462E-02  0.1311657E+00
          2   -1    0    0  501    0  0.00000000000E+00  0.00000000000E+00  0.22153509681E+02  0.22153509681E+02  0.00000000000E+00 0. -1.
         -2   -1    0    0    0  501 -0.00000000000E+00 -0.00000000000E+00 -0.67834628086E+03  0.67834628086E+03  0.00000000000E+00 0.  1.
         25    2    1    2    0    0  0.36542241401E+02 -0.31016490366E+02 -0.26097923878E+03  0.29335212339E+03  0.12509175488E+03 0.  0.
          5    1    3    3  502    0  0.53840430413E+02 -0.25021564250E+02 -0.40305882482E+02  0.71881201905E+02  0.41800000000E+01 0.  1.
         -5    1    3    3    0  502 -0.17298189012E+02 -0.59949261161E+01 -0.22067335630E+03  0.22147092148E+03  0.41800000000E+01 0.  1.
        -11    1    1    2    0    0  0.22610666923E+02  0.27169080623E+02 -0.20116989956E+03  0.20425163326E+03  0.00000000000E+00 0. -1.
         11    1    1    2    0    0 -0.59152908323E+02  0.38474097432E+01 -0.19404363284E+03  0.20289603390E+03  0.00000000000E+00 0.  1.
</event>
<event>
 7    1  0.2626349E-009  0.1545268E+03  0.7561462E-02  0.1195018E+00
         -1   -1    0    0    0  501 -0.00000000000E+00  0.00000000000E+00  0.75659569304E+03  0.75659569304E+03  0.00000000000E+00 0.  1.
          1   -1    0    0  501    0  0.00000000000E+00 -0.00000000000E+00 -0.41394619956E+02  0.41394619956E+02  0.00000000000E+00 0. -1.
         25    2    1    2    0    0 -0.36537747573E+02  0.10630412486E+03  0.19261830058E+03  0.25570448697E+03  0.12508957183E+03 0.  0.
          5    1    3    3  502    0 -0.40706192895E+02  0.13211082820E+03  0.17815796329E+03  0.22553934768E+03  0.41800000000E+01 0. -1.
         -5    1    3    3    0  502  0.41684453218E+01 -0.25806703347E+02  0.14460337290E+02  0.30165139293E+02  0.41800000000E+01 0. -1.
        -11    1    1    2    0    0  0.57628746146E+02 -0.29718057013E+02  0.25900485367E+03  0.26699765827E+03  0.00000000000E+00 0. -1.
         11    1    1    2    0    0 -0.21090998573E+02 -0.76586067844E+02  0.26357791883E+03  0.27528816775E+03  0.00000000000E+00 0.  1.
</event>
<event>
 7    1  0.2626349E-009  0.1512470E+03  0.7561462E-02  0.1198949E+00
         -2   -1    0    0    0  501 -0.00000000000E+00  0.00000000000E+00  0.11935508302E+03  0.11935508302E+03  0.00000000000E+00 0.  1.
          2   -1    0    0  501    0  0.00000000000E+00 -0.00000000000E+00 -0.31691415151E+03  0.31691415151E+03  0.00000000000E+00 0. -1.
         25    2    1    2    0    0  0.36517030551E+02  0.14056747238E+03 -0.24813212750E+02  0.19328585985E+03  0.12510403782E+03 0.  0.
          5    1    3    3  502    0 -0.20574958818E+00  0.32368440058E+02 -0.64474600225E+02  0.72264823523E+02  0.41800000000E+01 0.  1.
         -5    1    3    3    0  502  0.36722780139E+02  0.10819903233E+03  0.39661387475E+02  0.12102103633E+03  0.41800000000E+01 0.  1.
        -11    1    1    2    0    0  0.11135267808E+02 -0.66640927711E+02 -0.27010349240E+02  0.72763771214E+02  0.00000000000E+00 0.  1.
         11    1    1    2    0    0 -0.47652298359E+02 -0.73926544674E+02 -0.14573550651E+03  0.17021960346E+03  0.00000000000E+00 0. -1.
</event>
<event>
 7    1  0.2626349E-009  0.1151334E+03  0.7561462E-02  0.1251348E+00
         -2   -1    0    0    0  501 -0.00000000000E+00  0.00000000000E+00  0.20413353888E+02  0.20413353888E+02  0.00000000000E+00 0.  1.
          2   -1    0    0  501    0  0.00000000000E+00 -0.00000000000E+00 -0.80142416251E+03  0.80142416251E+03  0.00000000000E+00 0. -1.
         25    2    1    2    0    0  0.65359779514E+02 -0.13762843229E+02 -0.44715656435E+03  0.46910342590E+03  0.12509082508E+03 0.  0.
          5    1    3    3  502    0  0.50247969522E+02  0.53032766352E+02 -0.22697728968E+03  0.23848164537E+03  0.41800000000E+01 0. -1.
         -5    1    3    3    0  502  0.15111809992E+02 -0.66795609581E+02 -0.22017927467E+03  0.23062178053E+03  0.41800000000E+01 0. -1.
        -11    1    1    2    0    0 -0.15094646085E+02 -0.22077865559E+02 -0.21436758232E+02  0.34275575729E+02  0.00000000000E+00 0.  1.
         11    1    1    2    0    0 -0.50265133429E+02  0.35840708788E+02 -0.31241748604E+03  0.31845851477E+03  0.00000000000E+00 0. -1.
</event>
<event>
 7    1  0.2626349E-009  0.1013658E+03  0.7561462E-02  0.1277450E+00
         -1   -1    0    0    0  501 -0.00000000000E+00  0.00000000000E+00  0.31575423317E+02  0.31575423317E+02  0.00000000000E+00 0.  1.
          1   -1    0    0  501    0  0.00000000000E+00 -0.00000000000E+00 -0.47219381304E+03  0.47219381304E+03  0.00000000000E+00 0. -1.
         25    2    1    2    0    0 -0.27644022076E+02 -0.94073850288E+01 -0.38043457703E+03  0.40153577041E+03  0.12509123336E+03 0.  0.
          5    1    3    3  502    0 -0.72801965475E+02 -0.15204098754E+02 -0.16111709443E+03  0.17750346845E+03  0.41800000000E+01 0.  1.
         -5    1    3    3    0  502  0.45157943399E+02  0.57967137253E+01 -0.21931748261E+03  0.22403230195E+03  0.41800000000E+01 0.  1.
        -11    1    1    2    0    0 -0.23619110587E+02  0.19068970845E+02 -0.19509609823E+02  0.36084801641E+02  0.00000000000E+00 0. -1.
         11    1    1    2    0    0  0.51263132663E+02 -0.96615858166E+01 -0.40674202861E+02  0.66148664305E+02  0.00000000000E+00 0.  1.
</event>
<event>
 7    1  0.2626349E-009  0.8789911E+02  0.7561462E-02  0.1308021E+00
          1   -1    0    0  501    0  0.00000000000E+00  0.00000000000E+00  0.13217563757E+03  0.13217563757E+03  0.00000000000E+00 0. -1.
         -1   -1    0    0    0  501 -0.00000000000E+00 -0.00000000000E+00 -0.13683763862E+03  0.13683763862E+03  0.00000000000E+00 0.  1.
         25    2    1    2    0    0 -0.54416828700E+02 -0.73678423887E+01 -0.59623313695E+02  0.14905744533E+03  0.12509079152E+03 0.  0.
          5    1    3    3  502    0 -0.42763784593E+02 -0.23887207366E+02  0.29662193734E+02  0.57416531466E+02  0.41800000000E+01 0.  1.
         -5    1    3    3    0  502 -0.11653044106E+02  0.16519364977E+02 -0.89285507430E+02  0.91640913860E+02  0.41800000000E+01 0.  1.
        -11    1    1    2    0    0  0.58684899777E+02 -0.31695875124E+02  0.28207989165E+02  0.72417101671E+02  0.00000000000E+00 0.  1.
         11    1    1    2    0    0 -0.42680710774E+01  0.39063717513E+02  0.26753323479E+02  0.47538729199E+02  0.00000000000E+00 0. -1.
</event>
<event>
 7    1  0.2626349E-009  0.1651361E+03  0.7561462E-02  0.1183017E+00
          1   -1    0    0  501    0  0.00000000000E+00  0.00000000000E+00  0.12898398030E+03  0.12898398030E+03  0.00000000000E+00 0. -1.
         -1   -1    0    0    0  501 -0.00000000000E+00 -0.00000000000E+00 -0.28953126526E+03  0.28953126526E+03  0.00000000000E+00 0.  1.
         25    2    1    2    0    0  0.62711724069E+02 -0.12974609240E+03 -0.99496002040E+01  0.19108581356E+03  0.12509190529E+03 0.  0.
          5    1    3    3  502    0 -0.16254310975E+02 -0.36200795954E+02 -0.48376749999E+02  0.62709509593E+02  0.41800000000E+01 0. -1.
         -5    1    3    3    0  502  0.78966035044E+02 -0.93545296447E+02  0.38427149795E+02  0.12837630396E+03  0.41800000000E+01 0. -1.
        -11    1    1    2    0    0  0.10009112552E+02  0.77971009488E+02 -0.90198234272E+02  0.11964690602E+03  0.00000000000E+00 0.  1.
         11    1    1    2    0    0 -0.72720836621E+02  0.51775082913E+02 -0.60399450486E+02  0.10778252599E+03  0.00000000000E+00 0. -1.
</event>
<event>
 7    1  0.2626349E-009  0.8542258E+02  0.7561462E-02  0.1314331E+00
         -2   -1    0    0    0  501 -0.00000000000E+00  0.00000000000E+00  0.84193425989E+01  0.84193425989E+01  0.00000000000E+00 0.  1.
          2   -1    0    0  501    0  0.00000000000E+00 -0.00000000000E+00 -0.15517114682E+04  0.15517114682E+04  0.00000000000E+00 0. -1.
         25    2    1    2    0    0 -0.93194480919E+01  0.66352738291E+01 -0.11246479030E+04  0.11316407843E+04  0.12508828837E+03 0.  0.
          5    1    3    3  502    0  0.28950613992E+02  0.23883830916E+02 -0.11357991894E+03  0.11969313187E+03  0.41800000000E+01 0. -1.
         -5    1    3    3    0  502 -0.38270062084E+02 -0.17248557087E+02 -0.10110679841E+04  0.10119476524E+04  0.41800000000E+01 0. -1.
        -11    1    1    2    0    0  0.75126475366E+01 -0.48457179527E+02 -0.20497592177E+03  0.21075973673E+03  0.00000000000E+00 0. -1.
         11    1    1    2    0    0  0.18068005554E+01  0.41821905698E+02 -0.21366830081E+03  0.21773028980E+03  0.00000000000E+00 0.  1.
</event>
<event>
 7    1  0.2626349E-009  0.7310946E+02  0.7561462E-02  0.1349827E+00
          1   -1    0    0  501    0  0.00000000000E+00  0.00000000000E+00  0.60137300021E+02  0.60137300021E+02  0.00000000000E+00 0. -1.
         -1   -1    0    0    0  501 -0.00000000000E+00 -0.00000000000E+00 -0.22503865245E+03  0.22503865245E+03  0.00000000000E+00 0.  1.
         25    2    1    2    0    0  0.25342584228E+02  0.10994496892E+02 -0.11906358039E+03  0.17489062770E+03  0.12508984749E+03 0.  0.
          5    1    3    3  502    0  0.79869763396E+01  0.46776025416E+02 -0.12563835403E+03  0.13436612947E+03  0.41800000000E+01 0. -1.
         -5    1    3    3    0  502  0.17355607888E+02 -0.35781528523E+02  0.65747736402E+01  0.40524498233E+02  0.41800000000E+01 0. -1.
        -11    1    1    2    0    0  0.31474064893E+01 -0.26140147189E+02 -0.66804584736E+02  0.71805751889E+02  0.00000000000E+00 0.  1.
         11    1    1    2    0    0 -0.28489990717E+02  0.15145650297E+02  0.20966812700E+02  0.38479572877E+02  0.00000000000E+00 0. -1.
</event>
<event>
 7    1  0.2626349E-009  0.8184551E+02  0.7561462E-02  0.1323894E+00
          2   -1    0    0  501    0  0.00000000000E+00  0.00000000000E+00  0.61810874588E+02  0.61810874588E+02  0.00000000000E+00 0. -1.
         -2   -1    0    0    0  501 -0.00000000000E+00 -0.00000000000E+00 -0.23446757676E+03  0.23446757676E+03  0.00000000000E+00 0.  1.
         25    2    1    2    0    0  0.62107099056E+01  0.48045043634E+02 -0.76917875514E+02  0.15463148861E+03  0.12509052146E+03 0.  0.
          5    1    3    3  502    0 -0.24732355303E+02  0.60045662130E+02  0.58725953742E+01  0.65338585200E+02  0.41800000000E+01 0.  1.
         -5    1    3    3    0  502  0.30943065209E+02 -0.12000618496E+02 -0.82790470888E+02  0.89292903406E+02  0.41800000000E+01 0.  1.
        -11    1    1    2    0    0 -0.15543256031E+02  0.67722046434E+00 -0.90426716831E+02  0.91755340729E+02  0.00000000000E+00 0.  1.
         11    1    1    2    0    0  0.93325461252E+01 -0.48722264098E+02 -0.53121098250E+01  0.49891622010E+02  0.00000000000E+00 0. -1.
</event>
<event>
 7    1  0.2626349E-009  0.9922591E+02  0.7561462E-02  0.1281932E+00
          2   -1    0    0  501    0  0.00000000000E+00  0.00000000000E+00  0.54660973638E+02  0.54660973638E+02  0.00000000000E+00 0. -1.
         -2   -1    0    0    0  501 -0.00000000000E+00 -0.00000000000E+00 -0.32097238744E+03  0.32097238744E+03  0.00000000000E+00 0.  1.
         25    2    1    2    0    0  0.49375415743E+02 -0.48430519808E+02 -0.12966542691E+03  0.19298639350E+03  0.12508868140E+03 0.  0.
          5    1    3    3  502    0  0.28689476852E+02  0.21063321422E+01 -0.13487580328E+03  0.13797274161E+03  0.41800000000E+01 0. -1.
         -5    1    3    3    0  502  0.20685938890E+02 -0.50536851950E+02  0.52103763704E+01  0.55013651894E+02  0.41800000000E+01 0. -1.
        -11    1    1    2    0    0 -0.92544201806E+01  0.68939356898E+02 -0.52322923244E+02  0.87040034003E+02  0.00000000000E+00 0. -1.
         11    1    1    2    0    0 -0.40120995562E+02 -0.20508837090E+02 -0.84323063650E+02  0.95606933572E+02  0.00000000000E+00 0.  1.
</event>
<event>
 7    1  0.2626349E-009  0.6505532E+02  0.7561462E-02  0.1377764E+00
          1   -1    0    0  501    0  0.00000000000E+00  0.00000000000E+00  0.16006371846E+03  0.16006371846E+03  0.00000000000E+00 0. -1.
         -1   -1    0    0    0  501 -0.00000000000E+00 -0.00000000000E+00 -0.12978977227E+03  0.12978977227E+03  0.00000000000E+00 0.  1.
         25    2    1    2    0    0 -0.33866504212E+02 -0.12038588024E+02 -0.71936221876E+02  0.14870697199E+03  0.12508827200E+03 0.  0.
          5    1    3    3  502    0  0.26293544180E+01 -0.20081271851E+01 -0.10078989676E+03  0.10093077712E+03  0.41800000000E+01 0.  1.
         -5    1    3    3    0  502 -0.36495858630E+02 -0.10030460839E+02  0.28853674889E+02  0.47776194871E+02  0.41800000000E+01 0.  1.
        -11    1    1    2    0    0  0.52779620252E+02 -0.13918375389E+02  0.30392861893E+02  0.62475079363E+02  0.00000000000E+00 0.  1.
         11    1    1    2    0    0 -0.18913116040E+02  0.25956963412E+02  0.71817306174E+02  0.78671439379E+02  0.00000000000E+00 0. -1.
</event>
<event>
 7    1  0.2626349E-009  0.1091578E+03  0.7561462E-02  0.1262137E+00
          2   -1    0    0  501    0  0.00000000000E+00  0.00000000000E+00  0.26238210399E+02  0.26238210399E+02  0.00000000000E+00 0. -1.
         -2   -1    0    0    0  501 -0.00000000000E+00 -0.00000000000E+00 -0.64944634397E+03  0.64944634397E+03  0.00000000000E+00 0.  1.
         25    2    1    2    0    0 -0.24081886193E+02  0.62187449814E+02 -0.27328534260E+03  0.30786264528E+03  0.12508922304E+03 0.  0.
          5    1    3    3  502    0 -0.52848548656E+02  0.59474630148E+02 -0.26613485037E+03  0.27780466466E+03  0.41800000000E+01 0.  1.
         -5    1    3    3    0  502  0.28766662463E+02  0.27128196658E+01 -0.71504922321E+01  0.30057980620E+02  0.41800000000E+01 0.  1.
        -11    1    1    2    0    0 -0.27487281387E+02 -0.49058336664E+02 -0.22725188090E+03  0.23410614774E+03  0.00000000000E+00 0.  1.
         11    1    1    2    0    0  0.51569167580E+02 -0.13129113149E+02 -0.12267091006E+03  0.13371576135E+03  0.00000000000E+00 0. -1.
</event>
<event>
 7    1  0.2626349E-009  0.1097273E+03  0.7561462E-02  0.1261076E+00
          2   -1    0    0  501    0  0.00000000000E+00  0.00000000000E+00  0.13086985907E+03  0.13086985907E+03  0.00000000000E+00 0. -1.
         -2   -1    0    0    0  501 -0.00000000000E+00 -0.00000000000E+00 -0.97009648775E+02  0.97009648775E+02  0.00000000000E+00 0.  1.
         25    2    1    2    0    0 -0.18396941930E+02 -0.15501405746E+02 -0.42808686513E+01  0.12745074942E+03  0.12508647664E+03 0.  0.
          5    1    3    3  502    0  0.53669197284E+02 -0.16622832881E+01 -0.70602284979E+00  0.53862016218E+02  0.41800000000E+01 0. -1.
         -5    1    3    3    0  502 -0.72066139214E+02 -0.13839122457E+02 -0.35748458015E+01  0.73588733201E+02  0.41800000000E+01 0. -1.
        -11    1    1    2    0    0 -0.26248760745E+02 -0.21640933701E+02  0.20562099807E+02  0.39750816351E+02  0.00000000000E+00 0. -1.
         11    1    1    2    0    0  0.44645702675E+02  0.37142339446E+02  0.17578979139E+02  0.60677942075E+02  0.00000000000E+00 0.  1.
</event>
<event>
 7    1  0.2626349E-009  0.1085026E+03  0.7561462E-02  0.1263368E+00
          1   -1    0    0  501    0  0.00000000000E+00  0.00000000000E+00  0.74136132179E+02  0.74136132179E+02  0.00000000000E+00 0. -1.
         -1   -1    0    0    0  501 -0.00000000000E+00 -0.00000000000E+00 -0.19243024219E+03  0.19243024219E+03  0.00000000000E+00 0.  1.
         25    2    1    2    0    0 -0.26494747872E+02  0.42629054069E+01 -0.11554514065E+03  0.17238949796E+03  0.12508922995E+03 0.  0.
          5    1    3    3  502    0  0.43702837153E+02  0.26944437156E+02 -0.64677252635E+02  0.82683493378E+02  0.41800000000E+01 0. -1.
         -5    1    3    3    0  502 -0.70197585025E+02 -0.22681531749E+02 -0.50867888018E+02  0.89706004577E+02  0.41800000000E+01 0. -1.
        -11    1    1    2    0    0  0.54624140446E+02  0.16020406141E+02 -0.12231491356E+02  0.58224217583E+02  0.00000000000E+00 0. -1.
         11    1    1    2    0    0 -0.28129392573E+02 -0.20283311548E+02  0.94825219938E+01  0.35952658835E+02  0.00000000000E+00 0.  1.
</event>
<event>
 7    1  0.2626349E-009  0.1057893E+03  0.7561462E-02  0.1268572E+00
         -2   -1    0    0    0  501 -0.00000000000E+00  0.00000000000E+00  0.88045326880E+02  0.88045326880E+02  0.00000000000E+00 0.  1.
          2   -1    0    0  501    0  0.00000000000E+00 -0.00000000000E+00 -0.18553996873E+03  0.18553996873E+03  0.00000000000E+00 0. -1.
         25    2    1    2    0    0 -0.23678871278E+01 -0.38051988332E+02 -0.11441906447E+03  0.17376129234E+03  0.12509078182E+03 0.  0.
          5    1    3    3  502    0  0.37252358138E+02 -0.57857134289E+02 -0.24015521487E+02  0.73002766025E+02  0.41800000000E+01 0. -1.
         -5    1    3    3    0  502 -0.39620245266E+02  0.19805145957E+02 -0.90403542979E+02  0.10075852631E+03  0.41800000000E+01 0. -1.
        -11    1    1    2    0    0 -0.43968548292E+02  0.15556793132E+02  0.11458967384E+02  0.48026607052E+02  0.00000000000E+00 0.  1.
         11    1    1    2    0    0  0.46336435420E+02  0.22495195200E+02  0.54654552323E+01  0.51797396222E+02  0.00000000000E+00 0. -1.
</event>
<event>
 7    1  0.2626349E-009  0.1182958E+03  0.7561462E-02  0.1245935E+00
          4   -1    0    0  501    0  0.00000000000E+00  0.00000000000E+00  0.35854689282E+02  0.35854689282E+02  0.00000000000E+00 0. -1.
         -4   -1    0    0    0  501 -0.00000000000E+00 -0.00000000000E+00 -0.47638477840E+03  0.47638477840E+03  0.00000000000E+00 0.  1.
         25    2    1    2    0    0 -0.14634381925E+01  0.70398375975E+02 -0.26035737731E+03  0.29730739531E+03  0.12509056876E+03 0.  0.
          5    1    3    3  502    0  0.17862114180E+02 -0.26983290792E+02 -0.12624555698E+03  0.13039388852E+03  0.41800000000E+01 0.  1.
         -5    1    3    3    0  502 -0.19325552373E+02  0.97381666767E+02 -0.13411182033E+03  0.16691350679E+03  0.41800000000E+01 0.  1.
        -11    1    1    2    0    0 -0.35165575771E+02 -0.15112525665E+02 -0.23785335181E+02  0.45063824971E+02  0.00000000000E+00 0. -1.
         11    1    1    2    0    0  0.36629013964E+02 -0.55285850310E+02 -0.15638737662E+03  0.16986824740E+03  0.00000000000E+00 0.  1.
</event>
<event>
 7    1  0.2626349E-009  0.3026429E+03  0.7561462E-02  0.1083927E+00
          2   -1    0    0  501    0  0.00000000000E+00  0.00000000000E+00  0.63942587781E+03  0.63942587781E+03  0.00000000000E+00 0.  1.
         -2   -1    0    0    0  501 -0.00000000000E+00 -0.00000000000E+00 -0.16851679020E+03  0.16851679020E+03  0.00000000000E+00 0. -1.
         25    2    1    2    0    0  0.85542749766E+02  0.27843846968E+03  0.36839248872E+03  0.48601004857E+03  0.12508876100E+03 0.  0.
          5    1    3    3  502    0  0.84220997649E+02  0.28788551097E+03  0.32885038079E+03  0.44511941006E+03  0.41800000000E+01 0.  1.
         -5    1    3    3    0  502  0.13217521169E+01 -0.94470412869E+01  0.39542107935E+02  0.40890638509E+02  0.41800000000E+01 0.  1.
        -11    1    1    2    0    0 -0.47248810678E+02 -0.22004040911E+03  0.11212597525E+03  0.25144078046E+03  0.00000000000E+00 0.  1.
         11    1    1    2    0    0 -0.38293939088E+02 -0.58398060573E+02 -0.96093763657E+01  0.70491838986E+02  0.00000000000E+00 0. -1.
</event>
<event>
 7    1  0.2626349E-009  0.1429166E+03  0.7561462E-02  0.1209457E+00
         -2   -1    0    0    0  501 -0.00000000000E+00  0.00000000000E+00  0.63930980093E+02  0.63930980093E+02  0.00000000000E+00 0.  1.
          2   -1    0    0  501    0  0.00000000000E+00 -0.00000000000E+00 -0.34862227399E+03  0.34862227399E+03  0.00000000000E+00 0. -1.
         25    2    1    2    0    0 -0.28756307306E+02 -0.97520358482E+02 -0.15635980245E+03  0.22457444779E+03  0.12509256273E+03 0.  0.
          5    1    3    3  502    0 -0.50868468676E+02 -0.11714742202E+03 -0.10599292560E+03  0.16602136088E+03  0.41800000000E+01 0. -1.
         -5    1    3    3    0  502  0.22112161370E+02  0.19627063537E+02 -0.50366876842E+02  0.58553086907E+02  0.41800000000E+01 0. -1.
        -11    1    1    2    0    0  0.54192755917E+02  0.47457229307E+02 -0.37553192853E+02  0.81235987720E+02  0.00000000000E+00 0.  1.
         11    1    1    2    0    0 -0.25436448611E+02  0.50063129174E+02 -0.90778298598E+02  0.10674281857E+03  0.00000000000E+00 0. -1.
</event>
<event>
 7    1  0.2626349E-009  0.1160188E+03  0.7561462E-02  0.1249813E+00
         -2   -1    0    0    0  501 -0.00000000000E+00  0.00000000000E+00  0.92528941607E+03  0.92528941607E+03  0.00000000000E+00 0.  1.
          2   -1    0    0  501    0  0.00000000000E+00 -0.00000000000E+00 -0.17509649662E+02  0.17509649662E+02  0.00000000000E+00 0. -1.
         25    2    1    2    0    0  0.27520272660E+01 -0.63268619571E+02  0.47773575947E+03  0.49788487541E+03  0.12508957356E+03 0.  0.
          5    1    3    3  502    0  0.20739660088E+02 -0.98329239941E+02  0.34322961061E+03  0.35766298512E+03  0.41800000000E+01 0. -1.
         -5    1    3    3    0  502 -0.17987632822E+02  0.35060620370E+02  0.13450614886E+03  0.14022189029E+03  0.41800000000E+01 0. -1.
        -11    1    1    2    0    0  0.23981332423E+02  0.92651844609E+00  0.26677206657E+02  0.35883646641E+02  0.00000000000E+00 0. -1.
         11    1    1    2    0    0 -0.26733359689E+02  0.62342101125E+02  0.40336680028E+03  0.40903054368E+03  0.00000000000E+00 0.  1.
</event>
<event>
 7    1  0.2626349E-009  0.1470779E+03  0.7561462E-02  0.1204110E+00
          1   -1    0    0  501    0  0.00000000000E+00  0.00000000000E+00  0.49978633842E+03  0.49978633842E+03  0.00000000000E+00 0. -1.
         -1   -1    0    0    0  501 -0.00000000000E+00 -0.00000000000E+00 -0.63677256775E+02  0.63677256775E+02  0.00000000000E+00 0.  1.
         25    2    1    2    0    0  0.11169943429E+03 -0.50765830441E+02  0.30633458637E+03  0.35290655606E+03  0.12509286688E+03 0.  0.
          5    1    3    3  502    0  0.10550206658E+03 -0.33568057453E+02  0.11154783267E+03  0.15721924789E+03  0.41800000000E+01 0.  1.
         -5    1    3    3    0  502  0.61973677053E+01 -0.17197772989E+02  0.19478675370E+03  0.19568730817E+03  0.41800000000E+01 0.  1.
        -11    1    1    2    0    0 -0.11462074202E+03  0.86407736352E+00  0.78363557529E+02  0.13885066899E+03  0.00000000000E+00 0.  1.
         11    1    1    2    0    0  0.29213077336E+01  0.49901753078E+02  0.51410937747E+02  0.71706370144E+02  0.00000000000E+00 0. -1.
</event>
<event>
 7    1  0.2626349E-009  0.1936195E+03  0.7561462E-02  0.1155237E+00
         -2   -1    0    0    0  501 -0.00000000000E+00  0.00000000000E+00  0.44810471836E+03  0.44810471836E+03  0.00000000000E+00 0.  1.
          2   -1    0    0  501    0  0.00000000000E+00 -0.00000000000E+00 -0.10060861991E+03  0.10060861991E+03  0.00000000000E+00 0. -1.
         25    2    1    2    0    0 -0.26047572044E+02  0.17606309438E+03  0.23082282707E+03  0.31718185439E+03  0.12509381297E+03 0.  0.
          5    1    3    3  502    0  0.18573026408E+02  0.46039965969E+02  0.15759149713E+01  0.49845678693E+02  0.41800000000E+01 0. -1.
         -5    1    3    3    0  502 -0.44620598451E+02  0.13002312841E+03  0.22924691210E+03  0.26733617570E+03  0.41800000000E+01 0. -1.
        -11    1    1    2    0    0 -0.22887013271E+02 -0.13221867754E+03  0.81693898107E+02  0.15709706253E+03  0.00000000000E+00 0. -1.
         11    1    1    2    0    0  0.48934585315E+02 -0.43844416846E+02  0.34979373265E+02  0.74434421356E+02  0.00000000000E+00 0.  1.
</event>
<event>
 7    1  0.2626349E-009  0.1154598E+03  0.7561462E-02  0.1250781E+00
         -2   -1    0    0    0  501 -0.00000000000E+00  0.00000000000E+00  0.17264243013E+02  0.17264243013E+02  0.00000000000E+00 0.  1.
          2   -1    0    0  501    0  0.00000000000E+00 -0.00000000000E+00 -0.10799605424E+04  0.10799605424E+04  0.00000000000E+00 0. -1.
         25    2    1    2    0    0 -0.29044920101E+02  0.66288621218E+02 -0.73692539075E+03  0.75096206957E+03  0.12508880730E+03 0.  0.
          5    1    3    3  502    0 -0.55531272292E+02  0.72366987856E+01 -0.14500362778E+03  0.15549796295E+03  0.41800000000E+01 0.  1.
         -5    1    3    3    0  502  0.26486352191E+02  0.59051922433E+02 -0.59192176297E+03  0.59546410662E+03  0.41800000000E+01 0.  1.
        -11    1    1    2    0    0  0.43133512525E+01  0.19837786938E+02 -0.23825541757E+02  0.31301744834E+02  0.00000000000E+00 0.  1.
         11    1    1    2    0    0  0.24731568848E+02 -0.86126408157E+02 -0.30194536689E+03  0.31496097102E+03  0.00000000000E+00 0. -1.
</event>
<event>
 7    1  0.2626349E-009  0.9537835E+02  0.7561462E-02  0.1290326E+00
          2   -1    0    0  501    0  0.00000000000E+00  0.00000000000E+00  0.67133567231E+02  0.67133567231E+02  0.00000000000E+00 0. -1.
         -2   -1    0    0    0  501 -0.00000000000E+00 -0.00000000000E+00 -0.17361743718E+03  0.17361743718E+03  0.00000000000E+00 0.  1.
         25    2    1    2    0    0 -0.15882378939E+02  0.99218772069E+01 -0.59722904417E+02  0.13987731850E+03  0.12509254698E+03 0.  0.
          5    1    3    3  502    0 -0.64771461162E+02 -0.17315137320E+02 -0.16856728789E+02  0.69258774657E+02  0.41800000000E+01 0. -1.
         -5    1    3    3    0  502  0.48889082223E+02  0.27237014527E+02 -0.42866175629E+02  0.70618543839E+02  0.41800000000E+01 0. -1.
        -11    1    1    2    0    0 -0.80762267794E+00  0.26963095182E+02  0.11993637369E+02  0.29521315918E+02  0.00000000000E+00 0. -1.
         11    1    1    2    0    0  0.16690001617E+02 -0.36884972389E+02 -0.58754602904E+02  0.71352369999E+02  0.00000000000E+00 0.  1.
</event>
<event>
 7    1  0.2626349E-009  0.7974324E+02  0.7561462E-02  0.1329782E+00
         -1   -1    0    0    0  501 -0.00000000000E+00  0.00000000000E+00  0.61878404453E+02  0.61878404453E+02  0.00000000000E+00 0.  1.
          1   -1    0    0  501    0  0.00000000000E+00 -0.00000000000E+00 -0.24182776994E+03  0.24182776994E+03  0.00000000000E+00 0. -1.
         25    2    1    2    0    0 -0.25068738081E+01  0.51967286182E+02 -0.71966807201E+02  0.15340922414E+03  0.12509310718E+03 0.  0.
          5    1    3    3  502    0  0.74443456226E+01  0.66461579675E+02 -0.99809213580E+02  0.12021610279E+03  0.41800000000E+01 0.  1.
         -5    1    3    3    0  502 -0.99512194308E+01 -0.14494293493E+02  0.27842406379E+02  0.33193121350E+02  0.41800000000E+01 0.  1.
        -11    1    1    2    0    0  0.13827976842E+02 -0.59318364702E+02 -0.11846526048E+03  0.13320622836E+03  0.00000000000E+00 0. -1.
         11    1    1    2    0    0 -0.11321103033E+02  0.73510785197E+01  0.10482702195E+02  0.17090721887E+02  0.00000000000E+00 0.  1.
</event>
<event>
 7    1  0.2626349E-009  0.1235129E+03  0.7561462E-02  0.1237412E+00
         -2   -1    0    0    0  501 -0.00000000000E+00  0.00000000000E+00  0.36617221557E+02  0.36617221557E+02  0.00000000000E+00 0. -1.
          2   -1    0    0  501    0  0.00000000000E+00 -0.00000000000E+00 -0.89610848382E+03  0.89610848382E+03  0.00000000000E+00 0.  1.
         25    2    1    2    0    0  0.19660156566E+02 -0.11397668636E+03 -0.23020619983E+03  0.28638919377E+03  0.12508664627E+03 0.  0.
          5    1    3    3  502    0 -0.32818198811E+01 -0.92239902530E+02 -0.23648899796E+03  0.25389660989E+03  0.41800000000E+01 0. -1.
         -5    1    3    3    0  502  0.22941976447E+02 -0.21736783833E+02  0.62827981215E+01  0.32492583876E+02  0.41800000000E+01 0. -1.
        -11    1    1    2    0    0  0.12027197491E+02  0.17726391194E+02 -0.22190115469E+02  0.30842821674E+02  0.00000000000E+00 0. -1.
         11    1    1    2    0    0 -0.31687354058E+02  0.96250295168E+02 -0.60709494696E+03  0.61549368994E+03  0.00000000000E+00 0.  1.
</event>
<event>
 7    1  0.2626349E-009  0.1715835E+03  0.7561462E-02  0.1176207E+00
         -2   -1    0    0    0  501 -0.00000000000E+00  0.00000000000E+00  0.16963967628E+03  0.16963967628E+03  0.00000000000E+00 0.  1.
          2   -1    0    0  501    0  0.00000000000E+00 -0.00000000000E+00 -0.35989455143E+03  0.35989455143E+03  0.00000000000E+00 0. -1.
         25    2    1    2    0    0  0.45120268055E+02 -0.13700012092E+03  0.81986704045E+02  0.20777783984E+03  0.12507973203E+03 0.  0.
          5    1    3    3  502    0 -0.20723246797E+02 -0.94782364414E+02  0.39201681449E+01  0.97190481427E+02  0.41800000000E+01 0. -1.
         -5    1    3    3    0  502  0.65843514852E+02 -0.42217756502E+02  0.78066535900E+02  0.11058735841E+03  0.41800000000E+01 0. -1.
        -11    1    1    2    0    0 -0.27034476769E+02  0.14532512381E+03 -0.21306419456E+03  0.25931950476E+03  0.00000000000E+00 0.  1.
         11    1    1    2    0    0 -0.18085791286E+02 -0.83250028970E+01 -0.59177384641E+02  0.62436883111E+02  0.00000000000E+00 0. -1.
</event>
<event>
 7    1  0.2626349E-009  0.1183802E+03  0.7561462E-02  0.1245793E+00
         -2   -1    0    0    0  501 -0.00000000000E+00  0.00000000000E+00  0.19571355072E+03  0.19571355072E+03  0.00000000000E+00 0.  1.
          2   -1    0    0  501    0  0.00000000000E+00 -0.00000000000E+00 -0.10229301926E+03  0.10229301926E+03  0.00000000000E+00 0. -1.
         25    2    1    2    0    0  0.28224234825E+02  0.82385585254E+02  0.82449396483E+02  0.17329204420E+03  0.12509291553E+03 0.  0.
          5    1    3    3  502    0  0.36583197586E+02 -0.13802622289E+02 -0.88913867898E+01  0.40315901164E+02  0.41800000000E+01 0.  1.
         -5    1    3    3    0  502 -0.83589627603E+01  0.96188207542E+02  0.91340783273E+02  0.13297614304E+03  0.41800000000E+01 0.  1.
        -11    1    1    2    0    0  0.47957152771E+01 -0.61583406470E+02  0.42135063837E+02  0.74772176924E+02  0.00000000000E+00 0.  1.
         11    1    1    2    0    0 -0.33019950102E+02 -0.20802178784E+02 -0.31163928865E+02  0.49942348856E+02  0.00000000000E+00 0. -1.
</event>
<event>
 7    1  0.2626349E-009  0.2244463E+03  0.7561462E-02  0.1130611E+00
          1   -1    0    0  501    0  0.00000000000E+00  0.00000000000E+00  0.10018735627E+04  0.10018735627E+04  0.00000000000E+00 0. -1.
         -1   -1    0    0    0  501 -0.00000000000E+00 -0.00000000000E+00 -0.57013722437E+02  0.57013722437E+02  0.00000000000E+00 0.  1.
         25    2    1    2    0    0 -0.17616891631E+03  0.10272712457E+03  0.62204805388E+03  0.66647000995E+03  0.12510053414E+03 0.  0.
          5    1    3    3  502    0 -0.52518080083E+02  0.87011532327E+02  0.17564092564E+03  0.20296887114E+03  0.41800000000E+01 0.  1.
         -5    1    3    3    0  502 -0.12365083623E+03  0.15715592246E+02  0.44640712824E+03  0.46350113881E+03  0.41800000000E+01 0.  1.
        -11    1    1    2    0    0  0.12479958588E+03 -0.11493195192E+03  0.25857887819E+03  0.30926901955E+03  0.00000000000E+00 0.  1.
         11    1    1    2    0    0  0.51369330425E+02  0.12204827344E+02  0.64232908191E+02  0.83148255625E+02  0.00000000000E+00 0. -1.
</event>
<event>
 7    1  0.2626349E-009  0.1127715E+03  0.7561462E-02  0.1255522E+00
          2   -1    0    0  501    0  0.00000000000E+00  0.00000000000E+00  0.96808469320E+02  0.96808469320E+02  0.00000000000E+00 0. -1.
         -2   -1    0    0    0  501 -0.00000000000E+00 -0.00000000000E+00 -0.24498427039E+03  0.24498427039E+03  0.00000000000E+00 0.  1.
         25    2    1    2    0    0 -0.16557726121E+02 -0.97945405206E+02 -0.12688802310E+03  0.20399938043E+03  0.12509083146E+03 0.  0.
          5    1    3    3  502    0  0.24252777617E+02 -0.49266732730E+02  0.72258490745E+01  0.55543617733E+02  0.41800000000E+01 0.  1.
         -5    1    3    3    0  502 -0.40810503739E+02 -0.48678672476E+02 -0.13411387217E+03  0.14845576270E+03  0.41800000000E+01 0.  1.
        -11    1    1    2    0    0  0.27009066505E+02  0.89150361852E+02 -0.50199588644E+02  0.10581717910E+03  0.00000000000E+00 0.  1.
         11    1    1    2    0    0 -0.10451340383E+02  0.87950433534E+01  0.28911810667E+02  0.31976180188E+02  0.00000000000E+00 0. -1.
</event>
<event>
 7    1  0.2626349E-009  0.1268816E+03  0.7561462E-02  0.1232158E+00
         -1   -1    0    0    0  501 -0.00000000000E+00  0.00000000000E+00  0.18842892781E+02  0.18842892781E+02  0.00000000000E+00 0.  1.
          1   -1    0    0  501    0  0.00000000000E+00 -0.00000000000E+00 -0.10236204150E+04  0.10236204150E+04  0.00000000000E+00 0. -1.
         25    2    1    2    0    0  0.51084347850E+01 -0.73267942667E+02 -0.71838826237E+03  0.73288654566E+03  0.12508679293E+03 0.  0.
          5    1    3    3  502    0 -0.26169146889E+02 -0.10000384681E+03 -0.49364419977E+03  0.50436857752E+03  0.41800000000E+01 0. -1.
         -5    1    3    3    0  502  0.31277581674E+02  0.26735904148E+02 -0.22474406261E+03  0.22851796814E+03  0.41800000000E+01 0. -1.
        -11    1    1    2    0    0 -0.42475029894E+02  0.31336042628E+02 -0.81267356676E+02  0.96904380671E+02  0.00000000000E+00 0.  1.
         11    1    1    2    0    0  0.37366595109E+02  0.41931900038E+02 -0.20512190313E+03  0.21267238141E+03  0.00000000000E+00 0. -1.
</event>
<event>
 7    1  0.2626349E-009  0.1160115E+03  0.7561462E-02  0.1249826E+00
         -3   -1    0    0    0  501 -0.00000000000E+00  0.00000000000E+00  0.10269369183E+03  0.10269369183E+03  0.00000000000E+00 0.  1.
          3   -1    0    0  501    0  0.00000000000E+00 -0.00000000000E+00 -0.26904646573E+03  0.26904646573E+03  0.00000000000E+00 0. -1.
         25    2    1    2    0    0 -0.11765544285E+02 -0.69709055159E+02 -0.20211719991E+03  0.24798606183E+03  0.12509174216E+03 0.  0.
          5    1    3    3  502    0 -0.21921955562E+02 -0.90703809308E+02 -0.78192637734E+02  0.12181672362E+03  0.41800000000E+01 0. -1.
         -5    1    3    3    0  502  0.10156411277E+02  0.20994754148E+02 -0.12392456218E+03  0.12616933820E+03  0.41800000000E+01 0. -1.
        -11    1    1    2    0    0 -0.37722253618E+02  0.47555410104E+02  0.33849398393E+02  0.69500123883E+02  0.00000000000E+00 0.  1.
         11    1    1    2    0    0  0.49487797903E+02  0.22153645056E+02  0.19150276159E+01  0.54253971848E+02  0.00000000000E+00 0. -1.
</event>
<event>
 7    1  0.2626349E-009  0.1024024E+03  0.7561462E-02  0.1275324E+00
          2   -1    0    0  501    0  0.00000000000E+00  0.00000000000E+00  0.13573232126E+04  0.13573232126E+04  0.00000000000E+00 0. -1.
         -2   -1    0    0    0  501 -0.00000000000E+00 -0.00000000000E+00 -0.97518600980E+01  0.97518600980E+01  0.00000000000E+00 0.  1.
         25    2    1    2    0    0  0.21885513406E+02 -0.10027346302E+02  0.94636560627E+03  0.95490076629E+03  0.12509232334E+03 0.  0.
          5    1    3    3  502    0 -0.81210245972E+01  0.47224848562E+02  0.19888239765E+03  0.20461626978E+03  0.41800000000E+01 0.  1.
         -5    1    3    3    0  502  0.30006538003E+02 -0.57252194864E+02  0.74748320861E+03  0.75028449651E+03  0.41800000000E+01 0.  1.
        -11    1    1    2    0    0 -0.61363757882E+01  0.49267488117E+02  0.16865351693E+03  0.17580941177E+03  0.00000000000E+00 0. -1.
         11    1    1    2    0    0 -0.15749137618E+02 -0.39240141815E+02  0.23255222935E+03  0.23636489469E+03  0.00000000000E+00 0.  1.
</event>
<event>
 7    1  0.2626349E-009  0.2100047E+03  0.7561462E-02  0.1141562E+00
          2   -1    0    0  501    0  0.00000000000E+00  0.00000000000E+00  0.45632450278E+03  0.45632450278E+03  0.00000000000E+00 0. -1.
         -2   -1    0    0    0  501 -0.00000000000E+00 -0.00000000000E+00 -0.11930256239E+03  0.11930256239E+03  0.00000000000E+00 0.  1.
         25    2    1    2    0    0  0.63930078443E+02  0.18870026209E+03  0.23948499177E+03  0.33570144063E+03  0.12509017594E+03 0.  0.
          5    1    3    3  502    0  0.15297796415E+02  0.81496457796E+02  0.19110315913E+03  0.20835926914E+03  0.41800000000E+01 0.  1.
         -5    1    3    3    0  502  0.48632282028E+02  0.10720380429E+03  0.48381832642E+02  0.12734217149E+03  0.41800000000E+01 0.  1.
        -11    1    1    2    0    0  0.17989097707E+02 -0.59955069474E+01  0.92003201086E+01  0.21076043983E+02  0.00000000000E+00 0. -1.
         11    1    1    2    0    0 -0.81919176150E+02 -0.18270475514E+03  0.88336628515E+02  0.21884958055E+03  0.00000000000E+00 0.  1.
</event>
<event>
 7    1  0.2626349E-009  0.7330300E+02  0.7561462E-02  0.1349208E+00
          3   -1    0    0  501    0  0.00000000000E+00  0.00000000000E+00  0.21390706052E+03  0.21390706052E+03  0.00000000000E+00 0. -1.
         -3   -1    0    0    0  501 -0.00000000000E+00 -0.00000000000E+00 -0.10364080698E+03  0.10364080698E+03  0.00000000000E+00 0.  1.
         25    2    1    2    0    0 -0.26698638338E+02  0.33524416747E+02 -0.39270616803E+02  0.13793860123E+03  0.12509265589E+03 0.  0.
          5    1    3    3  502    0  0.34608412362E+01 -0.83359691474E+01 -0.74605426602E+02  0.75265582321E+02  0.41800000000E+01 0.  1.
         -5    1    3    3    0  502 -0.30159479574E+02  0.41860385894E+02  0.35334809799E+02  0.62673018907E+02  0.41800000000E+01 0.  1.
        -11    1    1    2    0    0 -0.25398924819E+02 -0.65492166903E+01  0.97024985498E+01  0.27966696253E+02  0.00000000000E+00 0.  1.
         11    1    1    2    0    0  0.52097563157E+02 -0.26975200057E+02  0.13983437180E+03  0.15164257002E+03  0.00000000000E+00 0. -1.
</event>
<event>
 7    1  0.2626349E-009  0.1262284E+03  0.7561462E-02  0.1233162E+00
          2   -1    0    0  501    0  0.00000000000E+00  0.00000000000E+00  0.40018917915E+02  0.40018917915E+02  0.00000000000E+00 0. -1.
         -2   -1    0    0    0  501 -0.00000000000E+00 -0.00000000000E+00 -0.46905797688E+03  0.46905797688E+03  0.00000000000E+00 0.  1.
         25    2    1    2    0    0 -0.50198199889E+01  0.82509858676E+02 -0.25609791708E+03  0.29675940108E+03  0.12508766377E+03 0.  0.
          5    1    3    3  502    0  0.48615846083E+01 -0.27432349425E+02 -0.11029638521E+03  0.11383731282E+03  0.41800000000E+01 0. -1.
         -5    1    3    3    0  502 -0.98814045972E+01  0.10994220810E+03 -0.14580153187E+03  0.18292208826E+03  0.41800000000E+01 0. -1.
        -11    1    1    2    0    0  0.30990957333E+02 -0.82199609449E+02 -0.91539998816E+02  0.12687311225E+03  0.00000000000E+00 0.  1.
         11    1    1    2    0    0 -0.25971137344E+02 -0.31024922755E+00 -0.81401143074E+02  0.85444381461E+02  0.00000000000E+00 0. -1.
</event>
<event>
 7    1  0.2626349E-009  0.1208207E+03  0.7561462E-02  0.1241749E+00
          1   -1    0    0  501    0  0.00000000000E+00  0.00000000000E+00  0.16999225597E+04  0.16999225597E+04  0.00000000000E+00 0. -1.
         -1   -1    0    0    0  501 -0.00000000000E+00 -0.00000000000E+00 -0.39898346494E+02  0.39898346494E+02  0.00000000000E+00 0.  1.
         25    2    1    2    0    0 -0.59237537606E+02 -0.21770166616E+02  0.16168876290E+04  0.16229474520E+04  0.12509916595E+03 0.  0.
          5    1    3    3  502    0  0.16378533720E+02  0.34810999246E+02  0.73254774011E+03  0.73356916919E+03  0.41800000000E+01 0.  1.
         -5    1    3    3    0  502 -0.75616071326E+02 -0.56581165862E+02  0.88433988885E+03  0.88937828283E+03  0.41800000000E+01 0.  1.
        -11    1    1    2    0    0  0.82358108995E+02  0.11677231574E+02  0.29965645230E+02  0.88414680617E+02  0.00000000000E+00 0. -1.
         11    1    1    2    0    0 -0.23120571389E+02  0.10092935042E+02  0.13170939061E+02  0.28458773601E+02  0.00000000000E+00 0.  1.
</event>
<event>
 7    1  0.2626349E-009  0.9933270E+02  0.7561462E-02  0.1281705E+00
          2   -1    0    0  501    0  0.00000000000E+00  0.00000000000E+00  0.41070766228E+03  0.41070766228E+03  0.00000000000E+00 0.  1.
         -2   -1    0    0    0  501 -0.00000000000E+00 -0.00000000000E+00 -0.38235589420E+02  0.38235589420E+02  0.00000000000E+00 0. -1.
         25    2    1    2    0    0  0.43651122777E+02 -0.29672257429E+02  0.14789514442E+03  0.20076675180E+03  0.12509377086E+03 0.  0.
          5    1    3    3  502    0  0.63188201909E+02  0.69057088265E+01  0.20799086668E+02  0.67011283237E+02  0.41800000000E+01 0. -1.
         -5    1    3    3    0  502 -0.19537079132E+02 -0.36577966256E+02  0.12709605775E+03  0.13375546857E+03  0.41800000000E+01 0. -1.
        -11    1    1    2    0    0 -0.36974142301E+02 -0.20766070572E+02  0.46316987177E+02  0.62797931392E+02  0.00000000000E+00 0. -1.
         11    1    1    2    0    0 -0.66769804754E+01  0.50438328001E+02  0.17825994127E+03  0.18537856850E+03  0.00000000000E+00 0.  1.
</event>
<event>
 7    1  0.2626349E-009  0.1242368E+03  0.7561462E-02  0.1236267E+00
          1   -1    0    0  501    0  0.00000000000E+00  0.00000000000E+00  0.12379180172E+03  0.12379180172E+03  0.00000000000E+00 0. -1.
         -1   -1    0    0    0  501 -0.00000000000E+00 -0.00000000000E+00 -0.17665472644E+03  0.17665472644E+03  0.00000000000E+00 0.  1.
         25    2    1    2    0    0  0.80864700588E+02 -0.46571429019E+02 -0.66430316125E+02  0.16961101550E+03  0.12508761680E+03 0.  0.
          5    1    3    3  502    0  0.81874886464E+02  0.76202330179E+01  0.18219485165E+01  0.82355065911E+02  0.41800000000E+01 0.  1.
         -5    1    3    3    0  502 -0.10101858763E+01 -0.54191662037E+02 -0.68252264641E+02  0.87255949588E+02  0.41800000000E+01 0.  1.
        -11    1    1    2    0    0 -0.71282300694E+02  0.76484710374E+01 -0.24294690881E+02  0.75696086467E+02  0.00000000000E+00 0.  1.
         11    1    1    2    0    0 -0.95823998941E+01  0.38922957982E+02  0.37862082286E+02  0.55139426192E+02  0.00000000000E+00 0. -1.
</event>
<event>
 7    1  0.2626349E-009  0.1001622E+03  0.7561462E-02  0.1279955E+00
          1   -1    0    0  501    0  0.00000000000E+00  0.00000000000E+00  0.83214150818E+03  0.83214150818E+03  0.00000000000E+00 0. -1.
         -1   -1    0    0    0  501 -0.00000000000E+00 -0.00000000000E+00 -0.22369657845E+02  0.22369657845E+02  0.00000000000E+00 0.  1.
         25    2    1    2    0    0  0.23919911223E+02 -0.28041680128E+02  0.67447805589E+03  0.68696866527E+03  0.12508717446E+03 0.  0.
          5    1    3    3  502    0  0.11760947455E+02 -0.74072771514E+02  0.51605836573E+03  0.52149669664E+03  0.41800000000E+01 0.  1.
         -5    1    3    3    0  502  0.12158963769E+02  0.46031091386E+02  0.15841969016E+03  0.16547196864E+03  0.41800000000E+01 0.  1.
        -11    1    1    2    0    0  0.23557636189E+02  0.15859748004E+02  0.10751557955E+03  0.11120293915E+03  0.00000000000E+00 0.  1.
         11    1    1    2    0    0 -0.47477547412E+02  0.12181932124E+02  0.27778214894E+02  0.56339561599E+02  0.00000000000E+00 0. -1.
</event>
<event>
 7    1  0.2626349E-009  0.9269661E+02  0.7561462E-02  0.1296450E+00
          3   -1    0    0  501    0  0.00000000000E+00  0.00000000000E+00  0.37093847022E+02  0.37093847022E+02  0.00000000000E+00 0. -1.
         -3   -1    0    0    0  501 -0.00000000000E+00 -0.00000000000E+00 -0.37255000677E+03  0.37255000677E+03  0.00000000000E+00 0.  1.
         25    2    1    2    0    0  0.15813161188E+02  0.19115459644E+02 -0.18448784435E+03  0.22427961821E+03  0.12510046190E+03 0.  0.
          5    1    3    3  502    0 -0.32113586299E+02 -0.31752930875E+02 -0.29209087506E+02  0.53946030781E+02  0.41800000000E+01 0. -1.
         -5    1    3    3    0  502  0.47926747487E+02  0.50868390519E+02 -0.15527875684E+03  0.17033358743E+03  0.41800000000E+01 0. -1.
        -11    1    1    2    0    0 -0.37488896415E+02 -0.27801942139E+02 -0.17464331794E+02  0.49833404721E+02  0.00000000000E+00 0. -1.
         11    1    1    2    0    0  0.21675735227E+02  0.86864824947E+01 -0.13350398361E+03  0.13553083086E+03  0.00000000000E+00 0.  1.
</event>
<event>
 7    1  0.2626349E-009  0.8487443E+02  0.7561462E-02  0.1315761E+00
          1   -1    0    0  501    0  0.00000000000E+00  0.00000000000E+00  0.66570678841E+02  0.66570678841E+02  0.00000000000E+00 0. -1.
         -1   -1    0    0    0  501 -0.00000000000E+00 -0.00000000000E+00 -0.22363259214E+03  0.22363259214E+03  0.00000000000E+00 0.  1.
         25    2    1    2    0    0  0.43678902397E+02 -0.20684575737E+02 -0.52833883663E+02  0.14413962309E+03  0.12509641679E+03 0.  0.
          5    1    3    3  502    0  0.14459480815E+02 -0.35346266960E+02 -0.87953296639E+02  0.95977549266E+02  0.41800000000E+01 0.  1.
         -5    1    3    3    0  502  0.29219421582E+02  0.14661691223E+02  0.35119412976E+02  0.48162073823E+02  0.41800000000E+01 0.  1.
        -11    1    1    2    0    0 -0.36249180036E+02 -0.30057862299E+02 -0.70151453476E+02  0.84490854914E+02  0.00000000000E+00 0.  1.
         11    1    1    2    0    0 -0.74297223609E+01  0.50742438036E+02 -0.34076576159E+02  0.61572792977E+02  0.00000000000E+00 0. -1.
</event>
<event>
 7    1  0.2626349E-009  0.1361971E+03  0.7561462E-02  0.1218540E+00
         -2   -1    0    0    0  501 -0.00000000000E+00  0.00000000000E+00  0.39299090407E+02  0.39299090407E+02  0.00000000000E+00 0.  1.
          2   -1    0    0  501    0  0.00000000000E+00 -0.00000000000E+00 -0.82893160567E+03  0.82893160567E+03  0.00000000000E+00 0. -1.
         25    2    1    2    0    0  0.82397481258E+02 -0.75081229671E+02 -0.63362645286E+03  0.65540558805E+03  0.12508983621E+03 0.  0.
          5    1    3    3  502    0  0.34887611796E+02  0.47061641309E+01 -0.35753392643E+02  0.50349487814E+02  0.41800000000E+01 0. -1.
         -5    1    3    3    0  502  0.47509869462E+02 -0.79787393802E+02 -0.59787306022E+03  0.60505610024E+03  0.41800000000E+01 0. -1.
        -11    1    1    2    0    0 -0.32234990361E+02 -0.18965047410E+02 -0.31256739814E+02  0.48741680424E+02  0.00000000000E+00 0.  1.
         11    1    1    2    0    0 -0.50162490897E+02  0.94046277081E+02 -0.12474932259E+03  0.16408342760E+03  0.00000000000E+00 0. -1.
</event>
<event>
 7    1  0.2626349E-009  0.9611691E+02  0.7561462E-02  0.1288680E+00
          2   -1    0    0  501    0  0.00000000000E+00  0.00000000000E+00  0.14340438316E+03  0.14340438316E+03  0.00000000000E+00 0. -1.
         -2   -1    0    0    0  501 -0.00000000000E+00 -0.00000000000E+00 -0.15732433413E+03  0.15732433413E+03  0.00000000000E+00 0.  1.
         25    2    1    2    0    0  0.86826771503E+02  0.55875965647E+01 -0.65605883028E+02  0.16589526101E+03  0.12508795406E+03 0.  0.
          5    1    3    3  502    0  0.10653853963E+02 -0.15470163006E+02 -0.82717184353E+02  0.84926059222E+02  0.41800000000E+01 0.  1.
         -5    1    3    3    0  502  0.76172917540E+02  0.21057759571E+02  0.17111301325E+02  0.80969201785E+02  0.41800000000E+01 0.  1.
        -11    1    1    2    0    0 -0.32217591929E+02 -0.19286120000E+02  0.66719396395E+02  0.76559816547E+02  0.00000000000E+00 0. -1.
         11    1    1    2    0    0 -0.54609179574E+02  0.13698523435E+02 -0.15033464344E+02  0.58273639737E+02  0.00000000000E+00 0.  1.
</event>
<event>
 7    1  0.2626349E-009  0.1059644E+03  0.7561462E-02  0.1268231E+00
          1   -1    0    0  501    0  0.00000000000E+00  0.00000000000E+00  0.70390660918E+02  0.70390660918E+02  0.00000000000E+00 0. -1.
         -1   -1    0    0    0  501 -0.00000000000E+00 -0.00000000000E+00 -0.30839329136E+03  0.30839329136E+03  0.00000000000E+00 0.  1.
         25    2    1    2    0    0 -0.91934310284E+02 -0.16773836866E+02 -0.86514570992E+02  0.17851384124E+03  0.12509652877E+03 0.  0.
          5    1    3    3  502    0  0.83123512813E+01  0.98264897113E+01  0.23589311418E+02  0.27195277109E+02  0.41800000000E+01 0.  1.
         -5    1    3    3    0  502 -0.10024666157E+03 -0.26600326578E+02 -0.11010388241E+03  0.15131856413E+03  0.41800000000E+01 0.  1.
        -11    1    1    2    0    0  0.36790916247E+02 -0.55204555252E+00 -0.13534432959E+03  0.14025677818E+03  0.00000000000E+00 0.  1.
         11    1    1    2    0    0  0.55143394037E+02  0.17325882419E+02 -0.16143729865E+02  0.60013332864E+02  0.00000000000E+00 0. -1.
</event>
<event>
 7    1  0.2626349E-009  0.8247723E+02  0.7561462E-02  0.1322165E+00
          2   -1    0    0  501    0  0.00000000000E+00  0.00000000000E+00  0.22395997617E+03  0.22395997617E+03  0.00000000000E+00 0. -1.
         -2   -1    0    0    0  501 -0.00000000000E+00 -0.00000000000E+00 -0.10943592150E+03  0.10943592150E+03  0.00000000000E+00 0.  1.
         25    2    1    2    0    0  0.20397737488E+02 -0.13664224570E+02  0.17929856886E+03  0.21999504912E+03  0.12508823332E+03 0.  0.
          5    1    3    3  502    0  0.95421644805E+01  0.28448742860E+02  0.17326100938E+03  0.17588983383E+03  0.41800000000E+01 0. -1.
         -5    1    3    3    0  502  0.10855573008E+02 -0.42112967431E+02  0.60375594752E+01  0.44105215287E+02  0.41800000000E+01 0. -1.
        -11    1    1    2    0    0 -0.53621942783E+02  0.19840664385E+02 -0.28712221633E+02  0.63979343402E+02  0.00000000000E+00 0. -1.
         11    1    1    2    0    0  0.33224205295E+02 -0.61764398149E+01 -0.36062292556E+02  0.49421505143E+02  0.00000000000E+00 0.  1.
</event>
<event>
 7    1  0.2626349E-009  0.3361716E+03  0.7561462E-02  0.1068438E+00
          2   -1    0    0  501    0  0.00000000000E+00  0.00000000000E+00  0.47136840608E+03  0.47136840608E+03  0.00000000000E+00 0. -1.
         -2   -1    0    0    0  501 -0.00000000000E+00 -0.00000000000E+00 -0.32419540641E+03  0.32419540641E+03  0.00000000000E+00 0.  1.
         25    2    1    2    0    0 -0.29874758632E+03  0.13849441180E+03 -0.10886995650E+03  0.36868919092E+03  0.12509288406E+03 0.  0.
          5    1    3    3  502    0 -0.96771722782E+02  0.83201556260E+02  0.96105803895E+01  0.12805116536E+03  0.41800000000E+01 0. -1.
         -5    1    3    3    0  502 -0.20197586353E+03  0.55292855540E+02 -0.11848053689E+03  0.24063802556E+03  0.41800000000E+01 0. -1.
        -11    1    1    2    0    0  0.78696421968E+02 -0.73539001065E+01  0.97913681505E+02  0.12583439793E+03  0.00000000000E+00 0. -1.
         11    1    1    2    0    0  0.22005116435E+03 -0.13114051169E+03  0.15812927467E+03  0.30104022364E+03  0.00000000000E+00 0.  1.
</event>
<event>
 7    1  0.2626349E-009  0.1586738E+03  0.7561462E-02  0.1190202E+00
         -2   -1    0    0    0  501 -0.00000000000E+00  0.00000000000E+00  0.82527585795E+02  0.82527585795E+02  0.00000000000E+00 0.  1.
          2   -1    0    0  501    0  0.00000000000E+00 -0.00000000000E+00 -0.39220291000E+03  0.39220291000E+03  0.00000000000E+00 0. -1.
         25    2    1    2    0    0 -0.71989237881E+02 -0.12275759958E+03 -0.14907299687E+03  0.24108525578E+03  0.12508982187E+03 0.  0.
          5    1    3    3  502    0 -0.15591255314E+02 -0.91369221158E+02 -0.17424406495E+02  0.94406059970E+02  0.41800000000E+01 0. -1.
         -5    1    3    3    0  502 -0.56397982566E+02 -0.31388378419E+02 -0.13164859037E+03  0.14667919581E+03  0.41800000000E+01 0. -1.
        -11    1    1    2    0    0  0.57562077876E+01  0.81816493538E+02 -0.43014733233E+02  0.92613928856E+02  0.00000000000E+00 0. -1.
         11    1    1    2    0    0  0.66233030093E+02  0.40941106039E+02 -0.11758759411E+03  0.14103131116E+03  0.00000000000E+00 0.  1.
</event>
<event>
 7    1  0.2626349E-009  0.1232731E+03  0.7561462E-02  0.1237793E+00
         -2   -1    0    0    0  501 -0.00000000000E+00  0.00000000000E+00  0.22837688644E+02  0.22837688644E+02  0.00000000000E+00 0.  1.
          2   -1    0    0  501    0  0.00000000000E+00 -0.00000000000E+00 -0.78238220711E+03  0.78238220711E+03  0.00000000000E+00 0. -1.
         25    2    1    2    0    0 -0.22212872406E+02 -0.73766068690E+02 -0.45647351471E+03  0.47953159222E+03  0.12509050208E+03 0.  0.
          5    1    3    3  502    0 -0.64390775856E+02 -0.80571895456E+02 -0.34359801498E+03  0.35876882620E+03  0.41800000000E+01 0. -1.
         -5    1    3    3    0  502  0.42177903449E+02  0.68058267664E+01 -0.11287549973E+03  0.12076276602E+03  0.41800000000E+01 0. -1.
        -11    1    1    2    0    0  0.45043902412E+02  0.45033224400E+02 -0.94810421009E+02  0.11421891427E+03  0.00000000000E+00 0.  1.
         11    1    1    2    0    0 -0.22831030006E+02  0.28732844289E+02 -0.20826058275E+03  0.21146938928E+03  0.00000000000E+00 0. -1.
</event>
<event>
 7    1  0.2626349E-009  0.1144041E+03  0.7561462E-02  0.1252625E+00
          1   -1    0    0  501    0  0.00000000000E+00  0.00000000000E+00  0.51540953134E+02  0.51540953134E+02  0.00000000000E+00 0. -1.
         -1   -1    0    0    0  501 -0.00000000000E+00 -0.00000000000E+00 -0.48046138905E+03  0.48046138905E+03  0.00000000000E+00 0.  1.
         25    2    1    2    0    0 -0.10239320460E+03  0.39792803259E+02 -0.27560555387E+03  0.32198214542E+03  0.12508495155E+03 0.  0.
          5    1    3    3  502    0 -0.44056991014E+02  0.36003310553E+02 -0.21118548434E+02  0.60833562414E+02  0.41800000000E+01 0. -1.
         -5    1    3    3    0  502 -0.58336213591E+02  0.37894927060E+01 -0.25448700543E+03  0.26114858300E+03  0.41800000000E+01 0. -1.
        -11    1    1    2    0    0  0.53222062160E+02 -0.61624608643E+01 -0.13869046573E+03  0.14867955175E+03  0.00000000000E+00 0.  1.
         11    1    1    2    0    0  0.49171142444E+02 -0.33630342395E+02 -0.14624416327E+02  0.61340645023E+02  0.00000000000E+00 0. -1.
</event>
<event>
 7    1  0.2626349E-009  0.2750105E+03  0.7561462E-02  0.1098446E+00
          2   -1    0    0  501    0  0.00000000000E+00  0.00000000000E+00  0.20918594788E+03  0.20918594788E+03  0.00000000000E+00 0. -1.
         -2   -1    0    0    0  501 -0.00000000000E+00 -0.00000000000E+00 -0.44362567727E+03  0.44362567727E+03  0.00000000000E+00 0.  1.
         25    2    1    2    0    0  0.45548856552E+02 -0.26754999233E+03 -0.21017089464E+03  0.36534586767E+03  0.12509237124E+03 0.  0.
          5    1    3    3  502    0 -0.13774026578E+02 -0.33205663283E+02  0.10839574419E+02  0.37779738695E+02  0.41800000000E+01 0.  1.
         -5    1    3    3    0  502  0.59322883130E+02 -0.23434432904E+03 -0.22101046906E+03  0.32756612897E+03  0.41800000000E+01 0.  1.
        -11    1    1    2    0    0 -0.33447730464E+02  0.14024934984E+03 -0.57690293073E+02  0.15529584901E+03  0.00000000000E+00 0.  1.
         11    1    1    2    0    0 -0.12101126088E+02  0.12730064249E+03  0.33421458317E+02  0.13216990847E+03  0.00000000000E+00 0. -1.
</event>
<event>
 7    1  0.2626349E-009  0.9331946E+02  0.7561462E-02  0.1295007E+00
          2   -1    0    0  501    0  0.00000000000E+00  0.00000000000E+00  0.64766312550E+03  0.64766312550E+03  0.00000000000E+00 0. -1.
         -2   -1    0    0    0  501 -0.00000000000E+00 -0.00000000000E+00 -0.23784877138E+02  0.23784877138E+02  0.00000000000E+00 0.  1.
         25    2    1    2    0    0  0.11494157231E+02  0.11695973151E+02  0.50847992547E+03  0.52389626866E+03  0.12508618737E+03 0.  0.
          5    1    3    3  502    0  0.66655386627E+02 -0.30291427942E+01  0.32025068968E+03  0.32715453980E+03  0.41800000000E+01 0. -1.
         -5    1    3    3    0  502 -0.55161229396E+02  0.14725115945E+02  0.18822923579E+03  0.19674172886E+03  0.41800000000E+01 0. -1.
        -11    1    1    2    0    0 -0.31148861219E+02 -0.24024188221E+02  0.11341141644E+02  0.40939402398E+02  0.00000000000E+00 0.  1.
         11    1    1    2    0    0  0.19654703988E+02  0.12328215071E+02  0.10405718125E+03  0.10661233158E+03  0.00000000000E+00 0. -1.
</event>
<event>
 7    1  0.2626349E-009  0.6333080E+02  0.7561462E-02  0.1384363E+00
         -2   -1    0    0    0  501 -0.00000000000E+00  0.00000000000E+00  0.89595507989E+03  0.89595507989E+03  0.00000000000E+00 0.  1.
          2   -1    0    0  501    0  0.00000000000E+00 -0.00000000000E+00 -0.35367699665E+02  0.35367699665E+02  0.00000000000E+00 0. -1.
         25    2    1    2    0    0 -0.45169750796E+01 -0.25548134427E+02  0.81686837027E+03  0.82679760403E+03  0.12508890218E+03 0.  0.
          5    1    3    3  502    0 -0.37351337586E+02 -0.11528199029E+02  0.80841701432E+02  0.89893686557E+02  0.41800000000E+01 0. -1.
         -5    1    3    3    0  502  0.32834362506E+02 -0.14019935398E+02  0.73602666884E+03  0.73690391747E+03  0.41800000000E+01 0. -1.
        -11    1    1    2    0    0  0.24501921697E+02  0.12211469026E+02  0.66190089850E+02  0.71628151847E+02  0.00000000000E+00 0.  1.
         11    1    1    2    0    0 -0.19984946617E+02  0.13336665401E+02 -0.22471079893E+02  0.32897023678E+02  0.00000000000E+00 0. -1.
</event>
<event>
 7    1  0.2626349E-009  0.2249954E+03  0.7561462E-02  0.1130213E+00
         -2   -1    0    0    0  501 -0.00000000000E+00  0.00000000000E+00  0.32223293578E+03  0.32223293578E+03  0.00000000000E+00 0.  1.
          2   -1    0    0  501    0  0.00000000000E+00 -0.00000000000E+00 -0.18819751981E+03  0.18819751981E+03  0.00000000000E+00 0. -1.
         25    2    1    2    0    0  0.74704869034E+01 -0.20497814660E+03 -0.14807207314E+02  0.24070433538E+03  0.12508986738E+03 0.  0.
          5    1    3    3  502    0 -0.35298825700E+02 -0.24219921508E+02 -0.32724723751E+02  0.54046199110E+02  0.41800000000E+01 0. -1.
         -5    1    3    3    0  502  0.42769312603E+02 -0.18075822509E+03  0.17917516437E+02  0.18665813627E+03  0.41800000000E+01 0. -1.
        -11    1    1    2    0    0  0.16768786635E+02  0.19373990932E+03  0.14534847789E+03  0.24278081615E+03  0.00000000000E+00 0.  1.
         11    1    1    2    0    0 -0.24239273538E+02  0.11238237284E+02  0.34941454018E+01  0.26945304062E+02  0.00000000000E+00 0. -1.
</event>
<event>
 7    1  0.2626349E-009  0.8592385E+02  0.7561462E-02  0.1313034E+00
         -1   -1    0    0    0  501 -0.00000000000E+00  0.00000000000E+00  0.60029809091E+02  0.60029809091E+02  0.00000000000E+00 0.  1.
          1   -1    0    0  501    0  0.00000000000E+00 -0.00000000000E+00 -0.22045040773E+03  0.22045040773E+03  0.00000000000E+00 0. -1.
         25    2    1    2    0    0 -0.15691892865E+02  0.21888195195E+02 -0.64154810993E+02  0.14314558276E+03  0.12509791965E+03 0.  0.
          5    1    3    3  502    0 -0.34232221875E+02  0.53929386725E+02  0.54017627231E+01  0.64240759705E+02  0.41800000000E+01 0.  1.
         -5    1    3    3    0  502  0.18540329010E+02 -0.32041191530E+02 -0.69556573716E+02  0.78904823057E+02  0.41800000000E+01 0.  1.
        -11    1    1    2    0    0 -0.82174215704E+01 -0.39842123870E+02 -0.46289870572E+01  0.40943233543E+02  0.00000000000E+00 0.  1.
         11    1    1    2    0    0  0.23909314436E+02  0.17953928675E+02 -0.91636800593E+02  0.96391400522E+02  0.00000000000E+00 0. -1.
</event>
<event>
 7    1  0.2626349E-009  0.1030232E+03  0.7561462E-02  0.1274064E+00
         -2   -1    0    0    0  501 -0.00000000000E+00  0.00000000000E+00  0.17768497508E+02  0.17768497508E+02  0.00000000000E+00 0.  1.
          2   -1    0    0  501    0  0.00000000000E+00 -0.00000000000E+00 -0.77024264541E+03  0.77024264541E+03  0.00000000000E+00 0. -1.
         25    2    1    2    0    0 -0.23487657596E+02  0.37846127972E+02 -0.42843413209E+03  0.44853953882E+03  0.12509161796E+03 0.  0.
          5    1    3    3  502    0 -0.45759375536E+02 -0.19494384136E+02 -0.31943111691E+03  0.32330738055E+03  0.41800000000E+01 0.  1.
         -5    1    3    3    0  502  0.22271717940E+02  0.57340512108E+02 -0.10900301517E+03  0.12523215827E+03  0.41800000000E+01 0.  1.
        -11    1    1    2    0    0 -0.52688490287E+01 -0.58711641982E+02 -0.13789329128E+03  0.14996458733E+03  0.00000000000E+00 0.  1.
         11    1    1    2    0    0  0.28756506624E+02  0.20865514010E+02 -0.18614672454E+03  0.18950701677E+03  0.00000000000E+00 0. -1.
</event>
<event>
 7    1  0.2626349E-009  0.1243857E+03  0.7561462E-02  0.1236032E+00
         -1   -1    0    0    0  501 -0.00000000000E+00  0.00000000000E+00  0.23560380975E+03  0.23560380975E+03  0.00000000000E+00 0.  1.
          1   -1    0    0  501    0  0.00000000000E+00 -0.00000000000E+00 -0.66591439046E+02  0.66591439046E+02  0.00000000000E+00 0. -1.
         25    2    1    2    0    0 -0.17639097728E+02 -0.61947918875E+02  0.89378691341E+02  0.16669272904E+03  0.12509689456E+03 0.  0.
          5    1    3    3  502    0 -0.41922811383E+02 -0.92054157234E+02  0.71087913524E+02  0.12370308738E+03  0.41800000000E+01 0. -1.
         -5    1    3    3    0  502  0.24283713655E+02  0.30106238360E+02  0.18290777818E+02  0.42989641662E+02  0.41800000000E+01 0. -1.
        -11    1    1    2    0    0 -0.32478580879E+02  0.51545769625E+01  0.32810393080E+02  0.46453737995E+02  0.00000000000E+00 0.  1.
         11    1    1    2    0    0  0.50117678607E+02  0.56793341912E+02  0.46823286283E+02  0.89048781760E+02  0.00000000000E+00 0. -1.
</event>
<event>
 7    1  0.2626349E-009  0.1121439E+03  0.7561462E-02  0.1256651E+00
          1   -1    0    0  501    0  0.00000000000E+00  0.00000000000E+00  0.54733107366E+03  0.54733107366E+03  0.00000000000E+00 0. -1.
         -1   -1    0    0    0  501 -0.00000000000E+00 -0.00000000000E+00 -0.28002104862E+02  0.28002104862E+02  0.00000000000E+00 0.  1.
         25    2    1    2    0    0  0.59984120426E+02 -0.10457176296E+02  0.33386142966E+03  0.36168832835E+03  0.12509014915E+03 0.  0.
          5    1    3    3  502    0 -0.24924952119E+02 -0.29871114815E+02  0.18564015940E+03  0.18971894455E+03  0.41800000000E+01 0. -1.
         -5    1    3    3    0  502  0.84909072545E+02  0.19413938519E+02  0.14822127026E+03  0.17196938380E+03  0.41800000000E+01 0. -1.
        -11    1    1    2    0    0 -0.33834715792E+02  0.43951284589E+02  0.62604254362E+02  0.83640875617E+02  0.00000000000E+00 0.  1.
         11    1    1    2    0    0 -0.26149404634E+02 -0.33494108294E+02  0.12286328478E+03  0.13000397455E+03  0.00000000000E+00 0. -1.
</event>
<event>
 7    1  0.2626349E-009  0.1595457E+03  0.7561462E-02  0.1189211E+00
          2   -1    0    0  501    0  0.00000000000E+00  0.00000000000E+00  0.14156172952E+04  0.14156172952E+04  0.00000000000E+00 0.  1.
         -2   -1    0    0    0  501 -0.00000000000E+00 -0.00000000000E+00 -0.33896314863E+02  0.33896314863E+02  0.00000000000E+00 0. -1.
         25    2    1    2    0    0  0.73000426799E+02 -0.13551286779E+03  0.10860444452E+04  0.11040078157E+04  0.12509164826E+03 0.  0.
          5    1    3    3  502    0 -0.21462723131E+01  0.33471566359E+01  0.39901519277E+03  0.39905689620E+03  0.41800000000E+01 0. -1.
         -5    1    3    3    0  502  0.75146699112E+02 -0.13886002442E+03  0.68702925241E+03  0.70495091946E+03  0.41800000000E+01 0. -1.
        -11    1    1    2    0    0 -0.60291493306E+01  0.28539954827E+02  0.14978927689E+03  0.15260310329E+03  0.00000000000E+00 0.  1.
         11    1    1    2    0    0 -0.66971277468E+02  0.10697291296E+03  0.14588725822E+03  0.19290269108E+03  0.00000000000E+00 0. -1.
</event>
<event>
 7    1  0.2626349E-009  0.8084221E+02  0.7561462E-02  0.1326678E+00
          2   -1    0    0  501    0  0.00000000000E+00  0.00000000000E+00  0.12362846986E+03  0.12362846986E+03  0.00000000000E+00 0. -1.
         -2   -1    0    0    0  501 -0.00000000000E+00 -0.00000000000E+00 -0.20937188940E+03  0.20937188940E+03  0.00000000000E+00 0.  1.
         25    2    1    2    0    0  0.30931354947E+02  0.28062003151E+02 -0.16152197354E+03  0.20852112133E+03  0.12508990913E+03 0.  0.
          5    1    3    3  502    0  0.34865600489E+02  0.41179018738E+02 -0.17837681137E+03  0.18640568907E+03  0.41800000000E+01 0. -1.
         -5    1    3    3    0  502 -0.39342455422E+01 -0.13117015587E+02  0.16854837833E+02  0.22115432266E+02  0.41800000000E+01 0. -1.
        -11    1    1    2    0    0 -0.43240014153E+02  0.17055155488E+02  0.17291658077E+02  0.49594138683E+02  0.00000000000E+00 0.  1.
         11    1    1    2    0    0  0.12308659206E+02 -0.45117158638E+02  0.58486895917E+02  0.74885099246E+02  0.00000000000E+00 0. -1.
</event>
<event>
 7    1  0.2626349E-009  0.5219182E+02  0.7561462E-02  0.1433866E+00
          1   -1    0    0  501    0  0.00000000000E+00  0.00000000000E+00  0.69263269122E+02  0.69263269122E+02  0.00000000000E+00 0. -1.
         -1   -1    0    0    0  501 -0.00000000000E+00 -0.00000000000E+00 -0.18011673284E+03  0.18011673284E+03  0.00000000000E+00 0.  1.
         25    2    1    2    0    0  0.19170969632E+02 -0.24329049761E+02 -0.75279761594E+02  0.14924464839E+03  0.12508994296E+03 0.  0.
          5    1    3    3  502    0  0.43228394867E+02 -0.19454269907E+02  0.19366405193E+02  0.51377940699E+02  0.41800000000E+01 0. -1.
         -5    1    3    3    0  502 -0.24057425235E+02 -0.48747798540E+01 -0.94646166787E+02  0.97866707695E+02  0.41800000000E+01 0. -1.
        -11    1    1    2    0    0 -0.52802937193E+01  0.12791322585E+02  0.29509749879E+02  0.32593324058E+02  0.00000000000E+00 0. -1.
         11    1    1    2    0    0 -0.13890675913E+02  0.11537727176E+02 -0.65083452000E+02  0.67542029507E+02  0.00000000000E+00 0.  1.
</event>
<event>
 7    1  0.2626349E-009  0.2104196E+03  0.7561462E-02  0.1141234E+00
         -1   -1    0    0    0  501 -0.00000000000E+00  0.00000000000E+00  0.10370094100E+03  0.10370094100E+03  0.00000000000E+00 0.  1.
          1   -1    0    0  501    0  0.00000000000E+00 -0.00000000000E+00 -0.55832754723E+03  0.55832754723E+03  0.00000000000E+00 0. -1.
         25    2    1    2    0    0 -0.20471024221E+03  0.18163866130E+02 -0.31978011981E+03  0.40018076238E+03  0.12509639585E+03 0.  0.
          5    1    3    3  502    0 -0.12622736653E+03 -0.15593071335E+02 -0.27636689033E+03  0.30425749359E+03  0.41800000000E+01 0. -1.
         -5    1    3    3    0  502 -0.78482875675E+02  0.33756937465E+02 -0.43413229482E+02  0.95923268790E+02  0.41800000000E+01 0. -1.
        -11    1    1    2    0    0  0.10163864450E+03  0.72220482627E+01 -0.17107279608E+02  0.10332100973E+03  0.00000000000E+00 0.  1.
         11    1    1    2    0    0  0.10307159771E+03 -0.25385914392E+02 -0.11773920681E+03  0.15852671612E+03  0.00000000000E+00 0. -1.
</event>
<event>
 7    1  0.2626349E-009  0.1079785E+03  0.7561462E-02  0.1264360E+00
         -1   -1    0    0    0  501 -0.00000000000E+00  0.00000000000E+00  0.16033281590E+02  0.16033281590E+02  0.00000000000E+00 0.  1.
          1   -1    0    0  501    0  0.00000000000E+00 -0.00000000000E+00 -0.82934897430E+03  0.82934897430E+03  0.00000000000E+00 0. -1.
         25    2    1    2    0    0  0.22905858336E+02  0.20243643982E+02 -0.57483060825E+03  0.58907724681E+03  0.12508913248E+03 0.  0.
          5    1    3    3  502    0  0.69871142419E+02  0.36441816816E+02 -0.35290454315E+03  0.36162006517E+03  0.41800000000E+01 0. -1.
         -5    1    3    3    0  502 -0.46965284083E+02 -0.16198172834E+02 -0.22192606509E+03  0.22745718164E+03  0.41800000000E+01 0. -1.
        -11    1    1    2    0    0 -0.31268962783E+02 -0.48507190091E+02 -0.19791765688E+03  0.20616036095E+03  0.00000000000E+00 0. -1.
         11    1    1    2    0    0  0.83631044472E+01  0.28263546109E+02 -0.40567427579E+02  0.50144648120E+02  0.00000000000E+00 0.  1.
</event>
<event>
 7    1  0.2626349E-009  0.9805981E+02  0.7561462E-02  0.1284430E+00
          1   -1    0    0  501    0  0.00000000000E+00  0.00000000000E+00  0.12739261554E+03  0.12739261554E+03  0.00000000000E+00 0. -1.
         -1   -1    0    0    0  501 -0.00000000000E+00 -0.00000000000E+00 -0.17257384307E+03  0.17257384307E+03  0.00000000000E+00 0.  1.
         25    2    1    2    0    0 -0.13211136767E+02 -0.12718752959E+02 -0.12620129777E+03  0.17863596443E+03  0.12509092460E+03 0.  0.
          5    1    3    3  502    0 -0.14175676281E+02 -0.61817963203E+02 -0.10947553376E+03  0.12658900136E+03  0.41800000000E+01 0.  1.
         -5    1    3    3    0  502  0.96453951385E+00  0.49099210244E+02 -0.16725764010E+02  0.52046963070E+02  0.41800000000E+01 0.  1.
        -11    1    1    2    0    0 -0.34534010008E+02  0.61763585215E+01  0.11852444580E+02  0.37030064736E+02  0.00000000000E+00 0.  1.
         11    1    1    2    0    0  0.47745146776E+02  0.65423944378E+01  0.69167625658E+02  0.84300429446E+02  0.00000000000E+00 0. -1.
</event>
<event>
 7    1  0.2626349E-009  0.1319426E+03  0.7561462E-02  0.1224601E+00
         -2   -1    0    0    0  501 -0.00000000000E+00  0.00000000000E+00  0.61228696502E+02  0.61228696502E+02  0.00000000000E+00 0.  1.
          2   -1    0    0  501    0  0.00000000000E+00 -0.00000000000E+00 -0.40299270625E+03  0.40299270625E+03  0.00000000000E+00 0. -1.
         25    2    1    2    0    0 -0.65134509099E+02 -0.66797478416E+02 -0.27824496782E+03  0.31901794624E+03  0.12509108883E+03 0.  0.
          5    1    3    3  502    0  0.56638803768E+01 -0.82651173436E+02 -0.16006046522E+03  0.18027789920E+03  0.41800000000E+01 0.  1.
         -5    1    3    3    0  502 -0.70798389476E+02  0.15853695019E+02 -0.11818450260E+03  0.13874004704E+03  0.41800000000E+01 0.  1.
        -11    1    1    2    0    0  0.67733562578E+02  0.34782240732E+02 -0.24257717110E+01  0.76180864646E+02  0.00000000000E+00 0.  1.
         11    1    1    2    0    0 -0.25990534789E+01  0.32015237684E+02 -0.61093270214E+02  0.69022591870E+02  0.00000000000E+00 0. -1.
</event>
<event>
 7    1  0.2626349E-009  0.9718634E+02  0.7561462E-02  0.1286326E+00
         -1   -1    0    0    0  501 -0.00000000000E+00  0.00000000000E+00  0.48168132182E+02  0.48168132182E+02  0.00000000000E+00 0.  1.
          1   -1    0    0  501    0  0.00000000000E+00 -0.00000000000E+00 -0.29255698715E+03  0.29255698715E+03  0.00000000000E+00 0. -1.
         25    2    1    2    0    0 -0.35687239855E+02 -0.23458147847E+02 -0.10629534603E+03  0.16961563588E+03  0.12508756756E+03 0.  0.
          5    1    3    3  502    0 -0.67741723079E+02 -0.13054978669E+02 -0.11534956118E+03  0.13447069263E+03  0.41800000000E+01 0. -1.
         -5    1    3    3    0  502  0.32054483224E+02 -0.10403169179E+02  0.90542151437E+01  0.35144943244E+02  0.41800000000E+01 0. -1.
        -11    1    1    2    0    0 -0.89489516752E+01 -0.24320327145E+02 -0.10938559772E+02  0.28128528906E+02  0.00000000000E+00 0.  1.
         11    1    1    2    0    0  0.44636191530E+02  0.47778474992E+02 -0.12715494917E+03  0.14298095455E+03  0.00000000000E+00 0. -1.
</event>
<event>
 7    1  0.2626349E-009  0.1225575E+03  0.7561462E-02  0.1238937E+00
         -2   -1    0    0    0  501 -0.00000000000E+00  0.00000000000E+00  0.36601717537E+02  0.36601717537E+02  0.00000000000E+00 0.  1.
          2   -1    0    0  501    0  0.00000000000E+00 -0.00000000000E+00 -0.70603109303E+03  0.70603109303E+03  0.00000000000E+00 0. -1.
         25    2    1    2    0    0  0.92569956813E+02 -0.60409283367E+02 -0.25475692447E+03  0.30457710092E+03  0.12509053288E+03 0.  0.
          5    1    3    3  502    0  0.74910487972E+02 -0.39611412866E+02 -0.51066033741E+02  0.99024529484E+02  0.41800000000E+01 0. -1.
         -5    1    3    3    0  502  0.17659468841E+02 -0.20797870501E+02 -0.20369089073E+03  0.20555257143E+03  0.41800000000E+01 0. -1.
        -11    1    1    2    0    0 -0.83939402154E+02  0.13552774613E+02 -0.18658269671E+03  0.20504293122E+03  0.00000000000E+00 0.  1.
         11    1    1    2    0    0 -0.86305546597E+01  0.46856508754E+02 -0.22808975431E+03  0.23301277843E+03  0.00000000000E+00 0. -1.
</event>
<event>
 7    1  0.2626349E-009  0.1703015E+03  0.7561462E-02  0.1177534E+00
          2   -1    0    0  501    0  0.00000000000E+00  0.00000000000E+00  0.10031816691E+03  0.10031816691E+03  0.00000000000E+00 0. -1.
         -2   -1    0    0    0  501 -0.00000000000E+00 -0.00000000000E+00 -0.38745780859E+03  0.38745780859E+03  0.00000000000E+00 0.  1.
         25    2    1    2    0    0 -0.75318783199E+02  0.14544305187E+03 -0.17336017903E+03  0.26931054307E+03  0.12509123270E+03 0.  0.
          5    1    3    3  502    0 -0.11699621308E+02  0.66743031359E+02 -0.15103953322E+03  0.16559567135E+03  0.41800000000E+01 0.  1.
         -5    1    3    3    0  502 -0.63619161891E+02  0.78700020506E+02 -0.22320645806E+02  0.10371487172E+03  0.41800000000E+01 0.  1.
        -11    1    1    2    0    0  0.16781710685E+02 -0.87389452036E+02 -0.10171244610E+03  0.13514423344E+03  0.00000000000E+00 0.  1.
         11    1    1    2    0    0  0.58537072513E+02 -0.58053599829E+02 -0.12067016559E+02  0.83321198984E+02  0.00000000000E+00 0. -1.
</event>
<event>
 7    1  0.2626349E-009  0.1755978E+03  0.7561462E-02  0.1172133E+00
         -1   -1    0    0    0  501 -0.00000000000E+00  0.00000000000E+00  0.82500684743E+02  0.82500684743E+02  0.00000000000E+00 0. -1.
          1   -1    0    0  501    0  0.00000000000E+00 -0.00000000000E+00 -0.44007951077E+03  0.44007951077E+03  0.00000000000E+00 0.  1.
         25    2    1    2    0    0 -0.13454943821E+03  0.71555089029E+02 -0.14164795564E+03  0.24276645296E+03  0.12509086800E+03 0.  0.
          5    1    3    3  502    0 -0.19325394301E+02 -0.20575481378E+02  0.10865441176E+02  0.30534431561E+02  0.41800000000E+01 0. -1.
         -5    1    3    3    0  502 -0.11522404391E+03  0.92130570408E+02 -0.15251339681E+03  0.21223202140E+03  0.41800000000E+01 0. -1.
        -11    1    1    2    0    0  0.10149118744E+03 -0.60179593238E+01 -0.10005493535E+03  0.14264524896E+03  0.00000000000E+00 0. -1.
         11    1    1    2    0    0  0.33058250765E+02 -0.65537129706E+02 -0.11587593504E+03  0.13716849359E+03  0.00000000000E+00 0.  1.
</event>
<event>
 7    1  0.2626349E-009  0.1296402E+03  0.7561462E-02  0.1227991E+00
          3   -1    0    0  501    0  0.00000000000E+00  0.00000000000E+00  0.25116237374E+03  0.25116237374E+03  0.00000000000E+00 0. -1.
         -3   -1    0    0    0  501 -0.00000000000E+00 -0.00000000000E+00 -0.86226194518E+02  0.86226194518E+02  0.00000000000E+00 0.  1.
         25    2    1    2    0    0 -0.78506837628E+02 -0.51904815178E+02  0.10445817829E+03  0.18819178161E+03  0.12508877752E+03 0.  0.
          5    1    3    3  502    0 -0.97378704683E+02 -0.77458538580E+02  0.83177996565E+02  0.14972804960E+03  0.41800000000E+01 0.  1.
         -5    1    3    3    0  502  0.18871867055E+02  0.25553723401E+02  0.21280181730E+02  0.38463732012E+02  0.41800000000E+01 0.  1.
        -11    1    1    2    0    0  0.23685214742E+02  0.40238538947E+02 -0.20270562562E+02  0.50902113125E+02  0.00000000000E+00 0.  1.
         11    1    1    2    0    0  0.54821622886E+02  0.11666276231E+02  0.80748563488E+02  0.98294673519E+02  0.00000000000E+00 0. -1.
</event>
<event>
 7    1  0.2626349E-009  0.9634330E+02  0.7561462E-02  0.1288179E+00
          1   -1    0    0  501    0  0.00000000000E+00  0.00000000000E+00  0.36094698295E+03  0.36094698295E+03  0.00000000000E+00 0. -1.
         -1   -1    0    0    0  501 -0.00000000000E+00 -0.00000000000E+00 -0.48037737141E+02  0.48037737141E+02  0.00000000000E+00 0.  1.
         25    2    1    2    0    0 -0.10580177683E+02  0.43168954101E+02  0.26895037880E+03  0.29992820316E+03  0.12508845683E+03 0.  0.
          5    1    3    3  502    0  0.16148085465E+02  0.76270107317E+02  0.22692896933E+03  0.23998358164E+03  0.41800000000E+01 0.  1.
         -5    1    3    3    0  502 -0.26728263148E+02 -0.33101153216E+02  0.42021409472E+02  0.59944621520E+02  0.41800000000E+01 0.  1.
        -11    1    1    2    0    0  0.33987614811E+02 -0.23968901766E+02  0.61368279692E+02  0.74133204199E+02  0.00000000000E+00 0. -1.
         11    1    1    2    0    0 -0.23407437128E+02 -0.19200052335E+02 -0.17409412683E+02  0.34923312737E+02  0.00000000000E+00 0.  1.
</event>
<event>
 7    1  0.2626349E-009  0.1201328E+03  0.7561462E-02  0.1242878E+00
         -1   -1    0    0    0  501 -0.00000000000E+00  0.00000000000E+00  0.88287409054E+02  0.88287409054E+02  0.00000000000E+00 0.  1.
          1   -1    0    0  501    0  0.00000000000E+00 -0.00000000000E+00 -0.32134412548E+03  0.32134412548E+03  0.00000000000E+00 0. -1.
         25    2    1    2    0    0  0.83106568965E+02 -0.22060120036E+02 -0.88283130352E+01  0.15205251987E+03  0.12509468008E+03 0.  0.
          5    1    3    3  502    0  0.83089907396E+02 -0.46233230838E+02 -0.47409586549E+02  0.10633242987E+03  0.41800000000E+01 0.  1.
         -5    1    3    3    0  502  0.16661569226E-01  0.24173110802E+02  0.38581273514E+02  0.45720089997E+02  0.41800000000E+01 0.  1.
        -11    1    1    2    0    0 -0.86487892769E+02  0.44912625965E+02 -0.14241680800E+03  0.17256838288E+03  0.00000000000E+00 0.  1.
         11    1    1    2    0    0  0.33813238033E+01 -0.22852505929E+02 -0.81811595382E+02  0.85010631787E+02  0.00000000000E+00 0. -1.
</event>
<event>
 7    1  0.2626349E-009  0.1527406E+03  0.7561462E-02  0.1197145E+00
          2   -1    0    0  501    0  0.00000000000E+00  0.00000000000E+00  0.72882163357E+03  0.72882163357E+03  0.00000000000E+00 0.  1.
         -2   -1    0    0    0  501 -0.00000000000E+00 -0.00000000000E+00 -0.37819766990E+02  0.37819766990E+02  0.00000000000E+00 0. -1.
         25    2    1    2    0    0 -0.84540793690E+02  0.88082467439E+02  0.42295652768E+03  0.45765246114E+03  0.12509150256E+03 0.  0.
          5    1    3    3  502    0 -0.32934367382E+02  0.11228056134E+03  0.26658245870E+03  0.29116194239E+03  0.41800000000E+01 0.  1.
         -5    1    3    3    0  502 -0.51606426308E+02 -0.24198093901E+02  0.15637406898E+03  0.16649051875E+03  0.41800000000E+01 0.  1.
        -11    1    1    2    0    0  0.59239433304E+02 -0.26947330916E+02  0.52803384316E+02  0.83807317681E+02  0.00000000000E+00 0. -1.
         11    1    1    2    0    0  0.25301360386E+02 -0.61135136523E+02  0.21524195459E+03  0.22518162174E+03  0.00000000000E+00 0.  1.
</event>
<event>
 7    1  0.2626349E-009  0.9245873E+02  0.7561462E-02  0.1297004E+00
         -1   -1    0    0    0  501 -0.00000000000E+00  0.00000000000E+00  0.97665725161E+02  0.97665725161E+02  0.00000000000E+00 0.  1.
          1   -1    0    0  501    0  0.00000000000E+00 -0.00000000000E+00 -0.14153629556E+03  0.14153629556E+03  0.00000000000E+00 0. -1.
         25    2    1    2    0    0 -0.28593015737E+02  0.27789609014E+02 -0.40637022323E+02  0.13742678755E+03  0.12507970033E+03 0.  0.
          5    1    3    3  502    0 -0.49563135428E+02 -0.19662616974E+01 -0.73122822953E+02  0.88457844283E+02  0.41800000000E+01 0.  1.
         -5    1    3    3    0  502  0.20970119692E+02  0.29755870712E+02  0.32485800630E+02  0.48968943263E+02  0.41800000000E+01 0.  1.
        -11    1    1    2    0    0  0.49443133395E+02 -0.48393327601E+02  0.94665339333E+01  0.69829455539E+02  0.00000000000E+00 0.  1.
         11    1    1    2    0    0 -0.20850117658E+02  0.20603718586E+02 -0.12700082014E+02  0.31945777641E+02  0.00000000000E+00 0. -1.
</event>
<event>
 7    1  0.2626349E-009  0.1377265E+03  0.7561462E-02  0.1216421E+00
         -3   -1    0    0    0  501 -0.00000000000E+00  0.00000000000E+00  0.22476325742E+03  0.22476325742E+03  0.00000000000E+00 0.  1.
          3   -1    0    0  501    0  0.00000000000E+00 -0.00000000000E+00 -0.10222382273E+03  0.10222382273E+03  0.00000000000E+00 0. -1.
         25    2    1    2    0    0  0.58695144333E+02  0.86503125494E+02  0.59169049897E+02  0.17342349798E+03  0.12508725953E+03 0.  0.
          5    1    3    3  502    0  0.80515871331E+02  0.10586581772E+03  0.43219092712E+02  0.13991332771E+03  0.41800000000E+01 0.  1.
         -5    1    3    3    0  502 -0.21820726997E+02 -0.19362692223E+02  0.15949957185E+02  0.33510170262E+02  0.41800000000E+01 0.  1.
        -11    1    1    2    0    0 -0.50142851004E+02 -0.36095806732E+02  0.78823448944E+02  0.10015162941E+03  0.00000000000E+00 0.  1.
         11    1    1    2    0    0 -0.85522933294E+01 -0.50407318762E+02 -0.15453064159E+02  0.53411952762E+02  0.00000000000E+00 0. -1.
</event>
<event>
 7    1  0.2626349E-009  0.9587071E+02  0.7561462E-02  0.1289227E+00
         -2   -1    0    0    0  501 -0.00000000000E+00  0.00000000000E+00  0.33776826599E+02  0.33776826599E+02  0.00000000000E+00 0.  1.
          2   -1    0    0  501    0  0.00000000000E+00 -0.00000000000E+00 -0.37373600481E+03  0.37373600481E+03  0.00000000000E+00 0. -1.
         25    2    1    2    0    0  0.18193569720E+02  0.26701256655E+01 -0.21666774303E+03  0.25086343309E+03  0.12509762445E+03 0.  0.
          5    1    3    3  502    0 -0.49258381142E+02 -0.22489892583E+02 -0.90971020335E+02  0.10594990478E+03  0.41800000000E+01 0.  1.
         -5    1    3    3    0  502  0.67451950862E+02  0.25160018249E+02 -0.12569672269E+03  0.14491352832E+03  0.41800000000E+01 0.  1.
        -11    1    1    2    0    0  0.21258685192E+02 -0.12497429066E+02  0.21788194051E+01  0.24756103962E+02  0.00000000000E+00 0.  1.
         11    1    1    2    0    0 -0.39452254913E+02  0.98273034004E+01 -0.12547025459E+03  0.13189329436E+03  0.00000000000E+00 0. -1.
</event>
<event>
 7    1  0.2626349E-009  0.2495776E+03  0.7561462E-02  0.1113572E+00
          1   -1    0    0  501    0  0.00000000000E+00  0.00000000000E+00  0.86704631985E+03  0.86704631985E+03  0.00000000000E+00 0. -1.
         -1   -1    0    0    0  501 -0.00000000000E+00 -0.00000000000E+00 -0.94338907255E+02  0.94338907255E+02  0.00000000000E+00 0.  1.
         25    2    1    2    0    0 -0.11978271345E+03  0.21289609856E+03  0.22513138401E+03  0.35497169053E+03  0.12509242100E+03 0.  0.
          5    1    3    3  502    0 -0.28641995657E+02  0.11412037859E+03  0.17613104115E+03  0.21185712351E+03  0.41800000000E+01 0. -1.
         -5    1    3    3    0  502 -0.91140717794E+02  0.98775719962E+02  0.49000342858E+02  0.14311456702E+03  0.41800000000E+01 0. -1.
        -11    1    1    2    0    0  0.52606758068E+02 -0.13012103109E+03  0.21148108268E+03  0.25381726115E+03  0.00000000000E+00 0.  1.
         11    1    1    2    0    0  0.67175955383E+02 -0.82775067464E+02  0.33609494591E+03  0.35259627542E+03  0.00000000000E+00 0. -1.
</event>
<event>
 7    1  0.2626349E-009  0.1291813E+03  0.7561462E-02  0.1228676E+00
         -1   -1    0    0    0  501 -0.00000000000E+00  0.00000000000E+00  0.12532969166E+03  0.12532969166E+03  0.00000000000E+00 0.  1.
          1   -1    0    0  501    0  0.00000000000E+00 -0.00000000000E+00 -0.30311273925E+03  0.30311273925E+03  0.00000000000E+00 0. -1.
         25    2    1    2    0    0  0.95319528172E+02  0.20213271328E+02 -0.23474568670E+03  0.28328014552E+03  0.12509082553E+03 0.  0.
          5    1    3    3  502    0  0.11948246124E+03 -0.48528951187E+01 -0.15225568121E+03  0.19364625996E+03  0.41800000000E+01 0.  1.
         -5    1    3    3    0  502 -0.24162933069E+02  0.25066166447E+02 -0.82490005491E+02  0.89633885560E+02  0.41800000000E+01 0.  1.
        -11    1    1    2    0    0 -0.41306862217E+02 -0.26785773697E+02  0.73347323486E+02  0.88337785807E+02  0.00000000000E+00 0.  1.
         11    1    1    2    0    0 -0.54012665955E+02  0.65725023690E+01 -0.16384684370E+02  0.56824499583E+02  0.00000000000E+00 0. -1.
</event>
<event>
 7    1  0.2626349E-009  0.1213949E+03  0.7561462E-02  0.1240813E+00
          2   -1    0    0  501    0  0.00000000000E+00  0.00000000000E+00  0.15681255332E+04  0.15681255332E+04  0.00000000000E+00 0. -1.
         -2   -1    0    0    0  501 -0.00000000000E+00 -0.00000000000E+00 -0.10505269457E+02  0.10505269457E+02  0.00000000000E+00 0.  1.
         25    2    1    2    0    0 -0.26686950407E+01 -0.61721040532E+02  0.10411023923E+04  0.10504087812E+04  0.12509119730E+03 0.  0.
          5    1    3    3  502    0 -0.20717127765E+02  0.32246917477E+02  0.18563994234E+03  0.18960148644E+03  0.41800000000E+01 0.  1.
         -5    1    3    3    0  502  0.18048432725E+02 -0.93967958009E+02  0.85546244996E+03  0.86080729479E+03  0.41800000000E+01 0.  1.
        -11    1    1    2    0    0 -0.82693118326E+01  0.83593995722E+02  0.43805027077E+03  0.44603181205E+03  0.00000000000E+00 0. -1.
         11    1    1    2    0    0  0.10938006873E+02 -0.21872955191E+02  0.78467600714E+02  0.82190209423E+02  0.00000000000E+00 0.  1.
</event>
<event>
 7    1  0.3066069E-009  0.1286872E+03  0.7561462E-02  0.1229417E+00
         -2   -1    0    0    0  501 -0.00000000000E+00  0.00000000000E+00  0.13075659512E+03  0.13075659512E+03  0.00000000000E+00 0.  1.
          2   -1    0    0  501    0  0.00000000000E+00 -0.00000000000E+00 -0.15496537414E+03  0.15496537414E+03  0.00000000000E+00 0. -1.
         25    2    1    2    0    0 -0.49221331458E+02  0.62576060422E+02  0.32545616133E+02  0.15180499143E+03  0.12508811088E+03 0.  0.
          5    1    3    3  502    0 -0.80864327508E+02  0.65836097100E+02  0.49514419817E+02  0.11551009183E+03  0.41800000000E+01 0.  1.
         -5    1    3    3    0  502  0.31642996051E+02 -0.32600366776E+01 -0.16968803685E+02  0.36294899596E+02  0.41800000000E+01 0.  1.
        -11    1    1    2    0    0 -0.10956282413E+02 -0.59686681326E+02 -0.33669867919E+02  0.69398847668E+02  0.00000000000E+00 0. -1.
         11    1    1    2    0    0  0.60177613870E+02 -0.28893790966E+01 -0.23084527229E+02  0.64518130166E+02  0.00000000000E+00 0.  1.
</event>
<event>
 7    1  0.2626349E-009  0.1611075E+03  0.7561462E-02  0.1187452E+00
          1   -1    0    0  501    0  0.00000000000E+00  0.00000000000E+00  0.25824870539E+03  0.25824870539E+03  0.00000000000E+00 0. -1.
         -1   -1    0    0    0  501 -0.00000000000E+00 -0.00000000000E+00 -0.12571892872E+03  0.12571892872E+03  0.00000000000E+00 0.  1.
         25    2    1    2    0    0  0.62758861448E+02  0.11673930553E+03  0.12604640763E+03  0.22159225288E+03  0.12509472216E+03 0.  0.
          5    1    3    3  502    0 -0.94659732731E+01  0.10135539335E+03  0.43566093110E+02  0.11080612474E+03  0.41800000000E+01 0.  1.
         -5    1    3    3    0  502  0.72224834721E+02  0.15383912182E+02  0.82480314523E+02  0.11078612814E+03  0.41800000000E+01 0.  1.
        -11    1    1    2    0    0 -0.20977883541E+02 -0.98623956431E+02  0.37168481170E+02  0.10746279529E+03  0.00000000000E+00 0.  1.
         11    1    1    2    0    0 -0.41780977907E+02 -0.18115349098E+02 -0.30685112135E+02  0.54912585940E+02  0.00000000000E+00 0. -1.
</event>
<event>
 7    1  0.2626349E-009  0.1071875E+03  0.7561462E-02  0.1265869E+00
          1   -1    0    0  501    0  0.00000000000E+00  0.00000000000E+00  0.14880612809E+02  0.14880612809E+02  0.00000000000E+00 0. -1.
         -1   -1    0    0    0  501 -0.00000000000E+00 -0.00000000000E+00 -0.81546314897E+03  0.81546314897E+03  0.00000000000E+00 0.  1.
         25    2    1    2    0    0 -0.18696864659E+02  0.15129653466E+02 -0.47266004260E+03  0.48952365685E+03  0.12508963022E+03 0.  0.
          5    1    3    3  502    0 -0.34966183736E+02 -0.49409400340E+02 -0.22115736936E+03  0.22932940777E+03  0.41800000000E+01 0. -1.
         -5    1    3    3    0  502  0.16269319077E+02  0.64539053806E+02 -0.25150267324E+03  0.26019424908E+03  0.41800000000E+01 0. -1.
        -11    1    1    2    0    0 -0.52457542396E+01  0.32915488626E+02 -0.72173137840E+02  0.79497856290E+02  0.00000000000E+00 0. -1.
         11    1    1    2    0    0  0.23942618899E+02 -0.48045142091E+02 -0.25574935572E+03  0.26132224863E+03  0.00000000000E+00 0.  1.
</event>
<event>
 7    1  0.2626349E-009  0.1135878E+03  0.7561462E-02  0.1254066E+00
          3   -1    0    0  501    0  0.00000000000E+00  0.00000000000E+00  0.84861990617E+02  0.84861990617E+02  0.00000000000E+00 0. -1.
         -3   -1    0    0    0  501 -0.00000000000E+00 -0.00000000000E+00 -0.15981469185E+03  0.15981469185E+03  0.00000000000E+00 0.  1.
         25    2    1    2    0    0  0.47895438659E+02 -0.11070896422E+02 -0.40763149793E+02  0.14044711258E+03  0.12508884547E+03 0.  0.
          5    1    3    3  502    0  0.42284698313E+02  0.51002163857E+02 -0.98361641881E+00  0.66390182488E+02  0.41800000000E+01 0. -1.
         -5    1    3    3    0  502  0.56107403455E+01 -0.62073060279E+02 -0.39779533375E+02  0.74056930095E+02  0.41800000000E+01 0. -1.
        -11    1    1    2    0    0 -0.38769991416E+02  0.47189259336E+02 -0.23881705825E+02  0.65576476759E+02  0.00000000000E+00 0. -1.
         11    1    1    2    0    0 -0.91254472431E+01 -0.36118362914E+02 -0.10307845618E+02  0.38653093127E+02  0.00000000000E+00 0.  1.
</event>
<event>
 7    1  0.2626349E-009  0.1341543E+03  0.7561462E-02  0.1221418E+00
         -2   -1    0    0    0  501 -0.00000000000E+00  0.00000000000E+00  0.53477089522E+02  0.53477089522E+02  0.00000000000E+00 0. -1.
          2   -1    0    0  501    0  0.00000000000E+00 -0.00000000000E+00 -0.45515873253E+03  0.45515873253E+03  0.00000000000E+00 0.  1.
         25    2    1    2    0    0  0.84796112481E+02  0.55057377990E+02 -0.29297244434E+03  0.33421883036E+03  0.12509067855E+03 0.  0.
          5    1    3    3  502    0 -0.10655449534E+01  0.65645614332E+02 -0.18148433840E+03  0.19304020190E+03  0.41800000000E+01 0. -1.
         -5    1    3    3    0  502  0.85861657434E+02 -0.10588236342E+02 -0.11148810594E+03  0.14117862846E+03  0.41800000000E+01 0. -1.
        -11    1    1    2    0    0 -0.47735393070E+02 -0.61954543984E+02 -0.11196820536E+03  0.13657932598E+03  0.00000000000E+00 0.  1.
         11    1    1    2    0    0 -0.37060719411E+02  0.68971659944E+01  0.32590066983E+01  0.37837665714E+02  0.00000000000E+00 0. -1.
</event>
<event>
 7    1  0.2626349E-009  0.1807331E+03  0.7561462E-02  0.1167095E+00
          2   -1    0    0  501    0  0.00000000000E+00  0.00000000000E+00  0.81223261472E+03  0.81223261472E+03  0.00000000000E+00 0. -1.
         -2   -1    0    0    0  501 -0.00000000000E+00 -0.00000000000E+00 -0.48785021365E+02  0.48785021365E+02  0.00000000000E+00 0.  1.
         25    2    1    2    0    0  0.46756861153E+02 -0.15903330795E+03  0.43252453818E+03  0.47979486369E+03  0.12509131862E+03 0.  0.
          5    1    3    3  502    0  0.22504882393E+02 -0.16786172251E+03  0.29833507259E+03  0.34308208282E+03  0.41800000000E+01 0.  1.
         -5    1    3    3    0  502  0.24251978760E+02  0.88284145614E+01  0.13418946560E+03  0.13671278088E+03  0.41800000000E+01 0.  1.
        -11    1    1    2    0    0 -0.28226952126E+02  0.10743582187E+03  0.29615925856E+03  0.31630605919E+03  0.00000000000E+00 0. -1.
         11    1    1    2    0    0 -0.18529909027E+02  0.51597486075E+02  0.34763796602E+02  0.64916713195E+02  0.00000000000E+00 0.  1.
</event>
<event>
 7    1  0.2626349E-009  0.1260075E+03  0.7561462E-02  0.1233503E+00
         -2   -1    0    0    0  501 -0.00000000000E+00  0.00000000000E+00  0.22016195161E+02  0.22016195161E+02  0.00000000000E+00 0.  1.
          2   -1    0    0  501    0  0.00000000000E+00 -0.00000000000E+00 -0.74740273906E+03  0.74740273906E+03  0.00000000000E+00 0. -1.
         25    2    1    2    0    0 -0.15149698555E+02 -0.64152869166E+02 -0.35234325546E+03  0.37965555450E+03  0.12508983335E+03 0.  0.
          5    1    3    3  502    0 -0.46117000626E+02  0.20129247472E+02 -0.14924047161E+03  0.15755048434E+03  0.41800000000E+01 0.  1.
         -5    1    3    3    0  502  0.30967302071E+02 -0.84282116639E+02 -0.20310278385E+03  0.22210507016E+03  0.41800000000E+01 0.  1.
        -11    1    1    2    0    0 -0.27498856307E+02  0.63258121642E+02 -0.20081765970E+03  0.21233348652E+03  0.00000000000E+00 0.  1.
         11    1    1    2    0    0  0.42648554862E+02  0.89474752396E+00 -0.17222562874E+03  0.17742989320E+03  0.00000000000E+00 0. -1.
</event>
<event>
 7    1  0.2890989E-009  0.1062319E+03  0.7561462E-02  0.1267711E+00
         -2   -1    0    0    0  501 -0.00000000000E+00  0.00000000000E+00  0.17933039602E+02  0.17933039602E+02  0.00000000000E+00 0.  1.
          2   -1    0    0  501    0  0.00000000000E+00 -0.00000000000E+00 -0.99933846745E+03  0.99933846745E+03  0.00000000000E+00 0. -1.
         25    2    1    2    0    0 -0.59379196202E+00 -0.43161373557E+02 -0.79153183891E+03  0.80251728952E+03  0.12509233075E+03 0.  0.
          5    1    3    3  502    0  0.59198609880E+02 -0.26733832447E+02 -0.29400894658E+03  0.30112772420E+03  0.41800000000E+01 0.  1.
         -5    1    3    3    0  502 -0.59792401842E+02 -0.16427541109E+02 -0.49752289233E+03  0.50138956532E+03  0.41800000000E+01 0.  1.
        -11    1    1    2    0    0 -0.36376115441E+02  0.18760002148E+02 -0.14886675195E+03  0.15439063861E+03  0.00000000000E+00 0. -1.
         11    1    1    2    0    0  0.36969907403E+02  0.24401371408E+02 -0.41006836984E+02  0.60363578915E+02  0.00000000000E+00 0.  1.
</event>
<event>
 7    1  0.2626349E-009  0.9555442E+02  0.7561462E-02  0.1289932E+00
         -4   -1    0    0    0  501 -0.00000000000E+00  0.00000000000E+00  0.34554115742E+03  0.34554115742E+03  0.00000000000E+00 0.  1.
          4   -1    0    0  501    0  0.00000000000E+00 -0.00000000000E+00 -0.47025486942E+02  0.47025486942E+02  0.00000000000E+00 0. -1.
         25    2    1    2    0    0 -0.41656581478E+01  0.35586141349E+02  0.69437548158E+02  0.14749409725E+03  0.12509680038E+03 0.  0.
          5    1    3    3  502    0  0.44873306976E+02 -0.16416006842E+01  0.72861212313E+02  0.85688605960E+02  0.41800000000E+01 0.  1.
         -5    1    3    3    0  502 -0.49038965124E+02  0.37227742033E+02 -0.34236641549E+01  0.61805491289E+02  0.41800000000E+01 0.  1.
        -11    1    1    2    0    0 -0.15730314734E+02 -0.54575484594E+02  0.18078100355E+03  0.18949326522E+03  0.00000000000E+00 0.  1.
         11    1    1    2    0    0  0.19895972882E+02  0.18989343246E+02  0.48297118767E+02  0.55579281887E+02  0.00000000000E+00 0. -1.
</event>
<event>
 7    1  0.2626349E-009  0.1946714E+03  0.7561462E-02  0.1154314E+00
          2   -1    0    0  501    0  0.00000000000E+00  0.00000000000E+00  0.77409490275E+03  0.77409490275E+03  0.00000000000E+00 0. -1.
         -2   -1    0    0    0  501 -0.00000000000E+00 -0.00000000000E+00 -0.59158425002E+02  0.59158425002E+02  0.00000000000E+00 0.  1.
         25    2    1    2    0    0 -0.15763316674E+03  0.39712565023E+02  0.53660165520E+03  0.57446825993E+03  0.12508853756E+03 0.  0.
          5    1    3    3  502    0 -0.15855142583E+03 -0.40650326047E+01  0.45334420404E+03  0.48030565150E+03  0.41800000000E+01 0. -1.
         -5    1    3    3    0  502  0.91825908593E+00  0.43777597628E+02  0.83257451153E+02  0.94162608430E+02  0.41800000000E+01 0.  1.
        -11    1    1    2    0    0  0.85794324795E+02  0.25678427052E+02  0.97719429092E+02  0.13254861223E+03  0.00000000000E+00 0.  1.
         11    1    1    2    0    0  0.71838841948E+02 -0.65390992075E+02  0.80615393457E+02  0.12623645559E+03  0.00000000000E+00 0. -1.
</event>
<event>
 7    1  0.2626349E-009  0.8921300E+02  0.7561462E-02  0.1304769E+00
         -1   -1    0    0    0  501 -0.00000000000E+00  0.00000000000E+00  0.20252931914E+03  0.20252931914E+03  0.00000000000E+00 0.  1.
          1   -1    0    0  501    0  0.00000000000E+00 -0.00000000000E+00 -0.59326470379E+02  0.59326470379E+02  0.00000000000E+00 0. -1.
         25    2    1    2    0    0  0.31281389482E+02 -0.16783968462E+02  0.81383327866E+02  0.15339973239E+03  0.12509198583E+03 0.  0.
          5    1    3    3  502    0 -0.42616253127E+02 -0.86795320244E+01  0.82171314304E+00  0.43699278246E+02  0.41800000000E+01 0. -1.
         -5    1    3    3    0  502  0.73897642609E+02 -0.81044364372E+01  0.80561614723E+02  0.10970045415E+03  0.41800000000E+01 0. -1.
        -11    1    1    2    0    0  0.60315661199E+01 -0.11813977938E+02  0.59957760071E+02  0.61407514665E+02  0.00000000000E+00 0.  1.
         11    1    1    2    0    0 -0.37312955602E+02  0.28597946400E+02  0.18617608195E+01  0.47048542458E+02  0.00000000000E+00 0. -1.
</event>
<event>
 7    1  0.2626349E-009  0.1301866E+03  0.7561462E-02  0.1227179E+00
         -1   -1    0    0    0  501 -0.00000000000E+00  0.00000000000E+00  0.33171993098E+02  0.33171993098E+02  0.00000000000E+00 0.  1.
          1   -1    0    0  501    0  0.00000000000E+00 -0.00000000000E+00 -0.74442452709E+03  0.74442452709E+03  0.00000000000E+00 0. -1.
         25    2    1    2    0    0 -0.45003366562E+02 -0.10275737178E+03 -0.42299596722E+03  0.45514600448E+03  0.12509163301E+03 0.  0.
          5    1    3    3  502    0 -0.27931500894E+02 -0.90329603686E+02 -0.12708962289E+03  0.15845772524E+03  0.41800000000E+01 0. -1.
         -5    1    3    3    0  502 -0.17071865668E+02 -0.12427768097E+02 -0.29590634433E+03  0.29668827923E+03  0.41800000000E+01 0. -1.
        -11    1    1    2    0    0 -0.19125491187E+02  0.69265396993E+02 -0.15406566769E+03  0.16999914587E+03  0.00000000000E+00 0.  1.
         11    1    1    2    0    0  0.64128857748E+02  0.33491974790E+02 -0.13419089908E+03  0.15245136984E+03  0.00000000000E+00 0. -1.
</event>
<event>
 7    1  0.2626349E-009  0.1215022E+03  0.7561462E-02  0.1240639E+00
          2   -1    0    0  501    0  0.00000000000E+00  0.00000000000E+00  0.71416975581E+02  0.71416975581E+02  0.00000000000E+00 0. -1.
         -2   -1    0    0    0  501 -0.00000000000E+00 -0.00000000000E+00 -0.41578346458E+03  0.41578346458E+03  0.00000000000E+00 0.  1.
         25    2    1    2    0    0  0.10689661776E+02 -0.55963129660E+01 -0.11361323646E+02  0.12618619574E+03  0.12509312024E+03 0.  0.
          5    1    3    3  502    0  0.62280717490E+02  0.12418793013E+02  0.14973332167E+02  0.65381857324E+02  0.41800000000E+01 0. -1.
         -5    1    3    3    0  502 -0.51591055714E+02 -0.18015105979E+02 -0.26334655813E+02  0.60804338413E+02  0.41800000000E+01 0. -1.
        -11    1    1    2    0    0 -0.66122482498E+02 -0.10224416161E+02 -0.25731562148E+03  0.26587224458E+03  0.00000000000E+00 0.  1.
         11    1    1    2    0    0  0.55432820722E+02  0.15820729127E+02 -0.75689543874E+02  0.95141999848E+02  0.00000000000E+00 0. -1.
</event>
<event>
 7    1  0.2626349E-009  0.2474573E+03  0.7561462E-02  0.1114922E+00
          2   -1    0    0  501    0  0.00000000000E+00  0.00000000000E+00  0.14581670218E+04  0.14581670218E+04  0.00000000000E+00 0.  1.
         -2   -1    0    0    0  501 -0.00000000000E+00 -0.00000000000E+00 -0.49237052763E+02  0.49237052763E+02  0.00000000000E+00 0. -1.
         25    2    1    2    0    0 -0.18352351832E+03 -0.15062659776E+03  0.55504404749E+03  0.61651515089E+03  0.12509109838E+03 0.  0.
          5    1    3    3  502    0 -0.32786819319E+02 -0.85443610310E+01  0.21965151146E+03  0.22228864234E+03  0.41800000000E+01 0. -1.
         -5    1    3    3    0  502 -0.15073669900E+03 -0.14208223673E+03  0.33539253602E+03  0.39422650854E+03  0.41800000000E+01 0. -1.
        -11    1    1    2    0    0  0.10968600908E+03  0.14173199804E+03  0.57729001124E+03  0.60446897103E+03  0.00000000000E+00 0.  1.
         11    1    1    2    0    0  0.73837509236E+02  0.88945997187E+01  0.27659591028E+03  0.28641995261E+03  0.00000000000E+00 0. -1.
</event>
<event>
 7    1  0.2626349E-009  0.2275320E+03  0.7561462E-02  0.1128389E+00
          1   -1    0    0  501    0  0.00000000000E+00  0.00000000000E+00  0.13001486367E+03  0.13001486367E+03  0.00000000000E+00 0. -1.
         -1   -1    0    0    0  501 -0.00000000000E+00 -0.00000000000E+00 -0.58864505713E+03  0.58864505713E+03  0.00000000000E+00 0.  1.
         25    2    1    2    0    0  0.16525188584E+03  0.14272525232E+03 -0.65915752681E+02  0.26013627758E+03  0.12508922032E+03 0.  0.
          5    1    3    3  502    0  0.71527868110E+02  0.34862103009E+02  0.33054314067E+02  0.86265069530E+02  0.41800000000E+01 0. -1.
         -5    1    3    3    0  502  0.93724017731E+02  0.10786314931E+03 -0.98970066748E+02  0.17387120806E+03  0.41800000000E+01 0. -1.
        -11    1    1    2    0    0 -0.19874500799E+02 -0.64184492946E+02 -0.77086297560E+02  0.10225919122E+03  0.00000000000E+00 0.  1.
         11    1    1    2    0    0 -0.14537738504E+03 -0.78540759371E+02 -0.31562814322E+03  0.35626445200E+03  0.00000000000E+00 0. -1.
</event>
<event>
 7    1  0.2626349E-009  0.1732266E+03  0.7561462E-02  0.1174524E+00
          1   -1    0    0  501    0  0.00000000000E+00  0.00000000000E+00  0.56996123793E+03  0.56996123793E+03  0.00000000000E+00 0. -1.
         -1   -1    0    0    0  501 -0.00000000000E+00 -0.00000000000E+00 -0.55690064183E+02  0.55690064183E+02  0.00000000000E+00 0.  1.
         25    2    1    2    0    0 -0.48396518303E+02  0.12876405239E+03  0.32452221447E+03  0.37401379640E+03  0.12509695456E+03 0.  0.
          5    1    3    3  502    0  0.15684963403E+02  0.11442929027E+03  0.24430057113E+03  0.27025973063E+03  0.41800000000E+01 0. -1.
         -5    1    3    3    0  502 -0.64081481707E+02  0.14334762123E+02  0.80221643344E+02  0.10375406577E+03  0.41800000000E+01 0. -1.
        -11    1    1    2    0    0 -0.24705427565E+02 -0.59288923985E+02  0.67879784826E+02  0.93451590926E+02  0.00000000000E+00 0.  1.
         11    1    1    2    0    0  0.73101945869E+02 -0.69475128402E+02  0.12186917445E+03  0.15818591479E+03  0.00000000000E+00 0. -1.
</event>
<event>
 7    1  0.2626349E-009  0.1021229E+03  0.7561462E-02  0.1275894E+00
         -3   -1    0    0    0  501 -0.00000000000E+00  0.00000000000E+00  0.57391636910E+02  0.57391636910E+02  0.00000000000E+00 0.  1.
          3   -1    0    0  501    0  0.00000000000E+00 -0.00000000000E+00 -0.33200150047E+03  0.33200150047E+03  0.00000000000E+00 0. -1.
         25    2    1    2    0    0  0.65412885141E+02 -0.16943490993E+01 -0.23067947670E+03  0.27044430182E+03  0.12508150565E+03 0.  0.
          5    1    3    3  502    0 -0.98229405215E+01 -0.18753739632E+02  0.52317577565E+01  0.22204427484E+02  0.41800000000E+01 0.  1.
         -5    1    3    3    0  502  0.75235825662E+02  0.17059390533E+02 -0.23591123446E+03  0.24823987434E+03  0.41800000000E+01 0.  1.
        -11    1    1    2    0    0  0.19955076102E+02  0.18395904988E+01  0.48616118743E+01  0.20620970526E+02  0.00000000000E+00 0.  1.
         11    1    1    2    0    0 -0.85367961243E+02 -0.14524139957E+00 -0.48791998740E+02  0.98327865037E+02  0.00000000000E+00 0. -1.
</event>
<event>
 7    1  0.2652408E-009  0.1338521E+03  0.7561462E-02  0.1221849E+00
         -1   -1    0    0    0  501 -0.00000000000E+00  0.00000000000E+00  0.12022253134E+03  0.12022253134E+03  0.00000000000E+00 0.  1.
          1   -1    0    0  501    0  0.00000000000E+00 -0.00000000000E+00 -0.18934674566E+03  0.18934674566E+03  0.00000000000E+00 0. -1.
         25    2    1    2    0    0 -0.87560962900E+02  0.56966160653E+02 -0.33301017102E+02  0.16633765080E+03  0.12508873111E+03 0.  0.
          5    1    3    3  502    0 -0.11760813453E+03  0.55714383213E+02 -0.37947753993E+02  0.13562179116E+03  0.41800000000E+01 0. -1.
         -5    1    3    3    0  502  0.30047171629E+02  0.12517774392E+01  0.46467368903E+01  0.30715859640E+02  0.41800000000E+01 0. -1.
        -11    1    1    2    0    0  0.66056652634E+02 -0.54218102327E+02  0.16102622677E+02  0.86961936697E+02  0.00000000000E+00 0.  1.
         11    1    1    2    0    0  0.21504310266E+02 -0.27480583261E+01 -0.51925819896E+02  0.56269689500E+02  0.00000000000E+00 0. -1.
</event>
<event>
 7    1  0.2626349E-009  0.1120340E+03  0.7561462E-02  0.1256849E+00
         -1   -1    0    0    0  501 -0.00000000000E+00  0.00000000000E+00  0.96386746950E+02  0.96386746950E+02  0.00000000000E+00 0.  1.
          1   -1    0    0  501    0  0.00000000000E+00 -0.00000000000E+00 -0.16404498445E+03  0.16404498445E+03  0.00000000000E+00 0. -1.
         25    2    1    2    0    0 -0.37162369177E+02 -0.38503461440E+02 -0.28542167344E+01  0.13608415838E+03  0.12508874203E+03 0.  0.
          5    1    3    3  502    0 -0.66243331523E+02 -0.53894745905E+02 -0.32627132126E+02  0.91514068636E+02  0.41800000000E+01 0. -1.
         -5    1    3    3    0  502  0.29080962346E+02  0.15391284465E+02  0.29772915392E+02  0.44570089740E+02  0.41800000000E+01 0. -1.
        -11    1    1    2    0    0  0.48465060778E+02  0.62373686687E+02 -0.54650359643E+02  0.96052072940E+02  0.00000000000E+00 0. -1.
         11    1    1    2    0    0 -0.11302691601E+02 -0.23870225247E+02 -0.10153661122E+02  0.28295500083E+02  0.00000000000E+00 0.  1.
</event>
<event>
 7    1  0.2626349E-009  0.1331508E+03  0.7561462E-02  0.1222854E+00
         -2   -1    0    0    0  501 -0.00000000000E+00  0.00000000000E+00  0.18453389045E+03  0.18453389045E+03  0.00000000000E+00 0.  1.
          2   -1    0    0  501    0  0.00000000000E+00 -0.00000000000E+00 -0.12000766599E+03  0.12000766599E+03  0.00000000000E+00 0. -1.
         25    2    1    2    0    0 -0.39363831565E+02  0.95129195303E+02  0.31204759238E+02  0.16498820233E+03  0.12509314480E+03 0.  0.
          5    1    3    3  502    0  0.27208622829E+02  0.80384990369E+02 -0.94513025493E+01  0.85491843779E+02  0.41800000000E+01 0.  1.
         -5    1    3    3    0  502 -0.66572454394E+02  0.14744204934E+02  0.40656061787E+02  0.79496358553E+02  0.41800000000E+01 0.  1.
        -11    1    1    2    0    0  0.94036942771E+01  0.34285923515E+01  0.35128444851E+02  0.36526597833E+02  0.00000000000E+00 0.  1.
         11    1    1    2    0    0  0.29960137288E+02 -0.98557787654E+02 -0.18069796229E+01  0.10302675628E+03  0.00000000000E+00 0. -1.
</event>
<event>
 7    1  0.2626349E-009  0.1302284E+03  0.7561462E-02  0.1227117E+00
         -2   -1    0    0    0  501 -0.00000000000E+00  0.00000000000E+00  0.68603854130E+02  0.68603854130E+02  0.00000000000E+00 0.  1.
          2   -1    0    0  501    0  0.00000000000E+00 -0.00000000000E+00 -0.61656140331E+03  0.61656140331E+03  0.00000000000E+00 0. -1.
         25    2    1    2    0    0 -0.10361927429E+03  0.50898234970E+02 -0.50320761356E+03  0.53121806204E+03  0.12508853970E+03 0.  0.
          5    1    3    3  502    0 -0.24047358749E+02 -0.13543427899E+02 -0.13692433294E+02  0.31091076398E+02  0.41800000000E+01 0.  1.
         -5    1    3    3    0  502 -0.79571915544E+02  0.64441662869E+02 -0.48951518027E+03  0.50012698564E+03  0.41800000000E+01 0.  1.
        -11    1    1    2    0    0  0.78297653006E+01 -0.31334057555E+02  0.18771758567E+02  0.37356489493E+02  0.00000000000E+00 0.  1.
         11    1    1    2    0    0  0.95789508993E+02 -0.19564177415E+02 -0.63521694180E+02  0.11659070590E+03  0.00000000000E+00 0. -1.
</event>
<event>
 7    1  0.2626349E-009  0.1429597E+03  0.7561462E-02  0.1209401E+00
         -2   -1    0    0    0  501 -0.00000000000E+00  0.00000000000E+00  0.69093188542E+02  0.69093188542E+02  0.00000000000E+00 0.  1.
          2   -1    0    0  501    0  0.00000000000E+00 -0.00000000000E+00 -0.48669364139E+03  0.48669364139E+03  0.00000000000E+00 0. -1.
         25    2    1    2    0    0 -0.22023112270E+02  0.12704951159E+03 -0.32987491134E+03  0.37562276188E+03  0.12509358993E+03 0.  0.
          5    1    3    3  502    0 -0.13188001228E+02  0.53219443970E+02 -0.22599814066E+02  0.59451295938E+02  0.41800000000E+01 0.  1.
         -5    1    3    3    0  502 -0.88351110427E+01  0.73830067617E+02 -0.30727509727E+03  0.31617146594E+03  0.41800000000E+01 0.  1.
        -11    1    1    2    0    0 -0.27477506689E+02 -0.97766813289E+01 -0.24218147844E+02  0.37909306992E+02  0.00000000000E+00 0.  1.
         11    1    1    2    0    0  0.49500618959E+02 -0.11727283026E+03 -0.63507393664E+02  0.14225476106E+03  0.00000000000E+00 0. -1.
</event>
<event>
 7    1  0.2626349E-009  0.1435825E+03  0.7561462E-02  0.1208588E+00
          2   -1    0    0  501    0  0.00000000000E+00  0.00000000000E+00  0.11004088214E+03  0.11004088214E+03  0.00000000000E+00 0.  1.
         -2   -1    0    0    0  501 -0.00000000000E+00 -0.00000000000E+00 -0.20779239188E+03  0.20779239188E+03  0.00000000000E+00 0. -1.
         25    2    1    2    0    0  0.10169012541E+03  0.16103818093E+02 -0.75703959666E+02  0.17883225616E+03  0.12509864816E+03 0.  0.
          5    1    3    3  502    0  0.87755383660E+02 -0.38220891137E+02 -0.76475462684E+02  0.12258797932E+03  0.41800000000E+01 0.  1.
         -5    1    3    3    0  502  0.13934741751E+02  0.54324709230E+02  0.77150301886E+00  0.56244276843E+02  0.41800000000E+01 0.  1.
        -11    1    1    2    0    0 -0.11786822049E+03 -0.15916674777E+02 -0.27223946521E+02  0.12201393855E+03  0.00000000000E+00 0. -1.
         11    1    1    2    0    0  0.16178095078E+02 -0.18714331655E+00  0.51763964510E+01  0.16987079301E+02  0.00000000000E+00 0.  1.
</event>
<event>
 7    1  0.2626349E-009  0.1308770E+03  0.7561462E-02  0.1226160E+00
         -1   -1    0    0    0  501 -0.00000000000E+00  0.00000000000E+00  0.66848671823E+03  0.66848671823E+03  0.00000000000E+00 0.  1.
          1   -1    0    0  501    0  0.00000000000E+00 -0.00000000000E+00 -0.36967499933E+02  0.36967499933E+02  0.00000000000E+00 0. -1.
         25    2    1    2    0    0 -0.87092885619E+02  0.56594329521E+02  0.44596801436E+03  0.47468103508E+03  0.12508607584E+03 0.  0.
          5    1    3    3  502    0  0.95128252068E+01 -0.11276003754E+02  0.22404672094E+01  0.15496263982E+02  0.41800000000E+01 0. -1.
         -5    1    3    3    0  502 -0.96605710825E+02  0.67870333275E+02  0.44372754716E+03  0.45918477110E+03  0.41800000000E+01 0. -1.
        -11    1    1    2    0    0  0.79669496232E+02 -0.90722462357E+01  0.15286743965E+03  0.17262093844E+03  0.00000000000E+00 0.  1.
         11    1    1    2    0    0  0.74233893863E+01 -0.47522083285E+02  0.32683764277E+02  0.58152244644E+02  0.00000000000E+00 0. -1.
</event>
<event>
 7    1  0.2626349E-009  0.1052842E+03  0.7561462E-02  0.1269561E+00
         -1   -1    0    0    0  501 -0.00000000000E+00  0.00000000000E+00  0.86339208502E+02  0.86339208502E+02  0.00000000000E+00 0.  1.
          1   -1    0    0  501    0  0.00000000000E+00 -0.00000000000E+00 -0.28213656127E+03  0.28213656127E+03  0.00000000000E+00 0. -1.
         25    2    1    2    0    0 -0.79399276513E+02 -0.61855397615E+02 -0.72853070868E+02  0.17631103934E+03  0.12509067644E+03 0.  0.
          5    1    3    3  502    0 -0.16775813242E+02 -0.26298180389E+02 -0.95621722839E+02  0.10066781253E+03  0.41800000000E+01 0.  1.
         -5    1    3    3    0  502 -0.62623463271E+02 -0.35557217227E+02  0.22768651971E+02  0.75643226805E+02  0.41800000000E+01 0.  1.
        -11    1    1    2    0    0  0.86580653976E+00  0.15993571323E+02  0.18208914933E+02  0.24250949005E+02  0.00000000000E+00 0.  1.
         11    1    1    2    0    0  0.78533469973E+02  0.45861826292E+02 -0.14115319683E+03  0.16791378143E+03  0.00000000000E+00 0. -1.
</event>
<event>
 7    1  0.2626349E-009  0.1047347E+03  0.7561462E-02  0.1270643E+00
         -2   -1    0    0    0  501 -0.00000000000E+00  0.00000000000E+00  0.55175517126E+02  0.55175517126E+02  0.00000000000E+00 0.  1.
          2   -1    0    0  501    0  0.00000000000E+00 -0.00000000000E+00 -0.33711208829E+03  0.33711208829E+03  0.00000000000E+00 0. -1.
         25    2    1    2    0    0  0.48625000733E+02 -0.15000142211E+02 -0.61900358399E+02  0.14855741329E+03  0.12509298826E+03 0.  0.
          5    1    3    3  502    0 -0.80090254309E+01 -0.54430531377E+02  0.86379796096E+00  0.55181933468E+02  0.41800000000E+01 0.  1.
         -5    1    3    3    0  502  0.56634026164E+02  0.39430389166E+02 -0.62764156359E+02  0.93375479827E+02  0.41800000000E+01 0.  1.
        -11    1    1    2    0    0 -0.65951212670E+02  0.15790034026E+02 -0.21533368407E+03  0.22575979076E+03  0.00000000000E+00 0. -1.
         11    1    1    2    0    0  0.17326211936E+02 -0.78989181488E+00 -0.47025286963E+01  0.17970401367E+02  0.00000000000E+00 0.  1.
</event>
<event>
 7    1  0.2626349E-009  0.8420028E+02  0.7561462E-02  0.1317537E+00
         -2   -1    0    0    0  501 -0.00000000000E+00  0.00000000000E+00  0.32373432780E+03  0.32373432780E+03  0.00000000000E+00 0.  1.
          2   -1    0    0  501    0  0.00000000000E+00 -0.00000000000E+00 -0.43044882844E+02  0.43044882844E+02  0.00000000000E+00 0. -1.
         25    2    1    2    0    0  0.30674750525E+02  0.37695498257E+02  0.15427630869E+03  0.20447650700E+03  0.12509025375E+03 0.  0.
          5    1    3    3  502    0 -0.94789548745E+01  0.38372730016E+02 -0.50934622276E+01  0.40071595325E+02  0.41800000000E+01 0. -1.
         -5    1    3    3    0  502  0.40153705400E+02 -0.67723175882E+00  0.15936977092E+03  0.16440491168E+03  0.41800000000E+01 0. -1.
        -11    1    1    2    0    0 -0.16938304885E+01 -0.54666865770E+02  0.11410165232E+03  0.12653269276E+03  0.00000000000E+00 0.  1.
         11    1    1    2    0    0 -0.28980920037E+02  0.16971367513E+02  0.12311483939E+02  0.35770010878E+02  0.00000000000E+00 0. -1.
</event>
<event>
 7    1  0.2626349E-009  0.1176663E+03  0.7561462E-02  0.1246997E+00
         -1   -1    0    0    0  501 -0.00000000000E+00  0.00000000000E+00  0.11969605979E+03  0.11969605979E+03  0.00000000000E+00 0.  1.
          1   -1    0    0  501    0  0.00000000000E+00 -0.00000000000E+00 -0.14523704522E+03  0.14523704522E+03  0.00000000000E+00 0. -1.
         25    2    1    2    0    0  0.70485058466E+02  0.23489860766E+02 -0.54607826043E+01  0.14559246127E+03  0.12508967826E+03 0.  0.
          5    1    3    3  502    0  0.62193590219E+02 -0.44662834684E+02 -0.15402748330E+01  0.76698476601E+02  0.41800000000E+01 0. -1.
         -5    1    3    3    0  502  0.82914682473E+01  0.68152695451E+02 -0.39205077714E+01  0.68893984673E+02  0.41800000000E+01 0. -1.
        -11    1    1    2    0    0 -0.30076386978E+02  0.15395357644E+02  0.29221348758E+02  0.44670944851E+02  0.00000000000E+00 0.  1.
         11    1    1    2    0    0 -0.40408671488E+02 -0.38885218411E+02 -0.49301551590E+02  0.74669698884E+02  0.00000000000E+00 0. -1.
</event>
<event>
 7    1  0.2626349E-009  0.1284059E+03  0.7561462E-02  0.1229840E+00
          1   -1    0    0  501    0  0.00000000000E+00  0.00000000000E+00  0.86047999481E+02  0.86047999481E+02  0.00000000000E+00 0. -1.
         -1   -1    0    0    0  501 -0.00000000000E+00 -0.00000000000E+00 -0.26831557923E+03  0.26831557923E+03  0.00000000000E+00 0.  1.
         25    2    1    2    0    0 -0.85218172532E+02 -0.60902621459E+02 -0.11030809399E+03  0.19694237544E+03  0.12508859826E+03 0.  0.
          5    1    3    3  502    0 -0.92466865691E+02 -0.53485712581E+02 -0.23549756832E+02  0.10946646129E+03  0.41800000000E+01 0.  1.
         -5    1    3    3    0  502  0.72486931585E+01 -0.74169088778E+01 -0.86758337156E+02  0.87475914147E+02  0.41800000000E+01 0.  1.
        -11    1    1    2    0    0  0.88195088680E+02  0.11163341416E+02 -0.56143054579E+02  0.10514293336E+03  0.00000000000E+00 0.  1.
         11    1    1    2    0    0 -0.29769161477E+01  0.49739280043E+02 -0.15816431179E+02  0.52278269905E+02  0.00000000000E+00 0. -1.
</event>
<event>
 7    1  0.2626349E-009  0.5225477E+02  0.7561462E-02  0.1433546E+00
         -2   -1    0    0    0  501 -0.00000000000E+00  0.00000000000E+00  0.43116236178E+02  0.43116236178E+02  0.00000000000E+00 0.  1.
          2   -1    0    0  501    0  0.00000000000E+00 -0.00000000000E+00 -0.23763671720E+03  0.23763671720E+03  0.00000000000E+00 0. -1.
         25    2    1    2    0    0 -0.68317673767E+01  0.16269583012E+02 -0.10700197373E+03  0.16555423659E+03  0.12508960986E+03 0.  0.
          5    1    3    3  502    0 -0.34463532134E+02  0.21264596721E+01 -0.12478175438E+03  0.12953847114E+03  0.41800000000E+01 0. -1.
         -5    1    3    3    0  502  0.27631764758E+02  0.14143123340E+02  0.17779780652E+02  0.36015765457E+02  0.41800000000E+01 0. -1.
        -11    1    1    2    0    0 -0.13328484385E+02 -0.11700810001E+02  0.65342057333E+01  0.18901145342E+02  0.00000000000E+00 0.  1.
         11    1    1    2    0    0  0.20160251762E+02 -0.45687730112E+01 -0.94052713025E+02  0.96297571440E+02  0.00000000000E+00 0. -1.
</event>
<event>
 7    1  0.2626349E-009  0.1345722E+03  0.7561462E-02  0.1220825E+00
         -2   -1    0    0    0  501 -0.00000000000E+00  0.00000000000E+00  0.22862452239E+03  0.22862452239E+03  0.00000000000E+00 0.  1.
          2   -1    0    0  501    0  0.00000000000E+00 -0.00000000000E+00 -0.12216046400E+03  0.12216046400E+03  0.00000000000E+00 0. -1.
         25    2    1    2    0    0  0.44735298891E+02 -0.66380394245E+02 -0.46336351794E+02  0.15557239014E+03  0.12509239533E+03 0.  0.
          5    1    3    3  502    0 -0.42293295219E+02 -0.89476673733E+01 -0.67064041463E+01  0.43945782829E+02  0.41800000000E+01 0. -1.
         -5    1    3    3    0  502  0.87028594110E+02 -0.57432726872E+02 -0.39629947647E+02  0.11162660731E+03  0.41800000000E+01 0. -1.
        -11    1    1    2    0    0 -0.41624988626E+02  0.89143950909E+02  0.12019911284E+03  0.15532903911E+03  0.00000000000E+00 0. -1.
         11    1    1    2    0    0 -0.31103102654E+01 -0.22763556663E+02  0.32601297346E+02  0.39883557145E+02  0.00000000000E+00 0.  1.
</event>
<event>
 7    1  0.2626349E-009  0.1346112E+03  0.7561462E-02  0.1220770E+00
         -2   -1    0    0    0  501 -0.00000000000E+00  0.00000000000E+00  0.17430297641E+03  0.17430297641E+03  0.00000000000E+00 0.  1.
          2   -1    0    0  501    0  0.00000000000E+00 -0.00000000000E+00 -0.14549529953E+03  0.14549529953E+03  0.00000000000E+00 0. -1.
         25    2    1    2    0    0  0.80841753649E+02 -0.42927601463E+02 -0.59642989174E+02  0.16607851944E+03  0.12508645156E+03 0.  0.
          5    1    3    3  502    0  0.96931491981E+02 -0.69526412794E+02 -0.62223174335E+02  0.13460621099E+03  0.41800000000E+01 0.  1.
         -5    1    3    3    0  502 -0.16089738331E+02  0.26598811331E+02  0.25801851614E+01  0.31472308451E+02  0.41800000000E+01 0.  1.
        -11    1    1    2    0    0 -0.54593667660E+02 -0.13520087528E+02  0.16577094341E+02  0.58634984200E+02  0.00000000000E+00 0. -1.
         11    1    1    2    0    0 -0.26248085989E+02  0.56447688991E+02  0.71873571719E+02  0.95084772294E+02  0.00000000000E+00 0.  1.
</event>
<event>
 7    1  0.2626349E-009  0.1354726E+03  0.7561462E-02  0.1219554E+00
          1   -1    0    0  501    0  0.00000000000E+00  0.00000000000E+00  0.54755598443E+03  0.54755598443E+03  0.00000000000E+00 0. -1.
         -1   -1    0    0    0  501 -0.00000000000E+00 -0.00000000000E+00 -0.42602789069E+02  0.42602789069E+02  0.00000000000E+00 0.  1.
         25    2    1    2    0    0  0.80764036982E+02 -0.60599490905E+02  0.20024080122E+03  0.25678580884E+03  0.12508974850E+03 0.  0.
          5    1    3    3  502    0 -0.23125523064E+02 -0.26821343782E+02  0.10804239101E+03  0.11377523876E+03  0.41800000000E+01 0.  1.
         -5    1    3    3    0  502  0.10388956005E+03 -0.33778147123E+02  0.92198410208E+02  0.14301057008E+03  0.41800000000E+01 0.  1.
        -11    1    1    2    0    0 -0.34080324353E+00  0.43802306802E+02  0.53944578855E+02  0.69489393550E+02  0.00000000000E+00 0.  1.
         11    1    1    2    0    0 -0.80423233739E+02  0.16797184102E+02  0.25076781528E+03  0.26388357110E+03  0.00000000000E+00 0. -1.
</event>
<event>
 7    1  0.2626349E-009  0.1085437E+03  0.7561462E-02  0.1263291E+00
          3   -1    0    0  501    0  0.00000000000E+00  0.00000000000E+00  0.27780736540E+02  0.27780736540E+02  0.00000000000E+00 0. -1.
         -3   -1    0    0    0  501 -0.00000000000E+00 -0.00000000000E+00 -0.91603832728E+03  0.91603832728E+03  0.00000000000E+00 0.  1.
         25    2    1    2    0    0  0.78072396687E+02 -0.46367275734E+02 -0.69594389105E+03  0.71290209181E+03  0.12508504960E+03 0.  0.
          5    1    3    3  502    0  0.62901323156E+02 -0.55389786645E+02 -0.20348945725E+03  0.22011369001E+03  0.41800000000E+01 0. -1.
         -5    1    3    3    0  502  0.15171073531E+02  0.90225109110E+01 -0.49245443380E+03  0.49278840180E+03  0.41800000000E+01 0. -1.
        -11    1    1    2    0    0  0.49066126081E+01 -0.12409302424E+02  0.34222466580E-01  0.13344167457E+02  0.00000000000E+00 0. -1.
         11    1    1    2    0    0 -0.82979009295E+02  0.58776578158E+02 -0.19234792216E+03  0.21757280456E+03  0.00000000000E+00 0.  1.
</event>
<event>
 7    1  0.2626349E-009  0.2349677E+03  0.7561462E-02  0.1123191E+00
         -1   -1    0    0    0  501 -0.00000000000E+00  0.00000000000E+00  0.24704071515E+03  0.24704071515E+03  0.00000000000E+00 0.  1.
          1   -1    0    0  501    0  0.00000000000E+00 -0.00000000000E+00 -0.26509927503E+03  0.26509927503E+03  0.00000000000E+00 0. -1.
         25    2    1    2    0    0  0.12564700584E+02  0.22248066226E+03 -0.74568232914E+02  0.26620265579E+03  0.12509162965E+03 0.  0.
          5    1    3    3  502    0  0.41641062933E+02  0.18301299165E+03 -0.97923580552E+02  0.21174095793E+03  0.41800000000E+01 0.  1.
         -5    1    3    3    0  502 -0.29076362350E+02  0.39467670608E+02  0.23355347637E+02  0.54461697862E+02  0.41800000000E+01 0.  1.
        -11    1    1    2    0    0  0.24850702751E+02 -0.43043442461E+02  0.36265420888E+02  0.61526223013E+02  0.00000000000E+00 0. -1.
         11    1    1    2    0    0 -0.37415403334E+02 -0.17943721980E+03  0.20244252141E+02  0.18441111138E+03  0.00000000000E+00 0.  1.
</event>
<event>
 7    1  0.2626349E-009  0.9749811E+02  0.7561462E-02  0.1285647E+00
         -2   -1    0    0    0  501 -0.00000000000E+00  0.00000000000E+00  0.31099018289E+02  0.31099018289E+02  0.00000000000E+00 0.  1.
          2   -1    0    0  501    0  0.00000000000E+00 -0.00000000000E+00 -0.55782037167E+03  0.55782037167E+03  0.00000000000E+00 0. -1.
         25    2    1    2    0    0 -0.26491927368E+02 -0.20735764949E+02 -0.44025637363E+03  0.45891743111E+03  0.12509092649E+03 0.  0.
          5    1    3    3  502    0  0.15706814498E+02 -0.52262003906E+02 -0.94976071729E+02  0.10961727818E+03  0.41800000000E+01 0.  1.
         -5    1    3    3    0  502 -0.42198741866E+02  0.31526238956E+02 -0.34528030190E+03  0.34930015294E+03  0.41800000000E+01 0.  1.
        -11    1    1    2    0    0 -0.11634637110E+00  0.48771927708E+02 -0.75395839056E+02  0.89795584611E+02  0.00000000000E+00 0. -1.
         11    1    1    2    0    0  0.26608273739E+02 -0.28036162758E+02 -0.11069140694E+02  0.40206374237E+02  0.00000000000E+00 0.  1.
</event>
<event>
 7    1  0.2626349E-009  0.1046509E+03  0.7561462E-02  0.1270809E+00
          1   -1    0    0  501    0  0.00000000000E+00  0.00000000000E+00  0.97897910241E+02  0.97897910241E+02  0.00000000000E+00 0. -1.
         -1   -1    0    0    0  501 -0.00000000000E+00 -0.00000000000E+00 -0.16142226798E+03  0.16142226798E+03  0.00000000000E+00 0.  1.
         25    2    1    2    0    0 -0.18442345036E+02 -0.74666627650E+01  0.26944389661E+02  0.12949642382E+03  0.12508977778E+03 0.  0.
          5    1    3    3  502    0 -0.16341188101E+02  0.55626185968E+02  0.31413712431E+02  0.66072692715E+02  0.41800000000E+01 0. -1.
         -5    1    3    3    0  502 -0.21011569359E+01 -0.63092848733E+02 -0.44693227705E+01  0.63423731109E+02  0.41800000000E+01 0. -1.
        -11    1    1    2    0    0  0.46036808033E+02 -0.18878437336E+02 -0.71784368644E+02  0.87342879914E+02  0.00000000000E+00 0.  1.
         11    1    1    2    0    0 -0.27594462996E+02  0.26345100101E+02 -0.18684378757E+02  0.42480874484E+02  0.00000000000E+00 0. -1.
</event>
<event>
 7    1  0.2626349E-009  0.1664962E+03  0.7561462E-02  0.1181552E+00
          2   -1    0    0  501    0  0.00000000000E+00  0.00000000000E+00  0.35906501037E+03  0.35906501037E+03  0.00000000000E+00 0.  1.
         -2   -1    0    0    0  501 -0.00000000000E+00 -0.00000000000E+00 -0.11555586811E+03  0.11555586811E+03  0.00000000000E+00 0. -1.
         25    2    1    2    0    0 -0.61229217374E+00  0.16110181757E+03  0.19342298869E+03  0.28109497344E+03  0.12509101091E+03 0.  0.
          5    1    3    3  502    0  0.33857800312E+01  0.15882502836E+03  0.21002231891E+03  0.26336989194E+03  0.41800000000E+01 0. -1.
         -5    1    3    3    0  502 -0.39980722049E+01  0.22767892145E+01 -0.16599330217E+02  0.17725081499E+02  0.41800000000E+01 0. -1.
        -11    1    1    2    0    0  0.13434599196E+02 -0.15083985712E+03  0.11835668332E+02  0.15189876233E+03  0.00000000000E+00 0.  1.
         11    1    1    2    0    0 -0.12822307022E+02 -0.10261960451E+02  0.38250485238E+02  0.41627142715E+02  0.00000000000E+00 0. -1.
</event>
<event>
 7    1  0.2626349E-009  0.1315506E+03  0.7561462E-02  0.1225173E+00
         -1   -1    0    0    0  501 -0.00000000000E+00  0.00000000000E+00  0.22630455715E+02  0.22630455715E+02  0.00000000000E+00 0.  1.
          1   -1    0    0  501    0  0.00000000000E+00 -0.00000000000E+00 -0.11179467967E+04  0.11179467967E+04  0.00000000000E+00 0. -1.
         25    2    1    2    0    0 -0.10504710723E+03 -0.36042163429E+02 -0.47135448049E+03  0.50015562582E+03  0.12508665589E+03 0.  0.
          5    1    3    3  502    0 -0.45880792041E+02 -0.48469249417E+02 -0.80596214441E+02  0.10472601109E+03  0.41800000000E+01 0. -1.
         -5    1    3    3    0  502 -0.59166315190E+02  0.12427085988E+02 -0.39075826605E+03  0.39542961473E+03  0.41800000000E+01 0. -1.
        -11    1    1    2    0    0  0.54049173313E+01  0.35576683464E+02 -0.84637475263E+02  0.91969645844E+02  0.00000000000E+00 0.  1.
         11    1    1    2    0    0  0.99642189900E+02  0.46547996496E+00 -0.53932438521E+03  0.54845198072E+03  0.00000000000E+00 0. -1.
</event>
<event>
 7    1  0.2626349E-009  0.1171337E+03  0.7561462E-02  0.1247902E+00
          1   -1    0    0  501    0  0.00000000000E+00  0.00000000000E+00  0.20207783862E+03  0.20207783862E+03  0.00000000000E+00 0. -1.
         -1   -1    0    0    0  501 -0.00000000000E+00 -0.00000000000E+00 -0.75576380997E+02  0.75576380997E+02  0.00000000000E+00 0.  1.
         25    2    1    2    0    0  0.56805875893E+02 -0.51205596915E+02  0.10417428906E+03  0.17985020584E+03  0.12507954807E+03 0.  0.
          5    1    3    3  502    0 -0.22638073696E+02  0.21521879051E+02  0.50280400867E+02  0.59340245785E+02  0.41800000000E+01 0. -1.
         -5    1    3    3    0  502  0.79443949590E+02 -0.72727475965E+02  0.53893888194E+02  0.12050996005E+03  0.41800000000E+01 0. -1.
        -11    1    1    2    0    0 -0.42580057131E+02  0.79603364470E+00  0.64575930886E+01  0.43074301426E+02  0.00000000000E+00 0. -1.
         11    1    1    2    0    0 -0.14225818762E+02  0.50409563270E+02  0.15869575470E+02  0.54729712352E+02  0.00000000000E+00 0.  1.
</event>
<event>
 7    1  0.2626349E-009  0.1317392E+03  0.7561462E-02  0.1224898E+00
          4   -1    0    0  501    0  0.00000000000E+00  0.00000000000E+00  0.36951986742E+03  0.36951986742E+03  0.00000000000E+00 0. -1.
         -4   -1    0    0    0  501 -0.00000000000E+00 -0.00000000000E+00 -0.84559384808E+02  0.84559384808E+02  0.00000000000E+00 0.  1.
         25    2    1    2    0    0 -0.95133437833E+02  0.46670560608E+02  0.26722685494E+03  0.31350662701E+03  0.12509077087E+03 0.  0.
          5    1    3    3  502    0  0.44236644512E+01  0.39876800298E+02  0.16433660954E+02  0.43557612671E+02  0.41800000000E+01 0. -1.
         -5    1    3    3    0  502 -0.99557102285E+02  0.67937603101E+01  0.25079319399E+03  0.26994901434E+03  0.41800000000E+01 0. -1.
        -11    1    1    2    0    0  0.91865829711E+02 -0.17014617811E+02  0.41691739543E+02  0.10230849932E+03  0.00000000000E+00 0.  1.
         11    1    1    2    0    0  0.32676081220E+01 -0.29655942798E+02 -0.23958111870E+02  0.38264125894E+02  0.00000000000E+00 0. -1.
</event>
<event>
 7    1  0.2626349E-009  0.1058069E+03  0.7561462E-02  0.1268538E+00
         -2   -1    0    0    0  501 -0.00000000000E+00  0.00000000000E+00  0.13847199632E+03  0.13847199632E+03  0.00000000000E+00 0.  1.
          2   -1    0    0  501    0  0.00000000000E+00 -0.00000000000E+00 -0.10020948143E+03  0.10020948143E+03  0.00000000000E+00 0. -1.
         25    2    1    2    0    0 -0.20557581446E+02  0.42052614769E+02  0.46009069571E+02  0.14126458920E+03  0.12509121917E+03 0.  0.
          5    1    3    3  502    0 -0.68219846051E+02  0.14909069251E+02  0.50190266132E+02  0.86097403884E+02  0.41800000000E+01 0. -1.
         -5    1    3    3    0  502  0.47662264605E+02  0.27143545519E+02 -0.41811965614E+01  0.55167185312E+02  0.41800000000E+01 0. -1.
        -11    1    1    2    0    0 -0.22980895084E+02 -0.35976482282E+02  0.18158636892E+02  0.46391431429E+02  0.00000000000E+00 0.  1.
         11    1    1    2    0    0  0.43538476530E+02 -0.60761324876E+01 -0.25905191567E+02  0.51025457123E+02  0.00000000000E+00 0. -1.
</event>
<event>
 7    1  0.2626349E-009  0.8231523E+02  0.7561462E-02  0.1322607E+00
          2   -1    0    0  501    0  0.00000000000E+00  0.00000000000E+00  0.69257493437E+02  0.69257493437E+02  0.00000000000E+00 0. -1.
         -2   -1    0    0    0  501 -0.00000000000E+00 -0.00000000000E+00 -0.22363015489E+03  0.22363015489E+03  0.00000000000E+00 0.  1.
         25    2    1    2    0    0 -0.32169506402E+01 -0.43404479461E+02 -0.41047138696E+02  0.13865958437E+03  0.12508922869E+03 0.  0.
          5    1    3    3  502    0  0.17727978140E+02 -0.69190482474E+01 -0.79291927704E+02  0.81650698935E+02  0.41800000000E+01 0.  1.
         -5    1    3    3    0  502 -0.20944928781E+02 -0.36485431213E+02  0.38244789008E+02  0.57008885436E+02  0.41800000000E+01 0.  1.
        -11    1    1    2    0    0  0.15379637289E+02  0.71034753846E+02 -0.66487657556E+02  0.98504203486E+02  0.00000000000E+00 0.  1.
         11    1    1    2    0    0 -0.12162686649E+02 -0.27630274385E+02 -0.46837865203E+02  0.55723860472E+02  0.00000000000E+00 0. -1.
</event>
<event>
 7    1  0.2964364E-009  0.1267281E+03  0.7561462E-02  0.1232393E+00
         -2   -1    0    0    0  501 -0.00000000000E+00  0.00000000000E+00  0.20500926672E+03  0.20500926672E+03  0.00000000000E+00 0.  1.
          2   -1    0    0  501    0  0.00000000000E+00 -0.00000000000E+00 -0.10454456265E+03  0.10454456265E+03  0.00000000000E+00 0. -1.
         25    2    1    2    0    0 -0.82329763298E+02  0.51035686030E+02  0.71209020568E+02  0.17349731242E+03  0.12509101340E+03 0.  0.
          5    1    3    3  502    0  0.11960358694E+02  0.49435732786E+02  0.59483779670E+02  0.78375597605E+02  0.41800000000E+01 0. -1.
         -5    1    3    3    0  502 -0.94290121992E+02  0.15999532435E+01  0.11725240898E+02  0.95121714817E+02  0.41800000000E+01 0. -1.
        -11    1    1    2    0    0  0.68288436290E+02 -0.15794930625E+02  0.55938925091E+02  0.89676940764E+02  0.00000000000E+00 0.  1.
         11    1    1    2    0    0  0.14041327007E+02 -0.35240755405E+02 -0.26683241588E+02  0.46379576187E+02  0.00000000000E+00 0. -1.
</event>
<event>
 7    1  0.2626349E-009  0.1304252E+03  0.7561462E-02  0.1226826E+00
          2   -1    0    0  501    0  0.00000000000E+00  0.00000000000E+00  0.27532555462E+02  0.27532555462E+02  0.00000000000E+00 0. -1.
         -2   -1    0    0    0  501 -0.00000000000E+00 -0.00000000000E+00 -0.68328977910E+03  0.68328977910E+03  0.00000000000E+00 0.  1.
         25    2    1    2    0    0  0.25761263766E+02 -0.71478248504E+02 -0.45453724414E+03  0.47751831472E+03  0.12508737693E+03 0.  0.
          5    1    3    3  502    0 -0.33931908038E+02 -0.78883916029E+02 -0.27511478606E+03  0.28823543242E+03  0.41800000000E+01 0.  1.
         -5    1    3    3    0  502  0.59693171804E+02  0.74056675245E+01 -0.17942245808E+03  0.18928288231E+03  0.41800000000E+01 0.  1.
        -11    1    1    2    0    0 -0.57335761562E+02  0.52503827609E+02 -0.16085345571E+03  0.17865574629E+03  0.00000000000E+00 0.  1.
         11    1    1    2    0    0  0.31574497796E+02  0.18974420895E+02 -0.40366523785E+02  0.54648273548E+02  0.00000000000E+00 0. -1.
</event>
<event>
 7    1  0.2626349E-009  0.1079446E+03  0.7561462E-02  0.1264424E+00
          1   -1    0    0  501    0  0.00000000000E+00  0.00000000000E+00  0.75447822875E+02  0.75447822875E+02  0.00000000000E+00 0. -1.
         -1   -1    0    0    0  501 -0.00000000000E+00 -0.00000000000E+00 -0.17842087811E+03  0.17842087811E+03  0.00000000000E+00 0.  1.
         25    2    1    2    0    0  0.25330925282E+02 -0.25821212288E+02 -0.94913012050E+02  0.16114181270E+03  0.12509921329E+03 0.  0.
          5    1    3    3  502    0  0.15225819669E+02 -0.73596158842E+02 -0.33022848957E+02  0.82196113863E+02  0.41800000000E+01 0. -1.
         -5    1    3    3    0  502  0.10105105613E+02  0.47774946554E+02 -0.61890163093E+02  0.78945698840E+02  0.41800000000E+01 0. -1.
        -11    1    1    2    0    0 -0.45697942232E+02  0.44636154196E+02 -0.10357132273E+00  0.63880348408E+02  0.00000000000E+00 0. -1.
         11    1    1    2    0    0  0.20367016951E+02 -0.18814941908E+02 -0.79564718661E+01  0.28846539879E+02  0.00000000000E+00 0.  1.
</event>
<event>
 7    1  0.2626349E-009  0.1795894E+03  0.7561462E-02  0.1168201E+00
         -2   -1    0    0    0  501 -0.00000000000E+00  0.00000000000E+00  0.21108702401E+03  0.21108702401E+03  0.00000000000E+00 0. -1.
          2   -1    0    0  501    0  0.00000000000E+00 -0.00000000000E+00 -0.21051269320E+03  0.21051269320E+03  0.00000000000E+00 0.  1.
         25    2    1    2    0    0  0.48048942669E+02 -0.14972873913E+03 -0.87706507958E+02  0.21924207971E+03  0.12508901536E+03 0.  0.
          5    1    3    3  502    0  0.13770381574E+02  0.19291188419E+02 -0.27457119299E+02  0.36512178235E+02  0.41800000000E+01 0.  1.
         -5    1    3    3    0  502  0.34278561095E+02 -0.16901992754E+03 -0.60249388659E+02  0.18272990147E+03  0.41800000000E+01 0.  1.
        -11    1    1    2    0    0 -0.23480350128E+02  0.20854084241E+02  0.60629110291E+02  0.68279635956E+02  0.00000000000E+00 0. -1.
         11    1    1    2    0    0 -0.24568592541E+02  0.12887465488E+03  0.27651728472E+02  0.13407800155E+03  0.00000000000E+00 0.  1.
</event>
<event>
 7    1  0.2626349E-009  0.9762913E+02  0.7561462E-02  0.1285362E+00
         -2   -1    0    0    0  501 -0.00000000000E+00  0.00000000000E+00  0.97984886731E+02  0.97984886731E+02  0.00000000000E+00 0.  1.
          2   -1    0    0  501    0  0.00000000000E+00 -0.00000000000E+00 -0.26284049675E+03  0.26284049675E+03  0.00000000000E+00 0. -1.
         25    2    1    2    0    0 -0.20095958401E+01 -0.36226801901E+02 -0.21511551663E+03  0.25147204817E+03  0.12508831226E+03 0.  0.
          5    1    3    3  502    0  0.41409933452E+01 -0.67750445573E+02 -0.53181927587E+02  0.86331109821E+02  0.41800000000E+01 0. -1.
         -5    1    3    3    0  502 -0.61505891852E+01  0.31523643671E+02 -0.16193358905E+03  0.16514093835E+03  0.41800000000E+01 0. -1.
        -11    1    1    2    0    0 -0.42430674984E+02  0.11297610788E+02  0.11665840366E+02  0.45432257490E+02  0.00000000000E+00 0.  1.
         11    1    1    2    0    0  0.44440270824E+02  0.24929191113E+02  0.38594066247E+02  0.63921077822E+02  0.00000000000E+00 0. -1.
</event>
<event>
 7    1  0.2626349E-009  0.8733021E+02  0.7561462E-02  0.1309449E+00
         -2   -1    0    0    0  501 -0.00000000000E+00  0.00000000000E+00  0.23087266700E+03  0.23087266700E+03  0.00000000000E+00 0.  1.
          2   -1    0    0  501    0  0.00000000000E+00 -0.00000000000E+00 -0.75171125256E+02  0.75171125256E+02  0.00000000000E+00 0. -1.
         25    2    1    2    0    0  0.18776227338E+02  0.47107810406E+02  0.26173890580E+02  0.13749357965E+03  0.12509084452E+03 0.  0.
          5    1    3    3  502    0  0.27079033684E+02 -0.23246608144E+01 -0.43559326211E+02  0.51512769418E+02  0.41800000000E+01 0.  1.
         -5    1    3    3    0  502 -0.83028063461E+01  0.49432471220E+02  0.69733216791E+02  0.85980810232E+02  0.41800000000E+01 0.  1.
        -11    1    1    2    0    0  0.22126823097E-01  0.23650503938E+02  0.70948166681E+02  0.74786290064E+02  0.00000000000E+00 0.  1.
         11    1    1    2    0    0 -0.18798354161E+02 -0.70758314345E+02  0.58579484483E+02  0.93763922541E+02  0.00000000000E+00 0. -1.
</event>
<event>
 7    1  0.2626349E-009  0.9299201E+02  0.7561462E-02  0.1295764E+00
          2   -1    0    0  501    0  0.00000000000E+00  0.00000000000E+00  0.11814409281E+03  0.11814409281E+03  0.00000000000E+00 0. -1.
         -2   -1    0    0    0  501 -0.00000000000E+00 -0.00000000000E+00 -0.12499009267E+03  0.12499009267E+03  0.00000000000E+00 0.  1.
         25    2    1    2    0    0 -0.39409938859E+02 -0.33013702613E+02  0.14014393614E+02  0.13596833789E+03  0.12509171770E+03 0.  0.
          5    1    3    3  502    0 -0.83148396077E+02 -0.18483087165E+02 -0.61204386096E+01  0.85499780410E+02  0.41800000000E+01 0.  1.
         -5    1    3    3    0  502  0.43738457218E+02 -0.14530615448E+02  0.20134832223E+02  0.50468557476E+02  0.41800000000E+01 0.  1.
        -11    1    1    2    0    0  0.22563786287E+01  0.11023200046E+02  0.34886249157E+02  0.36655866707E+02  0.00000000000E+00 0. -1.
         11    1    1    2    0    0  0.37153560230E+02  0.21990502567E+02 -0.55746642623E+02  0.70509980887E+02  0.00000000000E+00 0.  1.
</event>
<event>
 7    1  0.2626349E-009  0.8442958E+02  0.7561462E-02  0.1316931E+00
         -4   -1    0    0    0  501 -0.00000000000E+00  0.00000000000E+00  0.16267019940E+02  0.16267019940E+02  0.00000000000E+00 0. -1.
          4   -1    0    0  501    0  0.00000000000E+00 -0.00000000000E+00 -0.11523490961E+04  0.11523490961E+04  0.00000000000E+00 0.  1.
         25    2    1    2    0    0 -0.16534906044E+02  0.51849806201E+02 -0.89183902291E+03  0.90221164141E+03  0.12508875884E+03 0.  0.
          5    1    3    3  502    0 -0.22925183036E+02  0.20282402343E+02 -0.84296236800E+03  0.84352828413E+03  0.41800000000E+01 0.  1.
         -5    1    3    3    0  502  0.63902769929E+01  0.31567403858E+02 -0.48876654905E+02  0.58683357275E+02  0.41800000000E+01 0.  1.
        -11    1    1    2    0    0  0.31411585970E+02 -0.73091110935E+02 -0.19802973490E+03  0.21341221647E+03  0.00000000000E+00 0. -1.
         11    1    1    2    0    0 -0.14876679926E+02  0.21241304733E+02 -0.46213318316E+02  0.52992258134E+02  0.00000000000E+00 0.  1.
</event>
<event>
 7    1  0.2626349E-009  0.2424723E+03  0.7561462E-02  0.1118157E+00
         -2   -1    0    0    0  501 -0.00000000000E+00  0.00000000000E+00  0.85387611729E+03  0.85387611729E+03  0.00000000000E+00 0.  1.
          2   -1    0    0  501    0  0.00000000000E+00 -0.00000000000E+00 -0.74947339499E+02  0.74947339499E+02  0.00000000000E+00 0. -1.
         25    2    1    2    0    0  0.32027445751E+01  0.21908840416E+03  0.52350575093E+03  0.58112916539E+03  0.12507137643E+03 0.  0.
          5    1    3    3  502    0  0.55373498689E+02  0.17410668011E+03  0.36261389517E+03  0.40606116508E+03  0.41800000000E+01 0. -1.
         -5    1    3    3    0  502 -0.52170754114E+02  0.44981724048E+02  0.16089185575E+03  0.17506800031E+03  0.41800000000E+01 0. -1.
        -11    1    1    2    0    0 -0.31464463539E+02 -0.35512990719E+02  0.32386647170E+02  0.57446321819E+02  0.00000000000E+00 0. -1.
         11    1    1    2    0    0  0.28261718964E+02 -0.18357541344E+03  0.22303637969E+03  0.29024796958E+03  0.00000000000E+00 0.  1.
</event>
<event>
 7    1  0.2626349E-009  0.2174108E+03  0.7561462E-02  0.1135828E+00
         -1   -1    0    0    0  501 -0.00000000000E+00  0.00000000000E+00  0.51548785659E+02  0.51548785659E+02  0.00000000000E+00 0.  1.
          1   -1    0    0  501    0  0.00000000000E+00 -0.00000000000E+00 -0.12497489987E+04  0.12497489987E+04  0.00000000000E+00 0. -1.
         25    2    1    2    0    0 -0.10829429808E+03  0.15426744260E+03 -0.28218513129E+03  0.36167136641E+03  0.12510647513E+03 0.  0.
          5    1    3    3  502    0  0.20271232648E+02  0.68652726490E+02 -0.89441587228E+02  0.11463590037E+03  0.41800000000E+01 0. -1.
         -5    1    3    3    0  502 -0.12856553072E+03  0.85614716109E+02 -0.19274354406E+03  0.24703546604E+03  0.41800000000E+01 0. -1.
        -11    1    1    2    0    0  0.38544899934E+02  0.81215821838E+00 -0.14095753611E+03  0.14613485518E+03  0.00000000000E+00 0. -1.
         11    1    1    2    0    0  0.69749398142E+02 -0.15507960082E+03 -0.77505754561E+03  0.79349156273E+03  0.00000000000E+00 0.  1.
</event>
<event>
 7    1  0.2626349E-009  0.1547134E+03  0.7561462E-02  0.1194798E+00
          1   -1    0    0  501    0  0.00000000000E+00  0.00000000000E+00  0.76058989481E+03  0.76058989481E+03  0.00000000000E+00 0. -1.
         -1   -1    0    0    0  501 -0.00000000000E+00 -0.00000000000E+00 -0.37857066472E+02  0.37857066472E+02  0.00000000000E+00 0.  1.
         25    2    1    2    0    0 -0.87267342011E+02  0.87088822555E+02  0.48419844881E+03  0.51507089368E+03  0.12509930332E+03 0.  0.
          5    1    3    3  502    0 -0.95084823839E+01 -0.20925781666E+02  0.19844375356E+03  0.19981415191E+03  0.41800000000E+01 0.  1.
         -5    1    3    3    0  502 -0.77758859627E+02  0.10801460422E+03  0.28575469525E+03  0.31525674178E+03  0.41800000000E+01 0.  1.
        -11    1    1    2    0    0  0.60102983589E+02  0.16276146851E+01  0.98137634596E+02  0.11509132500E+03  0.00000000000E+00 0.  1.
         11    1    1    2    0    0  0.27164358422E+02 -0.88716437240E+02  0.14039674493E+03  0.16828474260E+03  0.00000000000E+00 0. -1.
</event>
<event>
 7    1  0.2626349E-009  0.1124965E+03  0.7561462E-02  0.1256015E+00
         -1   -1    0    0    0  501 -0.00000000000E+00  0.00000000000E+00  0.97916524010E+02  0.97916524010E+02  0.00000000000E+00 0.  1.
          1   -1    0    0  501    0  0.00000000000E+00 -0.00000000000E+00 -0.21743610083E+03  0.21743610083E+03  0.00000000000E+00 0. -1.
         25    2    1    2    0    0  0.32943843952E+02 -0.85141868566E+02 -0.10169069891E+03  0.18526270103E+03  0.12508731155E+03 0.  0.
          5    1    3    3  502    0 -0.23035690284E+02 -0.56387719195E+02  0.50683397422E+01  0.61264821640E+02  0.41800000000E+01 0. -1.
         -5    1    3    3    0  502  0.55979534236E+02 -0.28754149371E+02 -0.10675903865E+03  0.12399787939E+03  0.41800000000E+01 0. -1.
        -11    1    1    2    0    0 -0.34314114987E+02  0.29625173946E+02  0.31990800440E+02  0.55484418817E+02  0.00000000000E+00 0.  1.
         11    1    1    2    0    0  0.13702710354E+01  0.55516694620E+02 -0.49819678345E+02  0.74605504989E+02  0.00000000000E+00 0. -1.
</event>
<event>
 7    1  0.2626349E-009  0.1040175E+03  0.7561462E-02  0.1272068E+00
          1   -1    0    0  501    0  0.00000000000E+00  0.00000000000E+00  0.24817905990E+04  0.24817905990E+04  0.00000000000E+00 0. -1.
         -1   -1    0    0    0  501 -0.00000000000E+00 -0.00000000000E+00 -0.95354067973E+01  0.95354067973E+01  0.00000000000E+00 0.  1.
         25    2    1    2    0    0  0.47236735399E+02 -0.86884384675E+01  0.21081320719E+04  0.21123860664E+04  0.12508901971E+03 0.  0.
          5    1    3    3  502    0 -0.28066615914E+02 -0.11293851521E+02  0.16585536755E+03  0.16864388917E+03  0.41800000000E+01 0.  1.
         -5    1    3    3    0  502  0.75303351313E+02  0.26054130538E+01  0.19422767043E+04  0.19437421772E+04  0.41800000000E+01 0.  1.
        -11    1    1    2    0    0 -0.73770244463E+02  0.13687541176E+02  0.22377751238E+03  0.23602070418E+03  0.00000000000E+00 0. -1.
         11    1    1    2    0    0  0.26533509064E+02 -0.49991027086E+01  0.14034560792E+03  0.14291923521E+03  0.00000000000E+00 0.  1.
</event>
<event>
 7    1  0.2626349E-009  0.9708052E+02  0.7561462E-02  0.1286558E+00
         -2   -1    0    0    0  501 -0.00000000000E+00  0.00000000000E+00  0.93442614037E+02  0.93442614037E+02  0.00000000000E+00 0.  1.
          2   -1    0    0  501    0  0.00000000000E+00 -0.00000000000E+00 -0.15116486467E+03  0.15116486467E+03  0.00000000000E+00 0. -1.
         25    2    1    2    0    0 -0.27048791539E+02  0.36754534993E+02 -0.48268070581E+02  0.14162988858E+03  0.12508671287E+03 0.  0.
          5    1    3    3  502    0  0.24172489696E+02  0.33590623591E+02 -0.73376002737E+02  0.84345417356E+02  0.41800000000E+01 0.  1.
         -5    1    3    3    0  502 -0.51221281235E+02  0.31639114021E+01  0.25107932156E+02  0.57284471228E+02  0.41800000000E+01 0.  1.
        -11    1    1    2    0    0  0.29645495345E+02  0.25297019115E+02 -0.12124961773E+02  0.40814326754E+02  0.00000000000E+00 0.  1.
         11    1    1    2    0    0 -0.25967038063E+01 -0.62051554108E+02  0.26707817192E+01  0.62163263370E+02  0.00000000000E+00 0. -1.
</event>
<event>
 7    1  0.2626349E-009  0.1143480E+03  0.7561462E-02  0.1252724E+00
         -2   -1    0    0    0  501 -0.00000000000E+00  0.00000000000E+00  0.40364700959E+02  0.40364700959E+02  0.00000000000E+00 0.  1.
          2   -1    0    0  501    0  0.00000000000E+00 -0.00000000000E+00 -0.45369866708E+03  0.45369866708E+03  0.00000000000E+00 0. -1.
         25    2    1    2    0    0  0.29780120197E+02  0.54826089221E+02 -0.13123651944E+03  0.19173747974E+03  0.12508989361E+03 0.  0.
          5    1    3    3  502    0  0.27598035648E+02 -0.36256583701E+02 -0.62850282267E+02  0.77742020905E+02  0.41800000000E+01 0. -1.
         -5    1    3    3    0  502  0.21820845493E+01  0.91082672922E+02 -0.68386237174E+02  0.11399545883E+03  0.41800000000E+01 0. -1.
        -11    1    1    2    0    0  0.22423331515E+01  0.14867889319E+02 -0.67246783062E+01  0.16471292878E+02  0.00000000000E+00 0. -1.
         11    1    1    2    0    0 -0.32022453349E+02 -0.69693978539E+02 -0.27537276838E+03  0.28585459543E+03  0.00000000000E+00 0.  1.
</event>
<event>
 7    1  0.2626349E-009  0.1525511E+03  0.7561462E-02  0.1197373E+00
         -2   -1    0    0    0  501 -0.00000000000E+00  0.00000000000E+00  0.27740496590E+03  0.27740496590E+03  0.00000000000E+00 0.  1.
          2   -1    0    0  501    0  0.00000000000E+00 -0.00000000000E+00 -0.12518031630E+03  0.12518031630E+03  0.00000000000E+00 0. -1.
         25    2    1    2    0    0  0.50648810829E+02  0.12799973886E+03  0.14774300126E+03  0.23753906617E+03  0.12509028079E+03 0.  0.
          5    1    3    3  502    0 -0.60925708887E+00  0.48451888086E+02  0.13307700006E+03  0.14168598025E+03  0.41800000000E+01 0. -1.
         -5    1    3    3    0  502  0.51258067917E+02  0.79547850775E+02  0.14666001198E+02  0.95853085922E+02  0.41800000000E+01 0. -1.
        -11    1    1    2    0    0  0.16694348139E+02 -0.72732559518E+02 -0.14161267826E+02  0.75955697484E+02  0.00000000000E+00 0. -1.
         11    1    1    2    0    0 -0.67343158968E+02 -0.55267179343E+02  0.18642916166E+02  0.89090518550E+02  0.00000000000E+00 0.  1.
</event>
<event>
 7    1  0.2626349E-009  0.1915829E+03  0.7561462E-02  0.1157041E+00
          2   -1    0    0  501    0  0.00000000000E+00  0.00000000000E+00  0.11762917408E+04  0.11762917408E+04  0.00000000000E+00 0. -1.
         -2   -1    0    0    0  501 -0.00000000000E+00 -0.00000000000E+00 -0.36414928858E+02  0.36414928858E+02  0.00000000000E+00 0.  1.
         25    2    1    2    0    0  0.12212806728E+03  0.11779655029E+03  0.72431277041E+03  0.75436425634E+03  0.12508057314E+03 0.  0.
          5    1    3    3  502    0  0.67320725725E+02  0.12024753935E+03  0.63228821258E+03  0.64714558409E+03  0.41800000000E+01 0.  1.
         -5    1    3    3    0  502  0.54807341552E+02 -0.24509890573E+01  0.92024557831E+02  0.10721867225E+03  0.41800000000E+01 0.  1.
        -11    1    1    2    0    0 -0.10724441114E+03 -0.45565403006E+02  0.21329272764E+03  0.24304599839E+03  0.00000000000E+00 0. -1.
         11    1    1    2    0    0 -0.14883656136E+02 -0.72231147286E+02  0.20227131394E+03  0.21529641497E+03  0.00000000000E+00 0.  1.
</event>
<event>
 7    1  0.2626349E-009  0.1482394E+03  0.7561462E-02  0.1202653E+00
         -2   -1    0    0    0  501 -0.00000000000E+00  0.00000000000E+00  0.40547660687E+02  0.40547660687E+02  0.00000000000E+00 0.  1.
          2   -1    0    0  501    0  0.00000000000E+00 -0.00000000000E+00 -0.64995349717E+03  0.64995349717E+03  0.00000000000E+00 0. -1.
         25    2    1    2    0    0  0.12108194461E+03  0.89240286486E+01 -0.30767090195E+03  0.35362349301E+03  0.12509082822E+03 0.  0.
          5    1    3    3  502    0  0.15516757156E+00 -0.42603143808E+02 -0.75944408622E+02  0.87178423594E+02  0.41800000000E+01 0. -1.
         -5    1    3    3    0  502  0.12092677704E+03  0.51527172457E+02 -0.23172649332E+03  0.26644506941E+03  0.41800000000E+01 0. -1.
        -11    1    1    2    0    0 -0.67058084083E+02 -0.11660107733E+02 -0.65262019914E+02  0.94296744358E+02  0.00000000000E+00 0.  1.
         11    1    1    2    0    0 -0.54023860531E+02  0.27360790840E+01 -0.23647291463E+03  0.24258092049E+03  0.00000000000E+00 0. -1.
</event>
<event>
 7    1  0.2626349E-009  0.1331068E+03  0.7561462E-02  0.1222917E+00
         -2   -1    0    0    0  501 -0.00000000000E+00  0.00000000000E+00  0.11335886741E+03  0.11335886741E+03  0.00000000000E+00 0. -1.
          2   -1    0    0  501    0  0.00000000000E+00 -0.00000000000E+00 -0.17074226684E+03  0.17074226684E+03  0.00000000000E+00 0.  1.
         25    2    1    2    0    0  0.52060343868E+02  0.68964106871E+02 -0.26626898744E+02  0.15434878331E+03  0.12509287643E+03 0.  0.
          5    1    3    3  502    0 -0.14439672076E+02  0.74712651989E+02 -0.40115653228E+02  0.86123298420E+02  0.41800000000E+01 0.  1.
         -5    1    3    3    0  502  0.66500015944E+02 -0.57485451178E+01  0.13488754484E+02  0.68225484894E+02  0.41800000000E+01 0.  1.
        -11    1    1    2    0    0 -0.75263393115E+02 -0.37661616490E+02 -0.77830253907E+01  0.84519531376E+02  0.00000000000E+00 0. -1.
         11    1    1    2    0    0  0.23203049247E+02 -0.31302490381E+02 -0.22973475292E+02  0.45232819560E+02  0.00000000000E+00 0.  1.
</event>
<event>
 7    1  0.2626349E-009  0.1308861E+03  0.7561462E-02  0.1226147E+00
          1   -1    0    0  501    0  0.00000000000E+00  0.00000000000E+00  0.36278316576E+03  0.36278316576E+03  0.00000000000E+00 0. -1.
         -1   -1    0    0    0  501 -0.00000000000E+00 -0.00000000000E+00 -0.53541514241E+02  0.53541514241E+02  0.00000000000E+00 0.  1.
         25    2    1    2    0    0  0.56057209590E+02 -0.54010543716E+02  0.10884235653E+03  0.18317630966E+03  0.12508937711E+03 0.  0.
          5    1    3    3  502    0  0.74932107689E+02  0.10561668367E+02  0.35905641632E+02  0.83863323941E+02  0.41800000000E+01 0. -1.
         -5    1    3    3    0  502 -0.18874898099E+02 -0.64572212083E+02  0.72936714900E+02  0.99312985717E+02  0.41800000000E+01 0. -1.
        -11    1    1    2    0    0 -0.71691273308E+02  0.10638683556E+02  0.11109899784E+03  0.13264918989E+03  0.00000000000E+00 0.  1.
         11    1    1    2    0    0  0.15634063718E+02  0.43371860160E+02  0.89300297147E+02  0.10049918046E+03  0.00000000000E+00 0. -1.
</event>
<event>
 7    1  0.2626349E-009  0.1545212E+03  0.7561462E-02  0.1195025E+00
         -2   -1    0    0    0  501 -0.00000000000E+00  0.00000000000E+00  0.14264890365E+02  0.14264890365E+02  0.00000000000E+00 0.  1.
          2   -1    0    0  501    0  0.00000000000E+00 -0.00000000000E+00 -0.17654368788E+04  0.17654368788E+04  0.00000000000E+00 0. -1.
         25    2    1    2    0    0  0.43740974801E+02  0.10443681887E+03 -0.92747732390E+03  0.94269940062E+03  0.12509057345E+03 0.  0.
          5    1    3    3  502    0 -0.24010072334E+02 -0.11455360254E+02 -0.28880895568E+03  0.29006170746E+03  0.41800000000E+01 0. -1.
         -5    1    3    3    0  502  0.67751047135E+02  0.11589217912E+03 -0.63866836822E+03  0.65263769316E+03  0.41800000000E+01 0. -1.
        -11    1    1    2    0    0 -0.70775835227E+02 -0.96417655549E+02 -0.69898465242E+03  0.70914393988E+03  0.00000000000E+00 0.  1.
         11    1    1    2    0    0  0.27034860425E+02 -0.80191633181E+01 -0.12471001209E+03  0.12785842864E+03  0.00000000000E+00 0. -1.
</event>
<event>
 7    1  0.2626349E-009  0.1747990E+03  0.7561462E-02  0.1172934E+00
          2   -1    0    0  501    0  0.00000000000E+00  0.00000000000E+00  0.13695972116E+04  0.13695972116E+04  0.00000000000E+00 0. -1.
         -2   -1    0    0    0  501 -0.00000000000E+00 -0.00000000000E+00 -0.26194941082E+02  0.26194941082E+02  0.00000000000E+00 0.  1.
         25    2    1    2    0    0  0.10874504366E+03 -0.85098497605E+02  0.45159397289E+03  0.48852003910E+03  0.12508986144E+03 0.  0.
          5    1    3    3  502    0 -0.26864426157E+02 -0.12755316697E+02  0.47889841342E+02  0.56527027169E+02  0.41800000000E+01 0. -1.
         -5    1    3    3    0  502  0.13560946982E+03 -0.72343180908E+02  0.40370413154E+03  0.43199301193E+03  0.41800000000E+01 0. -1.
        -11    1    1    2    0    0 -0.70016851834E+02  0.10186620362E+03  0.70520158612E+03  0.71595276384E+03  0.00000000000E+00 0.  1.
         11    1    1    2    0    0 -0.38728191827E+02 -0.16767706011E+02  0.18660671149E+03  0.19131934972E+03  0.00000000000E+00 0. -1.
</event>
<event>
 7    1  0.2641630E-009  0.9738562E+02  0.7561462E-02  0.1285892E+00
          3   -1    0    0  501    0  0.00000000000E+00  0.00000000000E+00  0.12189738128E+03  0.12189738128E+03  0.00000000000E+00 0. -1.
         -3   -1    0    0    0  501 -0.00000000000E+00 -0.00000000000E+00 -0.15749653113E+03  0.15749653113E+03  0.00000000000E+00 0.  1.
         25    2    1    2    0    0 -0.15115922592E+02 -0.78791743715E+02  0.12622370750E+02  0.14914100728E+03  0.12508831206E+03 0.  0.
          5    1    3    3  502    0 -0.99992898326E+00 -0.90567067444E+02 -0.35566950185E+02  0.97395451171E+02  0.41800000000E+01 0. -1.
         -5    1    3    3    0  502 -0.14115993608E+02  0.11775323729E+02  0.48189320935E+02  0.51745556106E+02  0.41800000000E+01 0. -1.
        -11    1    1    2    0    0 -0.78906494617E+01  0.33905475947E+02 -0.67746253847E+02  0.76166912491E+02  0.00000000000E+00 0.  1.
         11    1    1    2    0    0  0.23006572053E+02  0.44886267768E+02  0.19524733241E+02  0.54085992641E+02  0.00000000000E+00 0. -1.
</event>
<event>
 7    1  0.2626349E-009  0.1255223E+03  0.7561462E-02  0.1234255E+00
          1   -1    0    0  501    0  0.00000000000E+00  0.00000000000E+00  0.17431636406E+03  0.17431636406E+03  0.00000000000E+00 0. -1.
         -1   -1    0    0    0  501 -0.00000000000E+00 -0.00000000000E+00 -0.23451651826E+03  0.23451651826E+03  0.00000000000E+00 0.  1.
         25    2    1    2    0    0  0.82037877041E+02 -0.68800043568E+02  0.99417430984E+02  0.19234095609E+03  0.12509020162E+03 0.  0.
          5    1    3    3  502    0  0.23889416065E+02  0.65936761919E+01  0.93537729625E+02  0.96855356223E+02  0.41800000000E+01 0.  1.
         -5    1    3    3    0  502  0.58148460976E+02 -0.75393719760E+02  0.58797013585E+01  0.95485599862E+02  0.41800000000E+01 0.  1.
        -11    1    1    2    0    0 -0.81734468870E+02  0.23140606139E+02 -0.14587855689E+03  0.16880925453E+03  0.00000000000E+00 0.  1.
         11    1    1    2    0    0 -0.30340817042E+00  0.45659437429E+02 -0.13739028290E+02  0.47682671708E+02  0.00000000000E+00 0. -1.
</event>
<event>
 7    1  0.2626349E-009  0.1276900E+03  0.7561462E-02  0.1230924E+00
         -2   -1    0    0    0  501 -0.00000000000E+00  0.00000000000E+00  0.69902574199E+02  0.69902574199E+02  0.00000000000E+00 0. -1.
          2   -1    0    0  501    0  0.00000000000E+00 -0.00000000000E+00 -0.29097425305E+03  0.29097425305E+03  0.00000000000E+00 0.  1.
         25    2    1    2    0    0 -0.22168965502E+02  0.96326180201E+02 -0.12966061513E+03  0.20549878683E+03  0.12509068810E+03 0.  0.
          5    1    3    3  502    0 -0.40389690858E+02 -0.15269320718E+02 -0.54510393641E+02  0.69665879005E+02  0.41800000000E+01 0. -1.
         -5    1    3    3    0  502  0.18220725356E+02  0.11159550092E+03 -0.75150221491E+02  0.13583290782E+03  0.41800000000E+01 0. -1.
        -11    1    1    2    0    0  0.47880466546E+01 -0.19268485912E+02  0.13531901967E+02  0.24027324257E+02  0.00000000000E+00 0. -1.
         11    1    1    2    0    0  0.17380918847E+02 -0.77057694289E+02 -0.10494296569E+03  0.13135071616E+03  0.00000000000E+00 0.  1.
</event>
<event>
 7    1  0.2626349E-009  0.4411432E+03  0.7561462E-02  0.1030397E+00
         -2   -1    0    0    0  501 -0.00000000000E+00  0.00000000000E+00  0.18838942207E+03  0.18838942207E+03  0.00000000000E+00 0. -1.
          2   -1    0    0  501    0  0.00000000000E+00 -0.00000000000E+00 -0.10406941775E+04  0.10406941775E+04  0.00000000000E+00 0.  1.
         25    2    1    2    0    0  0.36272458517E+03  0.22754891617E+03 -0.45918410459E+03  0.64019095857E+03  0.12508712000E+03 0.  0.
          5    1    3    3  502    0  0.33477034388E+02  0.72309139777E+02 -0.10885082470E+03  0.13496406175E+03  0.41800000000E+01 0. -1.
         -5    1    3    3    0  502  0.32924755078E+03  0.15523977639E+03 -0.35033327989E+03  0.50522689682E+03  0.41800000000E+01 0. -1.
        -11    1    1    2    0    0 -0.32175751143E+03 -0.15971897522E+03 -0.32303183727E+03  0.48310207524E+03  0.00000000000E+00 0. -1.
         11    1    1    2    0    0 -0.40967073736E+02 -0.67829940945E+02 -0.70088813600E+02  0.10579056579E+03  0.00000000000E+00 0.  1.
</event>
<event>
 7    1  0.2626349E-009  0.9577766E+02  0.7561462E-02  0.1289434E+00
          2   -1    0    0  501    0  0.00000000000E+00  0.00000000000E+00  0.15794639907E+04  0.15794639907E+04  0.00000000000E+00 0. -1.
         -2   -1    0    0    0  501 -0.00000000000E+00 -0.00000000000E+00 -0.15650393756E+02  0.15650393756E+02  0.00000000000E+00 0.  1.
         25    2    1    2    0    0 -0.27717965102E+02  0.71814739512E+02  0.12622640220E+04  0.12707810795E+04  0.12509375817E+03 0.  0.
          5    1    3    3  502    0  0.17722988556E+02  0.33210932733E+02  0.99238070148E+02  0.10622023038E+03  0.41800000000E+01 0.  1.
         -5    1    3    3    0  502 -0.45440953658E+02  0.38603806779E+02  0.11630259518E+04  0.11645608491E+04  0.41800000000E+01 0.  1.
        -11    1    1    2    0    0 -0.13918029396E+02 -0.37350022653E+02  0.37222252335E+02  0.54536518071E+02  0.00000000000E+00 0.  1.
         11    1    1    2    0    0  0.41635994498E+02 -0.34464716860E+02  0.26432732263E+03  0.26979678692E+03  0.00000000000E+00 0. -1.
</event>
<event>
 7    1  0.2626349E-009  0.1352794E+03  0.7561462E-02  0.1219826E+00
          2   -1    0    0  501    0  0.00000000000E+00  0.00000000000E+00  0.38221612271E+03  0.38221612271E+03  0.00000000000E+00 0. -1.
         -2   -1    0    0    0  501 -0.00000000000E+00 -0.00000000000E+00 -0.50319116540E+02  0.50319116540E+02  0.00000000000E+00 0.  1.
         25    2    1    2    0    0 -0.73679520089E+02  0.31680873871E+02  0.13476066771E+03  0.20060102718E+03  0.12509190658E+03 0.  0.
          5    1    3    3  502    0 -0.42755755055E+01 -0.44763348515E+02  0.37655358656E+02  0.58799968977E+02  0.41800000000E+01 0. -1.
         -5    1    3    3    0  502 -0.69403944584E+02  0.76444222387E+02  0.97105309057E+02  0.14180105820E+03  0.41800000000E+01 0. -1.
        -11    1    1    2    0    0  0.81376807258E+02  0.78825158934E+01  0.13697363621E+03  0.15951832444E+03  0.00000000000E+00 0.  1.
         11    1    1    2    0    0 -0.76972871691E+01 -0.39563389765E+02  0.60162702246E+02  0.72415887628E+02  0.00000000000E+00 0. -1.
</event>
<event>
 7    1  0.2626349E-009  0.1171584E+03  0.7561462E-02  0.1247860E+00
          3   -1    0    0  501    0  0.00000000000E+00  0.00000000000E+00  0.12290431996E+03  0.12290431996E+03  0.00000000000E+00 0. -1.
         -3   -1    0    0    0  501 -0.00000000000E+00 -0.00000000000E+00 -0.13159280716E+03  0.13159280716E+03  0.00000000000E+00 0.  1.
         25    2    1    2    0    0  0.26123941177E+02  0.43657137019E+02 -0.45395093131E+02  0.14246910700E+03  0.12509326942E+03 0.  0.
          5    1    3    3  502    0  0.73153856482E+02  0.34291056626E+02 -0.48342777590E+02  0.94243619560E+02  0.41800000000E+01 0.  1.
         -5    1    3    3    0  502 -0.47029915304E+02  0.93660803937E+01  0.29476844587E+01  0.48225487443E+02  0.41800000000E+01 0.  1.
        -11    1    1    2    0    0 -0.60147517311E+02 -0.18371433450E+02  0.27546708507E+02  0.68658972868E+02  0.00000000000E+00 0.  1.
         11    1    1    2    0    0  0.34023576134E+02 -0.25285703569E+02  0.91598974266E+01  0.43369047243E+02  0.00000000000E+00 0. -1.
</event>
<event>
 7    1  0.2626349E-009  0.8971310E+02  0.7561462E-02  0.1303548E+00
          2   -1    0    0  501    0  0.00000000000E+00  0.00000000000E+00  0.16848930804E+04  0.16848930804E+04  0.00000000000E+00 0. -1.
         -2   -1    0    0    0  501 -0.00000000000E+00 -0.00000000000E+00 -0.17761730117E+02  0.17761730117E+02  0.00000000000E+00 0.  1.
         25    2    1    2    0    0  0.56739295068E+01  0.20584442805E+02  0.15372891805E+04  0.15425181904E+04  0.12509368679E+03 0.  0.
          5    1    3    3  502    0 -0.40728713132E+01  0.52486536219E+02  0.14060526927E+04  0.14070440902E+04  0.41800000000E+01 0. -1.
         -5    1    3    3    0  502  0.97468008200E+01 -0.31902093414E+02  0.13123648777E+03  0.13547410015E+03  0.41800000000E+01 0. -1.
        -11    1    1    2    0    0 -0.40318372414E+02 -0.36943866299E+02  0.66356136038E+02  0.85985796508E+02  0.00000000000E+00 0.  1.
         11    1    1    2    0    0  0.34644442907E+02  0.16359423494E+02  0.63486033762E+02  0.74150823625E+02  0.00000000000E+00 0. -1.
</event>
<event>
 7    1  0.2626349E-009  0.1442058E+03  0.7561462E-02  0.1207779E+00
         -2   -1    0    0    0  501 -0.00000000000E+00  0.00000000000E+00  0.88834963968E+02  0.88834963968E+02  0.00000000000E+00 0.  1.
          2   -1    0    0  501    0  0.00000000000E+00 -0.00000000000E+00 -0.27877109362E+03  0.27877109362E+03  0.00000000000E+00 0. -1.
         25    2    1    2    0    0 -0.52906696753E+02 -0.86074186997E+02 -0.15171613682E+03  0.22107370728E+03  0.12509162102E+03 0.  0.
          5    1    3    3  502    0  0.78261564761E+01  0.29124257740E+02 -0.31081360324E+02  0.43508556328E+02  0.41800000000E+01 0. -1.
         -5    1    3    3    0  502 -0.60732853229E+02 -0.11519844474E+03 -0.12063477650E+03  0.17756515095E+03  0.41800000000E+01 0. -1.
        -11    1    1    2    0    0 -0.19232233499E+02  0.32690769375E+02 -0.42150848712E+02  0.56703256122E+02  0.00000000000E+00 0. -1.
         11    1    1    2    0    0  0.72138930251E+02  0.53383417621E+02  0.39308558823E+01  0.89829094188E+02  0.00000000000E+00 0.  1.
</event>
<event>
 7    1  0.2626349E-009  0.1131998E+03  0.7561462E-02  0.1254757E+00
         -2   -1    0    0    0  501 -0.00000000000E+00  0.00000000000E+00  0.37987449825E+02  0.37987449825E+02  0.00000000000E+00 0. -1.
          2   -1    0    0  501    0  0.00000000000E+00 -0.00000000000E+00 -0.52833246203E+03  0.52833246203E+03  0.00000000000E+00 0.  1.
         25    2    1    2    0    0 -0.42397278102E+02 -0.68361478126E+02 -0.34730050234E+03  0.37780354991E+03  0.12508821896E+03 0.  0.
          5    1    3    3  502    0 -0.11478038725E+02  0.35446192093E+02 -0.12469978554E+03  0.13021400393E+03  0.41800000000E+01 0.  1.
         -5    1    3    3    0  502 -0.30919239378E+02 -0.10380767022E+03 -0.22260071680E+03  0.24758954598E+03  0.41800000000E+01 0.  1.
        -11    1    1    2    0    0  0.27186214735E+02  0.46844018898E+02 -0.12827211020E+02  0.55659587860E+02  0.00000000000E+00 0. -1.
         11    1    1    2    0    0  0.15211063367E+02  0.21517459228E+02 -0.13021729885E+03  0.13285677408E+03  0.00000000000E+00 0.  1.
</event>
<event>
 7    1  0.2626349E-009  0.1092379E+03  0.7561462E-02  0.1261988E+00
         -2   -1    0    0    0  501 -0.00000000000E+00  0.00000000000E+00  0.42735326270E+03  0.42735326270E+03  0.00000000000E+00 0.  1.
          2   -1    0    0  501    0  0.00000000000E+00 -0.00000000000E+00 -0.40925738270E+02  0.40925738270E+02  0.00000000000E+00 0. -1.
         25    2    1    2    0    0 -0.40836737353E+02 -0.19951541337E+02  0.31866078926E+03  0.34533642574E+03  0.12508735033E+03 0.  0.
          5    1    3    3  502    0  0.15070172047E+02  0.35377493773E+02  0.19442140123E+03  0.19823176034E+03  0.41800000000E+01 0. -1.
         -5    1    3    3    0  502 -0.55906909399E+02 -0.55329035110E+02  0.12423938803E+03  0.14710466540E+03  0.41800000000E+01 0. -1.
        -11    1    1    2    0    0  0.69923815145E+02  0.15170493004E+02  0.57284287852E+02  0.91656824171E+02  0.00000000000E+00 0.  1.
         11    1    1    2    0    0 -0.29087077792E+02  0.47810483336E+01  0.10482447322E+02  0.31285751062E+02  0.00000000000E+00 0. -1.
</event>
<event>
 7    1  0.2626349E-009  0.1049694E+03  0.7561462E-02  0.1270180E+00
          2   -1    0    0  501    0  0.00000000000E+00  0.00000000000E+00  0.90698473260E+03  0.90698473260E+03  0.00000000000E+00 0. -1.
         -2   -1    0    0    0  501 -0.00000000000E+00 -0.00000000000E+00 -0.15982845801E+02  0.15982845801E+02  0.00000000000E+00 0.  1.
         25    2    1    2    0    0  0.44811289872E+02  0.61300110293E+01  0.59890108024E+03  0.61349516994E+03  0.12509272920E+03 0.  0.
          5    1    3    3  502    0 -0.29666672859E+02  0.24752792963E+02  0.80119404414E+02  0.89047198730E+02  0.41800000000E+01 0.  1.
         -5    1    3    3    0  502  0.74477962731E+02 -0.18622781934E+02  0.51878167582E+03  0.52444797121E+03  0.41800000000E+01 0.  1.
        -11    1    1    2    0    0 -0.67530369796E+02  0.70980256596E+01  0.14590499543E+03  0.16093166408E+03  0.00000000000E+00 0.  1.
         11    1    1    2    0    0  0.22719079924E+02 -0.13228036689E+02  0.14619581114E+03  0.14854074438E+03  0.00000000000E+00 0. -1.
</event>
<event>
 7    1  0.2626349E-009  0.9150125E+02  0.7561462E-02  0.1299256E+00
          2   -1    0    0  501    0  0.00000000000E+00  0.00000000000E+00  0.78408558568E+03  0.78408558568E+03  0.00000000000E+00 0.  1.
         -2   -1    0    0    0  501 -0.00000000000E+00 -0.00000000000E+00 -0.17785166049E+02  0.17785166049E+02  0.00000000000E+00 0. -1.
         25    2    1    2    0    0  0.30555476158E+02 -0.17851131655E+02  0.53134321387E+03  0.54701529822E+03  0.12509126883E+03 0.  0.
          5    1    3    3  502    0  0.31054287524E+02  0.44277380583E+02  0.37204512787E+03  0.37597859616E+03  0.41800000000E+01 0. -1.
         -5    1    3    3    0  502 -0.49881136580E+00 -0.62128512238E+02  0.15929808600E+03  0.17103670205E+03  0.41800000000E+01 0. -1.
        -11    1    1    2    0    0 -0.10570510251E+02  0.37199260907E+02  0.21980290262E+03  0.22317893426E+03  0.00000000000E+00 0.  1.
         11    1    1    2    0    0 -0.19984965907E+02 -0.19348129251E+02  0.15154303144E+02  0.31676519247E+02  0.00000000000E+00 0. -1.
</event>
<event>
 7    1  0.2626349E-009  0.2006071E+03  0.7561462E-02  0.1149228E+00
         -1   -1    0    0    0  501 -0.00000000000E+00  0.00000000000E+00  0.15486524009E+03  0.15486524009E+03  0.00000000000E+00 0.  1.
          1   -1    0    0  501    0  0.00000000000E+00 -0.00000000000E+00 -0.34286441338E+03  0.34286441338E+03  0.00000000000E+00 0. -1.
         25    2    1    2    0    0  0.19098250269E+03 -0.93689939085E+01 -0.24339069596E+02  0.22978719994E+03  0.12509065739E+03 0.  0.
          5    1    3    3  502    0  0.13396964282E+03  0.33934893209E+02  0.27914793966E+02  0.14105371422E+03  0.41800000000E+01 0. -1.
         -5    1    3    3    0  502  0.57012859876E+02 -0.43303887117E+02 -0.52253863562E+02  0.88733485719E+02  0.41800000000E+01 0. -1.
        -11    1    1    2    0    0 -0.15948080830E+03  0.67397297542E+01 -0.80080311360E+02  0.17858445745E+03  0.00000000000E+00 0.  1.
         11    1    1    2    0    0 -0.31501694389E+02  0.26292641543E+01 -0.83579792326E+02  0.89357996087E+02  0.00000000000E+00 0. -1.
</event>
<event>
 7    1  0.2626349E-009  0.1101112E+03  0.7561462E-02  0.1260364E+00
         -1   -1    0    0    0  501 -0.00000000000E+00  0.00000000000E+00  0.17680272372E+03  0.17680272372E+03  0.00000000000E+00 0.  1.
          1   -1    0    0  501    0  0.00000000000E+00 -0.00000000000E+00 -0.72499486925E+02  0.72499486925E+02  0.00000000000E+00 0. -1.
         25    2    1    2    0    0 -0.19287863119E+02 -0.11385403892E+02  0.79933078869E+02  0.15012623114E+03  0.12508772559E+03 0.  0.
          5    1    3    3  502    0 -0.65477160445E+02  0.19872785582E+02  0.28840249249E+02  0.74373506866E+02  0.41800000000E+01 0.  1.
         -5    1    3    3    0  502  0.46189297326E+02 -0.31258189474E+02  0.51092829620E+02  0.75752724276E+02  0.41800000000E+01 0.  1.
        -11    1    1    2    0    0  0.36268080166E+02  0.45169853046E+02  0.19116981370E+02  0.61001215069E+02  0.00000000000E+00 0.  1.
         11    1    1    2    0    0 -0.16980217047E+02 -0.33784449154E+02  0.52531765542E+01  0.38174764433E+02  0.00000000000E+00 0. -1.
</event>
<event>
 7    1  0.2626349E-009  0.1059910E+03  0.7561462E-02  0.1268179E+00
         -2   -1    0    0    0  501 -0.00000000000E+00  0.00000000000E+00  0.69859659517E+02  0.69859659517E+02  0.00000000000E+00 0.  1.
          2   -1    0    0  501    0  0.00000000000E+00 -0.00000000000E+00 -0.20815999907E+03  0.20815999907E+03  0.00000000000E+00 0. -1.
         25    2    1    2    0    0  0.23277374725E+01 -0.21471963019E+02 -0.13305173576E+03  0.18389271112E+03  0.12508917322E+03 0.  0.
          5    1    3    3  502    0  0.49438357724E+02  0.21727054464E+02 -0.28306935536E+02  0.61114409999E+02  0.41800000000E+01 0. -1.
         -5    1    3    3    0  502 -0.47110620251E+02 -0.43199017483E+02 -0.10474480023E+03  0.12277830112E+03  0.41800000000E+01 0. -1.
        -11    1    1    2    0    0 -0.30125330952E+02  0.47129334475E+02  0.76109400320E-02  0.55934870975E+02  0.00000000000E+00 0.  1.
         11    1    1    2    0    0  0.27797593479E+02 -0.25657371456E+02 -0.52562147293E+01  0.38192076489E+02  0.00000000000E+00 0. -1.
</event>
<event>
 7    1  0.2626349E-009  0.7848397E+02  0.7561462E-02  0.1333410E+00
         -1   -1    0    0    0  501 -0.00000000000E+00  0.00000000000E+00  0.32507496197E+02  0.32507496197E+02  0.00000000000E+00 0.  1.
          1   -1    0    0  501    0  0.00000000000E+00 -0.00000000000E+00 -0.51370136767E+03  0.51370136767E+03  0.00000000000E+00 0. -1.
         25    2    1    2    0    0 -0.49104932754E+01 -0.24123387749E+02 -0.38689806858E+03  0.40736096738E+03  0.12508713561E+03 0.  0.
          5    1    3    3  502    0 -0.25899306582E+02 -0.43419280822E+02 -0.37099705355E+03  0.37444932123E+03  0.41800000000E+01 0.  1.
         -5    1    3    3    0  502  0.20988813306E+02  0.19295893073E+02 -0.15901015034E+02  0.32911646155E+02  0.41800000000E+01 0.  1.
        -11    1    1    2    0    0 -0.20755444624E+02  0.41518646226E+02 -0.97192174943E+02  0.10770749898E+03  0.00000000000E+00 0. -1.
         11    1    1    2    0    0  0.25665937899E+02 -0.17395258477E+02  0.28963720511E+01  0.31140397505E+02  0.00000000000E+00 0.  1.
</event>
<event>
 7    1  0.2626349E-009  0.1289680E+03  0.7561462E-02  0.1228995E+00
         -3   -1    0    0    0  501 -0.00000000000E+00  0.00000000000E+00  0.54758172705E+02  0.54758172705E+02  0.00000000000E+00 0.  1.
          3   -1    0    0  501    0  0.00000000000E+00 -0.00000000000E+00 -0.41165686701E+03  0.41165686701E+03  0.00000000000E+00 0. -1.
         25    2    1    2    0    0  0.52088691515E+01 -0.91774162437E+02 -0.11528262934E+03  0.19336091398E+03  0.12509488087E+03 0.  0.
          5    1    3    3  502    0 -0.32581029155E+02 -0.10769572724E+03 -0.72301625777E+02  0.13380915745E+03  0.41800000000E+01 0.  1.
         -5    1    3    3    0  502  0.37789898306E+02  0.15921564801E+02 -0.42981003561E+02  0.59551756539E+02  0.41800000000E+01 0.  1.
        -11    1    1    2    0    0 -0.27167537771E+02  0.53244061688E+02 -0.54956716450E+02  0.81198804773E+02  0.00000000000E+00 0.  1.
         11    1    1    2    0    0  0.21958668620E+02  0.38530100749E+02 -0.18665934852E+03  0.19185532096E+03  0.00000000000E+00 0. -1.
</event>
<event>
 7    1  0.2626349E-009  0.1223929E+03  0.7561462E-02  0.1239201E+00
          2   -1    0    0  501    0  0.00000000000E+00  0.00000000000E+00  0.98200613160E+03  0.98200613160E+03  0.00000000000E+00 0. -1.
         -2   -1    0    0    0  501 -0.00000000000E+00 -0.00000000000E+00 -0.21037574432E+02  0.21037574432E+02  0.00000000000E+00 0.  1.
         25    2    1    2    0    0  0.42859927488E+02  0.75936016026E+02  0.65266496104E+03  0.67024133883E+03  0.12509456017E+03 0.  0.
          5    1    3    3  502    0 -0.29454391102E+02  0.50063257966E+02  0.44490774420E+03  0.44870286850E+03  0.41800000000E+01 0. -1.
         -5    1    3    3    0  502  0.72314318590E+02  0.25872758060E+02  0.20775721684E+03  0.22153847032E+03  0.41800000000E+01 0. -1.
        -11    1    1    2    0    0  0.10063921558E+02  0.62751635357E+01  0.30122339703E+01  0.12236574195E+02  0.00000000000E+00 0.  1.
         11    1    1    2    0    0 -0.52923849047E+02 -0.82211179562E+02  0.30529136216E+03  0.32056579302E+03  0.00000000000E+00 0. -1.
</event>
<event>
 7    1  0.2626349E-009  0.1015696E+03  0.7561462E-02  0.1277029E+00
          1   -1    0    0  501    0  0.00000000000E+00  0.00000000000E+00  0.82079732891E+03  0.82079732891E+03  0.00000000000E+00 0. -1.
         -1   -1    0    0    0  501 -0.00000000000E+00 -0.00000000000E+00 -0.24630302591E+02  0.24630302591E+02  0.00000000000E+00 0.  1.
         25    2    1    2    0    0  0.44675343285E+02 -0.15518671322E+02  0.67443761657E+03  0.68756854822E+03  0.12509074464E+03 0.  0.
          5    1    3    3  502    0 -0.14622701584E+02  0.44680159205E+02  0.30016585971E+03  0.30385383947E+03  0.41800000000E+01 0.  1.
         -5    1    3    3    0  502  0.59298044869E+02 -0.60198830527E+02  0.37427175687E+03  0.38371470875E+03  0.41800000000E+01 0.  1.
        -11    1    1    2    0    0 -0.28468758543E+02  0.35568170988E+02  0.12387732461E+03  0.13198922893E+03  0.00000000000E+00 0. -1.
         11    1    1    2    0    0 -0.16206584742E+02 -0.20049499665E+02 -0.21479148667E+01  0.25869854350E+02  0.00000000000E+00 0.  1.
</event>
<event>
 7    1  0.2626349E-009  0.2626510E+03  0.7561462E-02  0.1105561E+00
         -2   -1    0    0    0  501 -0.00000000000E+00  0.00000000000E+00  0.16789061068E+03  0.16789061068E+03  0.00000000000E+00 0.  1.
          2   -1    0    0  501    0  0.00000000000E+00 -0.00000000000E+00 -0.42405460163E+03  0.42405460163E+03  0.00000000000E+00 0. -1.
         25    2    1    2    0    0  0.21876168198E+03  0.98464587270E+02 -0.84736481463E+02  0.28351217038E+03  0.12508769330E+03 0.  0.
          5    1    3    3  502    0  0.22353134726E+03  0.60795501956E+02 -0.79534593131E+02  0.24496036449E+03  0.41800000000E+01 0. -1.
         -5    1    3    3    0  502 -0.47696652813E+01  0.37669085313E+02 -0.52018883329E+01  0.38551805891E+02  0.41800000000E+01 0. -1.
        -11    1    1    2    0    0 -0.17568658579E+03 -0.35679697270E+02 -0.13246023477E+03  0.22290027147E+03  0.00000000000E+00 0. -1.
         11    1    1    2    0    0 -0.43075096186E+02 -0.62784890000E+02 -0.38967274713E+02  0.85532770458E+02  0.00000000000E+00 0.  1.
</event>
<event>
 7    1  0.2626349E-009  0.1217156E+03  0.7561462E-02  0.1240293E+00
         -4   -1    0    0    0  501 -0.00000000000E+00  0.00000000000E+00  0.26332212829E+03  0.26332212829E+03  0.00000000000E+00 0.  1.
          4   -1    0    0  501    0  0.00000000000E+00 -0.00000000000E+00 -0.95827204720E+02  0.95827204720E+02  0.00000000000E+00 0. -1.
         25    2    1    2    0    0  0.58918312939E+02  0.20031112984E+02  0.19617517750E+03  0.24084189106E+03  0.12508998015E+03 0.  0.
          5    1    3    3  502    0  0.33097759680E+01  0.65052834745E+02  0.69838156180E+02  0.95591141765E+02  0.41800000000E+01 0. -1.
         -5    1    3    3    0  502  0.55608536971E+02 -0.45021721761E+02  0.12633702132E+03  0.14525074929E+03  0.41800000000E+01 0. -1.
        -11    1    1    2    0    0  0.12605680199E+02  0.20658766750E+02  0.11429681135E+02  0.26764256533E+02  0.00000000000E+00 0.  1.
         11    1    1    2    0    0 -0.71523993138E+02 -0.40689879735E+02 -0.40109935058E+02  0.91543185424E+02  0.00000000000E+00 0. -1.
</event>
<event>
 7    1  0.2626349E-009  0.1468925E+03  0.7561462E-02  0.1204344E+00
          1   -1    0    0  501    0  0.00000000000E+00  0.00000000000E+00  0.11727506683E+04  0.11727506683E+04  0.00000000000E+00 0. -1.
         -1   -1    0    0    0  501 -0.00000000000E+00 -0.00000000000E+00 -0.28924885111E+02  0.28924885111E+02  0.00000000000E+00 0.  1.
         25    2    1    2    0    0  0.10572437284E+03 -0.24368166990E+02  0.94340997372E+03  0.95783170872E+03  0.12509097950E+03 0.  0.
          5    1    3    3  502    0  0.13906018206E+02  0.44086753611E+02  0.18102987878E+03  0.18688581700E+03  0.41800000000E+01 0. -1.
         -5    1    3    3    0  502  0.91818354634E+02 -0.68454920601E+02  0.76238009494E+03  0.77094589172E+03  0.41800000000E+01 0. -1.
        -11    1    1    2    0    0 -0.34597758191E+02  0.46785596770E+02  0.12449570762E+03  0.13742298990E+03  0.00000000000E+00 0. -1.
         11    1    1    2    0    0 -0.71126614649E+02 -0.22417429780E+02  0.75920101862E+02  0.10642085480E+03  0.00000000000E+00 0.  1.
</event>
<event>
 7    1  0.2626349E-009  0.8382594E+02  0.7561462E-02  0.1318532E+00
         -1   -1    0    0    0  501 -0.00000000000E+00  0.00000000000E+00  0.83142347373E+02  0.83142347373E+02  0.00000000000E+00 0.  1.
          1   -1    0    0  501    0  0.00000000000E+00 -0.00000000000E+00 -0.18072329093E+03  0.18072329093E+03  0.00000000000E+00 0. -1.
         25    2    1    2    0    0  0.44600010640E+02 -0.46035675759E+01 -0.98177387177E+02  0.16521580681E+03  0.12508840747E+03 0.  0.
          5    1    3    3  502    0 -0.14795420205E+02  0.71661670293E+01  0.23651390417E+02  0.29105310127E+02  0.41800000000E+01 0. -1.
         -5    1    3    3    0  502  0.59395430845E+02 -0.11769734605E+02 -0.12182877759E+03  0.13611049669E+03  0.41800000000E+01 0. -1.
        -11    1    1    2    0    0 -0.18791717381E+02  0.41159623267E+02 -0.19901807919E+02  0.49430002914E+02  0.00000000000E+00 0. -1.
         11    1    1    2    0    0 -0.25808293260E+02 -0.36556055691E+02  0.20498251541E+02  0.49219828575E+02  0.00000000000E+00 0.  1.
</event>
<event>
 7    1  0.2626349E-009  0.1195021E+03  0.7561462E-02  0.1243921E+00
         -2   -1    0    0    0  501 -0.00000000000E+00  0.00000000000E+00  0.63508218555E+02  0.63508218555E+02  0.00000000000E+00 0.  1.
          2   -1    0    0  501    0  0.00000000000E+00 -0.00000000000E+00 -0.26441379092E+03  0.26441379092E+03  0.00000000000E+00 0. -1.
         25    2    1    2    0    0 -0.12990945332E+02  0.45038563925E+02 -0.17231290164E+03  0.21802775078E+03  0.12508847724E+03 0.  0.
          5    1    3    3  502    0 -0.61979739180E+02  0.54719483968E+02 -0.11783540294E+03  0.14400821012E+03  0.41800000000E+01 0. -1.
         -5    1    3    3    0  502  0.48988793848E+02 -0.96809200425E+01 -0.54477498696E+02  0.74019540661E+02  0.41800000000E+01 0. -1.
        -11    1    1    2    0    0 -0.34866208580E+02 -0.46632404799E+02 -0.15664485055E+02  0.60296017863E+02  0.00000000000E+00 0.  1.
         11    1    1    2    0    0  0.47857153911E+02  0.15938408742E+01 -0.12928185672E+02  0.49598240836E+02  0.00000000000E+00 0. -1.
</event>
<event>
 7    1  0.2626349E-009  0.9964307E+02  0.7561462E-02  0.1281048E+00
         -2   -1    0    0    0  501 -0.00000000000E+00  0.00000000000E+00  0.90967708842E+02  0.90967708842E+02  0.00000000000E+00 0.  1.
          2   -1    0    0  501    0  0.00000000000E+00 -0.00000000000E+00 -0.13053794145E+03  0.13053794145E+03  0.00000000000E+00 0. -1.
         25    2    1    2    0    0  0.17115984443E+02 -0.30148099191E+01 -0.24113102418E+02  0.12857019483E+03  0.12508719874E+03 0.  0.
          5    1    3    3  502    0  0.64400284097E+02 -0.30398919308E+02 -0.16745253359E+02  0.73275963296E+02  0.41800000000E+01 0. -1.
         -5    1    3    3    0  502 -0.47284299655E+02  0.27384109389E+02 -0.73678490583E+01  0.55294231531E+02  0.41800000000E+01 0. -1.
        -11    1    1    2    0    0 -0.39229997963E+02 -0.17525169168E+02  0.19128750164E+02  0.47032258901E+02  0.00000000000E+00 0.  1.
         11    1    1    2    0    0  0.22114013520E+02  0.20539979088E+02 -0.34585880354E+02  0.45903196563E+02  0.00000000000E+00 0. -1.
</event>
<event>
 7    1  0.2626349E-009  0.1425863E+03  0.7561462E-02  0.1209891E+00
          2   -1    0    0  501    0  0.00000000000E+00  0.00000000000E+00  0.11268975128E+04  0.11268975128E+04  0.00000000000E+00 0. -1.
         -2   -1    0    0    0  501 -0.00000000000E+00 -0.00000000000E+00 -0.25008109037E+02  0.25008109037E+02  0.00000000000E+00 0.  1.
         25    2    1    2    0    0  0.81867476474E+02  0.96891598206E+02  0.58952584725E+03  0.61585604882E+03  0.12509069820E+03 0.  0.
          5    1    3    3  502    0  0.55521880167E+02  0.13764807247E+02  0.77358401593E+02  0.96301317711E+02  0.41800000000E+01 0.  1.
         -5    1    3    3    0  502  0.26345596307E+02  0.83126790959E+02  0.51216744566E+03  0.51955473111E+03  0.41800000000E+01 0.  1.
        -11    1    1    2    0    0 -0.54433824299E+02 -0.99023860879E+02  0.48201863351E+03  0.49508658768E+03  0.00000000000E+00 0. -1.
         11    1    1    2    0    0 -0.27433652175E+02  0.21322626723E+01  0.30344922985E+02  0.40962985325E+02  0.00000000000E+00 0.  1.
</event>
<event>
 7    1  0.2626349E-009  0.1073069E+03  0.7561462E-02  0.1265640E+00
          1   -1    0    0  501    0  0.00000000000E+00  0.00000000000E+00  0.16802371374E+03  0.16802371374E+03  0.00000000000E+00 0. -1.
         -1   -1    0    0    0  501 -0.00000000000E+00 -0.00000000000E+00 -0.73641516610E+02  0.73641516610E+02  0.00000000000E+00 0.  1.
         25    2    1    2    0    0 -0.83687235944E+01 -0.87784673412E+01  0.28550505154E+02  0.12887483036E+03  0.12508594458E+03 0.  0.
          5    1    3    3  502    0  0.50583328474E+02  0.23259826192E+02  0.26031921047E+02  0.61602158626E+02  0.41800000000E+01 0. -1.
         -5    1    3    3    0  502 -0.58952052069E+02 -0.32038293533E+02  0.25185841071E+01  0.67272671729E+02  0.41800000000E+01 0. -1.
        -11    1    1    2    0    0  0.17996249414E+02 -0.38929078794E+02  0.32242149199E+02  0.53655329220E+02  0.00000000000E+00 0. -1.
         11    1    1    2    0    0 -0.96275258192E+01  0.47707546135E+02  0.33589542779E+02  0.59135070776E+02  0.00000000000E+00 0.  1.
</event>
<event>
 7    1  0.2626349E-009  0.1668100E+03  0.7561462E-02  0.1181216E+00
         -1   -1    0    0    0  501 -0.00000000000E+00  0.00000000000E+00  0.21579323356E+03  0.21579323356E+03  0.00000000000E+00 0.  1.
          1   -1    0    0  501    0  0.00000000000E+00 -0.00000000000E+00 -0.14498933571E+03  0.14498933571E+03  0.00000000000E+00 0. -1.
         25    2    1    2    0    0 -0.11328775210E+03  0.80848596318E+02  0.29176317001E+02  0.18938922287E+03  0.12508561054E+03 0.  0.
          5    1    3    3  502    0 -0.86197809448E+02  0.10221175705E+03 -0.13388141970E+02  0.13443965329E+03  0.41800000000E+01 0. -1.
         -5    1    3    3    0  502 -0.27089942656E+02 -0.21363160730E+02  0.42564458971E+02  0.54949569580E+02  0.41800000000E+01 0. -1.
        -11    1    1    2    0    0  0.10719680331E+03 -0.26521569666E+02  0.18205078594E+02  0.11191949421E+03  0.00000000000E+00 0.  1.
         11    1    1    2    0    0  0.60909487893E+01 -0.54327026652E+02  0.23422502258E+02  0.59473852188E+02  0.00000000000E+00 0. -1.
</event>
<event>
 7    1  0.2626349E-009  0.1129005E+03  0.7561462E-02  0.1255291E+00
          1   -1    0    0  501    0  0.00000000000E+00  0.00000000000E+00  0.77486365173E+03  0.77486365173E+03  0.00000000000E+00 0. -1.
         -1   -1    0    0    0  501 -0.00000000000E+00 -0.00000000000E+00 -0.34996792072E+02  0.34996792072E+02  0.00000000000E+00 0.  1.
         25    2    1    2    0    0 -0.66546297545E+02  0.73738635235E+01  0.64997449166E+03  0.66527898653E+03  0.12508599653E+03 0.  0.
          5    1    3    3  502    0 -0.69542077740E+02  0.39477980193E+02  0.22074806834E+03  0.23482289831E+03  0.41800000000E+01 0. -1.
         -5    1    3    3    0  502  0.29957801947E+01 -0.32104116670E+02  0.42922642332E+03  0.43045608822E+03  0.41800000000E+01 0. -1.
        -11    1    1    2    0    0  0.64585007596E+02  0.33180889093E+02  0.56123105890E+02  0.91771442300E+02  0.00000000000E+00 0. -1.
         11    1    1    2    0    0  0.19612899484E+01 -0.40554752616E+02  0.33769262106E+02  0.52810014971E+02  0.00000000000E+00 0.  1.
</event>
<event>
 7    1  0.2626349E-009  0.1010436E+03  0.7561462E-02  0.1278117E+00
          2   -1    0    0  501    0  0.00000000000E+00  0.00000000000E+00  0.68568890942E+03  0.68568890942E+03  0.00000000000E+00 0. -1.
         -2   -1    0    0    0  501 -0.00000000000E+00 -0.00000000000E+00 -0.17070106234E+02  0.17070106234E+02  0.00000000000E+00 0.  1.
         25    2    1    2    0    0 -0.89193815272E+01  0.61804435155E+01  0.48946606396E+03  0.50531420015E+03  0.12509060656E+03 0.  0.
          5    1    3    3  502    0  0.54979710134E+02  0.51316505424E+01  0.15081213986E+03  0.16065763689E+03  0.41800000000E+01 0.  1.
         -5    1    3    3    0  502 -0.63899091661E+02  0.10487929731E+01  0.33865392411E+03  0.34465656326E+03  0.41800000000E+01 0.  1.
        -11    1    1    2    0    0 -0.77188740232E+01  0.36264449376E+02  0.89203121572E+02  0.96601698758E+02  0.00000000000E+00 0. -1.
         11    1    1    2    0    0  0.16638255550E+02 -0.42444892892E+02  0.89949617655E+02  0.10084311675E+03  0.00000000000E+00 0.  1.
</event>
<event>
 7    1  0.2626349E-009  0.7751066E+02  0.7561462E-02  0.1336268E+00
         -2   -1    0    0    0  501 -0.00000000000E+00  0.00000000000E+00  0.14924474408E+03  0.14924474408E+03  0.00000000000E+00 0. -1.
          2   -1    0    0  501    0  0.00000000000E+00 -0.00000000000E+00 -0.10325464402E+03  0.10325464402E+03  0.00000000000E+00 0.  1.
         25    2    1    2    0    0 -0.38798569356E+01  0.46794515017E+02 -0.12160939684E+02  0.13416153401E+03  0.12508656533E+03 0.  0.
          5    1    3    3  502    0 -0.22252061404E+02 -0.22397017425E+02  0.35780656201E+02  0.47901026966E+02  0.41800000000E+01 0.  1.
         -5    1    3    3    0  502  0.18372204468E+02  0.69191532442E+02 -0.47941595885E+02  0.86260507039E+02  0.41800000000E+01 0.  1.
        -11    1    1    2    0    0 -0.69876353335E+01 -0.33838903317E+02 -0.18947306983E+02  0.39406837822E+02  0.00000000000E+00 0.  1.
         11    1    1    2    0    0  0.10867492269E+02 -0.12955611700E+02  0.77098346725E+02  0.78931016276E+02  0.00000000000E+00 0. -1.
</event>
<event>
 7    1  0.2626349E-009  0.1201658E+03  0.7561462E-02  0.1242824E+00
         -2   -1    0    0    0  501 -0.00000000000E+00  0.00000000000E+00  0.80021236726E+02  0.80021236726E+02  0.00000000000E+00 0.  1.
          2   -1    0    0  501    0  0.00000000000E+00 -0.00000000000E+00 -0.29349384812E+03  0.29349384812E+03  0.00000000000E+00 0. -1.
         25    2    1    2    0    0  0.60786625867E+02  0.21781567317E+02 -0.99808212114E+01  0.14112540619E+03  0.12508921984E+03 0.  0.
          5    1    3    3  502    0 -0.30595667913E+02 -0.17338667760E+02  0.15134052423E+02  0.38512806149E+02  0.41800000000E+01 0.  1.
         -5    1    3    3    0  502  0.91382293780E+02  0.39120235077E+02 -0.25114873634E+02  0.10261260004E+03  0.41800000000E+01 0.  1.
        -11    1    1    2    0    0  0.51879910093E+01  0.24366433134E+02 -0.19781435168E+02  0.31811059267E+02  0.00000000000E+00 0.  1.
         11    1    1    2    0    0 -0.65974616876E+02 -0.46148000450E+02 -0.18371035501E+03  0.20057861939E+03  0.00000000000E+00 0. -1.
</event>
<event>
 7    1  0.2626349E-009  0.1127491E+03  0.7561462E-02  0.1255562E+00
         -2   -1    0    0    0  501 -0.00000000000E+00  0.00000000000E+00  0.11436517195E+03  0.11436517195E+03  0.00000000000E+00 0.  1.
          2   -1    0    0  501    0  0.00000000000E+00 -0.00000000000E+00 -0.17996248218E+03  0.17996248218E+03  0.00000000000E+00 0. -1.
         25    2    1    2    0    0 -0.37953621311E+02 -0.57368581098E+02  0.25870232549E+02  0.14508126701E+03  0.12509066168E+03 0.  0.
          5    1    3    3  502    0 -0.57217129463E+02  0.17525964405E+02 -0.80664857635E+01  0.60526852924E+02  0.41800000000E+01 0.  1.
         -5    1    3    3    0  502  0.19263508153E+02 -0.74894545503E+02  0.33936718312E+02  0.84554414090E+02  0.41800000000E+01 0.  1.
        -11    1    1    2    0    0  0.33447359284E+02  0.68405467702E+02 -0.22704666917E+02  0.79457760819E+02  0.00000000000E+00 0.  1.
         11    1    1    2    0    0  0.45062620265E+01 -0.11036886604E+02 -0.68762875861E+02  0.69788626294E+02  0.00000000000E+00 0. -1.
</event>
<event>
 7    1  0.2626349E-009  0.1012950E+03  0.7561462E-02  0.1277596E+00
          1   -1    0    0  501    0  0.00000000000E+00  0.00000000000E+00  0.49945054507E+03  0.49945054507E+03  0.00000000000E+00 0. -1.
         -1   -1    0    0    0  501 -0.00000000000E+00 -0.00000000000E+00 -0.43667320007E+02  0.43667320007E+02  0.00000000000E+00 0.  1.
         25    2    1    2    0    0 -0.76791202972E+02  0.11577111326E+02  0.13045017662E+03  0.19671107450E+03  0.12508828838E+03 0.  0.
          5    1    3    3  502    0 -0.32517450436E+02 -0.22792901309E+02  0.13455727284E+03  0.14035680606E+03  0.41800000000E+01 0.  1.
         -5    1    3    3    0  502 -0.44273752537E+02  0.34370012635E+02 -0.41070962194E+01  0.56354268441E+02  0.41800000000E+01 0.  1.
        -11    1    1    2    0    0 -0.14264714415E+02 -0.51781193509E+01  0.10113103341E+02  0.18236497924E+02  0.00000000000E+00 0.  1.
         11    1    1    2    0    0  0.91055917387E+02 -0.63989919751E+01  0.31521994510E+03  0.32817029265E+03  0.00000000000E+00 0. -1.
</event>
<event>
 7    1  0.2626349E-009  0.1058043E+03  0.7561462E-02  0.1268543E+00
          1   -1    0    0  501    0  0.00000000000E+00  0.00000000000E+00  0.41974771092E+03  0.41974771092E+03  0.00000000000E+00 0. -1.
         -1   -1    0    0    0  501 -0.00000000000E+00 -0.00000000000E+00 -0.42919568104E+02  0.42919568104E+02  0.00000000000E+00 0.  1.
         25    2    1    2    0    0 -0.46801868079E+02 -0.59706080525E+02  0.23396599099E+03  0.27594053929E+03  0.12509142806E+03 0.  0.
          5    1    3    3  502    0 -0.34567542840E+02 -0.69986824348E+02  0.24426947107E+03  0.25647244978E+03  0.41800000000E+01 0. -1.
         -5    1    3    3    0  502 -0.12234325240E+02  0.10280743824E+02 -0.10303480072E+02  0.19468089511E+02  0.41800000000E+01 0. -1.
        -11    1    1    2    0    0 -0.25527567604E+02  0.44791860133E+01  0.15517994871E+02  0.30208078057E+02  0.00000000000E+00 0.  1.
         11    1    1    2    0    0  0.72329435683E+02  0.55226894511E+02  0.12734415695E+03  0.15651866168E+03  0.00000000000E+00 0. -1.
</event>
<event>
 7    1  0.2626349E-009  0.2288266E+03  0.7561462E-02  0.1127468E+00
          1   -1    0    0  501    0  0.00000000000E+00  0.00000000000E+00  0.97173819637E+03  0.97173819637E+03  0.00000000000E+00 0. -1.
         -1   -1    0    0    0  501 -0.00000000000E+00 -0.00000000000E+00 -0.66586799283E+02  0.66586799283E+02  0.00000000000E+00 0.  1.
         25    2    1    2    0    0  0.20109853854E+03  0.86941721989E+02  0.32481040003E+03  0.41127952536E+03  0.12509822856E+03 0.  0.
          5    1    3    3  502    0  0.12525485138E+03  0.43359106347E+02  0.88939722495E+02  0.15967634933E+03  0.41800000000E+01 0. -1.
         -5    1    3    3    0  502  0.75843687158E+02  0.43582615642E+02  0.23587067754E+03  0.25160317603E+03  0.41800000000E+01 0. -1.
        -11    1    1    2    0    0 -0.63877378294E+02 -0.76768255838E+02  0.24348805375E+03  0.26317316900E+03  0.00000000000E+00 0.  1.
         11    1    1    2    0    0 -0.13722116025E+03 -0.10173466151E+02  0.33685294330E+03  0.36387230128E+03  0.00000000000E+00 0. -1.
</event>
<event>
 7    1  0.2626349E-009  0.1116020E+03  0.7561462E-02  0.1257632E+00
         -1   -1    0    0    0  501 -0.00000000000E+00  0.00000000000E+00  0.29069336497E+02  0.29069336497E+02  0.00000000000E+00 0.  1.
          1   -1    0    0  501    0  0.00000000000E+00 -0.00000000000E+00 -0.52476747375E+03  0.52476747375E+03  0.00000000000E+00 0. -1.
         25    2    1    2    0    0  0.32413182533E+02 -0.37958110157E+01 -0.16484610564E+03  0.20949206663E+03  0.12509062656E+03 0.  0.
          5    1    3    3  502    0  0.39133891278E+02 -0.59947474278E+02 -0.79955084308E+02  0.10740320771E+03  0.41800000000E+01 0.  1.
         -5    1    3    3    0  502 -0.67207087451E+01  0.56151663263E+02 -0.84891021332E+02  0.10208885892E+03  0.41800000000E+01 0.  1.
        -11    1    1    2    0    0 -0.63508569961E+02  0.46436796701E+01 -0.20245048254E+03  0.21222888611E+03  0.00000000000E+00 0.  1.
         11    1    1    2    0    0  0.31095387428E+02 -0.84786865434E+00 -0.12840154907E+03  0.13211585750E+03  0.00000000000E+00 0. -1.
</event>
<event>
 7    1  0.2626349E-009  0.9951373E+02  0.7561462E-02  0.1281322E+00
         -1   -1    0    0    0  501 -0.00000000000E+00  0.00000000000E+00  0.66062714371E+02  0.66062714371E+02  0.00000000000E+00 0.  1.
          1   -1    0    0  501    0  0.00000000000E+00 -0.00000000000E+00 -0.18223863031E+03  0.18223863031E+03  0.00000000000E+00 0. -1.
         25    2    1    2    0    0  0.11801103076E+02  0.60023053418E+01 -0.69612485942E+02  0.14376106017E+03  0.12508417373E+03 0.  0.
          5    1    3    3  502    0  0.23780009053E+02  0.58267211403E+02 -0.10668220120E+02  0.63967492336E+02  0.41800000000E+01 0. -1.
         -5    1    3    3    0  502 -0.11978905978E+02 -0.52264906061E+02 -0.58944265823E+02  0.79793567832E+02  0.41800000000E+01 0. -1.
        -11    1    1    2    0    0 -0.44223968089E+02  0.10987521884E+02 -0.50149685909E+02  0.67760430838E+02  0.00000000000E+00 0. -1.
         11    1    1    2    0    0  0.32422865013E+02 -0.16989827225E+02  0.35862559117E+01  0.36779853674E+02  0.00000000000E+00 0.  1.
</event>
<event>
 7    1  0.2626349E-009  0.1122618E+03  0.7561462E-02  0.1256438E+00
         -1   -1    0    0    0  501 -0.00000000000E+00  0.00000000000E+00  0.32662592339E+03  0.32662592339E+03  0.00000000000E+00 0.  1.
          1   -1    0    0  501    0  0.00000000000E+00 -0.00000000000E+00 -0.80016690568E+02  0.80016690568E+02  0.00000000000E+00 0. -1.
         25    2    1    2    0    0  0.46266643776E+01 -0.58292705936E+02  0.69855795706E+00  0.13808664769E+03  0.12509192100E+03 0.  0.
          5    1    3    3  502    0  0.26447971837E+02  0.23459110046E+02  0.31905576693E+02  0.47804427437E+02  0.41800000000E+01 0. -1.
         -5    1    3    3    0  502 -0.21821307460E+02 -0.81751815982E+02 -0.31207018736E+02  0.90282220254E+02  0.41800000000E+01 0. -1.
        -11    1    1    2    0    0  0.18757189116E+00  0.80997520962E+02  0.15695736813E+03  0.17662459906E+03  0.00000000000E+00 0.  1.
         11    1    1    2    0    0 -0.48142362687E+01 -0.22704815027E+02  0.88953306744E+02  0.91931367209E+02  0.00000000000E+00 0. -1.
</event>
<event>
 7    1  0.2626349E-009  0.1317718E+03  0.7561462E-02  0.1224850E+00
          2   -1    0    0  501    0  0.00000000000E+00  0.00000000000E+00  0.30246439487E+03  0.30246439487E+03  0.00000000000E+00 0. -1.
         -2   -1    0    0    0  501 -0.00000000000E+00 -0.00000000000E+00 -0.97846673623E+02  0.97846673623E+02  0.00000000000E+00 0.  1.
         25    2    1    2    0    0  0.11035497942E+03 -0.67376656166E+01  0.19559458106E+03  0.25715485321E+03  0.12509100993E+03 0.  0.
          5    1    3    3  502    0 -0.13210131037E+02  0.76453883255E+01 -0.86027169537E+01  0.18012180980E+02  0.41800000000E+01 0.  1.
         -5    1    3    3    0  502  0.12356511046E+03 -0.14383053942E+02  0.20419729802E+03  0.23914267223E+03  0.41800000000E+01 0.  1.
        -11    1    1    2    0    0 -0.73399033963E+02 -0.21787668197E+02 -0.30077510282E+02  0.82260423636E+02  0.00000000000E+00 0.  1.
         11    1    1    2    0    0 -0.36955945457E+02  0.28525333814E+02  0.39100650467E+02  0.60895791650E+02  0.00000000000E+00 0. -1.
</event>
<event>
 7    1  0.2626349E-009  0.1617725E+03  0.7561462E-02  0.1186710E+00
          4   -1    0    0  501    0  0.00000000000E+00  0.00000000000E+00  0.45309499273E+02  0.45309499273E+02  0.00000000000E+00 0. -1.
         -4   -1    0    0    0  501 -0.00000000000E+00 -0.00000000000E+00 -0.71281670390E+03  0.71281670390E+03  0.00000000000E+00 0.  1.
         25    2    1    2    0    0  0.54717442147E+02 -0.10143468908E+03 -0.42554579834E+03  0.45827914602E+03  0.12509018574E+03 0.  0.
          5    1    3    3  502    0 -0.30518859911E+02  0.66584616301E+01 -0.62665702472E+02  0.70144127251E+02  0.41800000000E+01 0.  1.
         -5    1    3    3    0  502  0.85236302058E+02 -0.10809315071E+03 -0.36288009587E+03  0.38813501877E+03  0.41800000000E+01 0.  1.
        -11    1    1    2    0    0 -0.94696575791E+00  0.10052709852E+03 -0.77854248882E+02  0.12715297224E+03  0.00000000000E+00 0. -1.
         11    1    1    2    0    0 -0.53770476389E+02  0.90759056341E+00 -0.16410715741E+03  0.17269408491E+03  0.00000000000E+00 0.  1.
</event>
<event>
 7    1  0.2626349E-009  0.1488447E+03  0.7561462E-02  0.1201900E+00
         -2   -1    0    0    0  501 -0.00000000000E+00  0.00000000000E+00  0.41372679431E+03  0.41372679431E+03  0.00000000000E+00 0. -1.
          2   -1    0    0  501    0  0.00000000000E+00 -0.00000000000E+00 -0.12064672210E+03  0.12064672210E+03  0.00000000000E+00 0.  1.
         25    2    1    2    0    0  0.24594183799E+02  0.10207822300E+03 -0.44360056065E+02  0.16924397660E+03  0.12510344342E+03 0.  0.
          5    1    3    3  502    0 -0.86156353743E+01  0.12111800941E+03 -0.47847636152E+02  0.13057821434E+03  0.41800000000E+01 0.  1.
         -5    1    3    3    0  502  0.33209819174E+02 -0.19039786410E+02  0.34875800878E+01  0.38665762257E+02  0.41800000000E+01 0.  1.
        -11    1    1    2    0    0 -0.42312405015E+02 -0.94201456837E+01  0.13498051426E+03  0.14177030011E+03  0.00000000000E+00 0.  1.
         11    1    1    2    0    0  0.17718221216E+02 -0.92658077312E+02  0.20245961401E+03  0.22335923970E+03  0.00000000000E+00 0. -1.
</event>
<event>
 7    1  0.2626349E-009  0.1521585E+03  0.7561462E-02  0.1197845E+00
          1   -1    0    0  501    0  0.00000000000E+00  0.00000000000E+00  0.12561154545E+03  0.12561154545E+03  0.00000000000E+00 0. -1.
         -1   -1    0    0    0  501 -0.00000000000E+00 -0.00000000000E+00 -0.22859392766E+03  0.22859392766E+03  0.00000000000E+00 0.  1.
         25    2    1    2    0    0 -0.95269485096E+01  0.10839106543E+03  0.18270755966E+02  0.16679992976E+03  0.12509600406E+03 0.  0.
          5    1    3    3  502    0  0.57221062075E+02  0.39379375844E+02  0.47101650160E+01  0.69746994496E+02  0.41800000000E+01 0.  1.
         -5    1    3    3    0  502 -0.66748010584E+02  0.69011689589E+02  0.13560590950E+02  0.97052935266E+02  0.41800000000E+01 0.  1.
        -11    1    1    2    0    0 -0.31575142847E+02 -0.11891662720E+02 -0.51046761760E+02  0.61189649241E+02  0.00000000000E+00 0.  1.
         11    1    1    2    0    0  0.41102091357E+02 -0.96499402712E+02 -0.70206376413E+02  0.12621589411E+03  0.00000000000E+00 0. -1.
</event>
<event>
 7    1  0.2626349E-009  0.1173876E+03  0.7561462E-02  0.1247470E+00
          2   -1    0    0  501    0  0.00000000000E+00  0.00000000000E+00  0.71664358607E+03  0.71664358607E+03  0.00000000000E+00 0. -1.
         -2   -1    0    0    0  501 -0.00000000000E+00 -0.00000000000E+00 -0.22570661438E+02  0.22570661438E+02  0.00000000000E+00 0.  1.
         25    2    1    2    0    0 -0.12039375570E+02 -0.63268566962E+02  0.43010186464E+03  0.45252895351E+03  0.12508789579E+03 0.  0.
          5    1    3    3  502    0 -0.32512449351E+02  0.19508936350E+02  0.49629410044E+02  0.62595596503E+02  0.41800000000E+01 0. -1.
         -5    1    3    3    0  502  0.20473073781E+02 -0.82777503312E+02  0.38047245459E+03  0.38993335701E+03  0.41800000000E+01 0. -1.
        -11    1    1    2    0    0  0.51644477466E+02  0.39970430075E+02  0.16910616778E+03  0.18127791733E+03  0.00000000000E+00 0.  1.
         11    1    1    2    0    0 -0.39605101897E+02  0.23298136887E+02  0.94864892218E+02  0.10540737666E+03  0.00000000000E+00 0. -1.
</event>
<event>
 7    1  0.2626349E-009  0.1101538E+03  0.7561462E-02  0.1260285E+00
          2   -1    0    0  501    0  0.00000000000E+00  0.00000000000E+00  0.19796914160E+03  0.19796914160E+03  0.00000000000E+00 0. -1.
         -2   -1    0    0    0  501 -0.00000000000E+00 -0.00000000000E+00 -0.83832209783E+02  0.83832209783E+02  0.00000000000E+00 0.  1.
         25    2    1    2    0    0 -0.17394306458E+02  0.66475356771E+02  0.64094001206E+02  0.15644607780E+03  0.12508316959E+03 0.  0.
          5    1    3    3  502    0 -0.45578167785E+02  0.11225446202E+02 -0.20562929188E+02  0.51416791789E+02  0.41800000000E+01 0.  1.
         -5    1    3    3    0  502  0.28183861327E+02  0.55249910569E+02  0.84656930393E+02  0.10502928602E+03  0.41800000000E+01 0.  1.
        -11    1    1    2    0    0  0.27929339729E+02 -0.85129732762E+02  0.26297750914E+02  0.93373931699E+02  0.00000000000E+00 0.  1.
         11    1    1    2    0    0 -0.10535033271E+02  0.18654375991E+02  0.23745179698E+02  0.31981341882E+02  0.00000000000E+00 0. -1.
</event>
<event>
 7    1  0.2626349E-009  0.1277463E+03  0.7561462E-02  0.1230839E+00
         -2   -1    0    0    0  501 -0.00000000000E+00  0.00000000000E+00  0.22787614577E+02  0.22787614577E+02  0.00000000000E+00 0. -1.
          2   -1    0    0  501    0  0.00000000000E+00 -0.00000000000E+00 -0.11232308791E+04  0.11232308791E+04  0.00000000000E+00 0.  1.
         25    2    1    2    0    0  0.48523953924E+02 -0.10128332331E+03 -0.71372100131E+03  0.73325210185E+03  0.12509233178E+03 0.  0.
          5    1    3    3  502    0  0.41957403712E+02 -0.41717702767E+01 -0.67274402075E+02  0.79505628531E+02  0.41800000000E+01 0. -1.
         -5    1    3    3    0  502  0.65665502124E+01 -0.97111553038E+02 -0.64644659924E+03  0.65374647332E+03  0.41800000000E+01 0. -1.
        -11    1    1    2    0    0 -0.12714566941E+02  0.58694188488E+02 -0.32137695730E+03  0.32694008114E+03  0.00000000000E+00 0.  1.
         11    1    1    2    0    0 -0.35809386983E+02  0.42589134827E+02 -0.65345305936E+02  0.85826310705E+02  0.00000000000E+00 0. -1.
</event>
<event>
 7    1  0.2626349E-009  0.1464774E+03  0.7561462E-02  0.1204870E+00
         -1   -1    0    0    0  501 -0.00000000000E+00  0.00000000000E+00  0.53560767839E+02  0.53560767839E+02  0.00000000000E+00 0.  1.
          1   -1    0    0  501    0  0.00000000000E+00 -0.00000000000E+00 -0.78536980025E+03  0.78536980025E+03  0.00000000000E+00 0. -1.
         25    2    1    2    0    0  0.10937151091E+03 -0.26531016954E+02 -0.11125095172E+03  0.20171765736E+03  0.12508883553E+03 0.  0.
          5    1    3    3  502    0  0.38349729593E+02 -0.58712734932E+02 -0.57827337092E+01  0.70489711393E+02  0.41800000000E+01 0. -1.
         -5    1    3    3    0  502  0.71021781314E+02  0.32181717978E+02 -0.10546821801E+03  0.13122794597E+03  0.41800000000E+01 0. -1.
        -11    1    1    2    0    0 -0.66700919323E+02  0.60520003160E+02 -0.39872289783E+03  0.40876843405E+03  0.00000000000E+00 0.  1.
         11    1    1    2    0    0 -0.42670591584E+02 -0.33988986207E+02 -0.22183518286E+03  0.22844447668E+03  0.00000000000E+00 0. -1.
</event>
<event>
 7    1  0.2626349E-009  0.1059686E+03  0.7561462E-02  0.1268223E+00
          1   -1    0    0  501    0  0.00000000000E+00  0.00000000000E+00  0.13797815943E+03  0.13797815943E+03  0.00000000000E+00 0. -1.
         -1   -1    0    0    0  501 -0.00000000000E+00 -0.00000000000E+00 -0.10201590954E+03  0.10201590954E+03  0.00000000000E+00 0.  1.
         25    2    1    2    0    0 -0.24379201992E+02 -0.72494946047E+00  0.50938616356E+02  0.13724623947E+03  0.12508763556E+03 0.  0.
          5    1    3    3  502    0  0.33609290452E+02 -0.31905950548E+02 -0.98232469876E+01  0.47555679645E+02  0.41800000000E+01 0.  1.
         -5    1    3    3    0  502 -0.57988492444E+02  0.31181001088E+02  0.60761863344E+02  0.89690559826E+02  0.41800000000E+01 0.  1.
        -11    1    1    2    0    0 -0.17085198282E+02 -0.38647131403E+02 -0.16966008891E+02  0.45534055648E+02  0.00000000000E+00 0.  1.
         11    1    1    2    0    0  0.41464400274E+02  0.39372080863E+02  0.19896424315E+01  0.57213773854E+02  0.00000000000E+00 0. -1.
</event>
<event>
 7    1  0.2626349E-009  0.1250202E+03  0.7561462E-02  0.1235038E+00
         -1   -1    0    0    0  501 -0.00000000000E+00  0.00000000000E+00  0.30578268016E+02  0.30578268016E+02  0.00000000000E+00 0.  1.
          1   -1    0    0  501    0  0.00000000000E+00 -0.00000000000E+00 -0.55602778327E+03  0.55602778327E+03  0.00000000000E+00 0. -1.
         25    2    1    2    0    0 -0.62137458888E+02 -0.28744637441E+02 -0.30803061513E+03  0.33943623470E+03  0.12508708803E+03 0.  0.
          5    1    3    3  502    0  0.73698111766E+01 -0.60155909030E+02 -0.18399572224E+03  0.19376518189E+03  0.41800000000E+01 0. -1.
         -5    1    3    3    0  502 -0.69507270064E+02  0.31411271589E+02 -0.12403489289E+03  0.14567105282E+03  0.41800000000E+01 0. -1.
        -11    1    1    2    0    0  0.49827703027E+02  0.60772988790E+02 -0.17995760968E+03  0.19636928843E+03  0.00000000000E+00 0. -1.
         11    1    1    2    0    0  0.12309755861E+02 -0.32028351349E+02 -0.37461290442E+02  0.50800528157E+02  0.00000000000E+00 0.  1.
</event>
<event>
 7    1  0.2626349E-009  0.9991887E+02  0.7561462E-02  0.1280467E+00
          2   -1    0    0  501    0  0.00000000000E+00  0.00000000000E+00  0.27088708270E+03  0.27088708270E+03  0.00000000000E+00 0. -1.
         -2   -1    0    0    0  501 -0.00000000000E+00 -0.00000000000E+00 -0.49742469108E+02  0.49742469108E+02  0.00000000000E+00 0.  1.
         25    2    1    2    0    0  0.22981985275E+02  0.35968389999E+02  0.16810940624E+03  0.21384811468E+03  0.12509335298E+03 0.  0.
          5    1    3    3  502    0 -0.31216806163E+02  0.63765965351E+02  0.90653765581E+02  0.11522224151E+03  0.41800000000E+01 0.  1.
         -5    1    3    3    0  502  0.54198791438E+02 -0.27797575351E+02  0.77455640657E+02  0.98625873169E+02  0.41800000000E+01 0.  1.
        -11    1    1    2    0    0 -0.81602859745E+01  0.13636159909E+02 -0.14617854837E+02  0.21592054193E+02  0.00000000000E+00 0.  1.
         11    1    1    2    0    0 -0.14821699301E+02 -0.49604549908E+02  0.67653062193E+02  0.85189382940E+02  0.00000000000E+00 0. -1.
</event>
<event>
 7    1  0.2626349E-009  0.8813283E+02  0.7561462E-02  0.1307437E+00
          2   -1    0    0  501    0  0.00000000000E+00  0.00000000000E+00  0.77253475604E+03  0.77253475604E+03  0.00000000000E+00 0. -1.
         -2   -1    0    0    0  501 -0.00000000000E+00 -0.00000000000E+00 -0.16236638661E+02  0.16236638661E+02  0.00000000000E+00 0.  1.
         25    2    1    2    0    0  0.75105619377E+01  0.14826050023E+02  0.52531819480E+03  0.54026190191E+03  0.12508995392E+03 0.  0.
          5    1    3    3  502    0  0.19041215332E+02 -0.31293321160E+02  0.47809002732E+02  0.60373942829E+02  0.41800000000E+01 0.  1.
         -5    1    3    3    0  502 -0.11530653394E+02  0.46119371183E+02  0.47750919207E+03  0.47988795908E+03  0.41800000000E+01 0.  1.
        -11    1    1    2    0    0 -0.90253557390E+01  0.37883177211E+02  0.96755796285E+02  0.10429897543E+03  0.00000000000E+00 0.  1.
         11    1    1    2    0    0  0.15147938013E+01 -0.52709227234E+02  0.13422412630E+03  0.14421051735E+03  0.00000000000E+00 0. -1.
</event>
<event>
 7    1  0.2626349E-009  0.1430098E+03  0.7561462E-02  0.1209335E+00
          1   -1    0    0  501    0  0.00000000000E+00  0.00000000000E+00  0.26687796439E+03  0.26687796439E+03  0.00000000000E+00 0. -1.
         -1   -1    0    0    0  501 -0.00000000000E+00 -0.00000000000E+00 -0.99825721114E+02  0.99825721114E+02  0.00000000000E+00 0.  1.
         25    2    1    2    0    0 -0.54779610896E+02 -0.10604515118E+03  0.10233690068E+03  0.20091459509E+03  0.12508978144E+03 0.  0.
          5    1    3    3  502    0 -0.67523654650E+02 -0.13182383755E+02  0.10677435414E+02  0.69747395692E+02  0.41800000000E+01 0.  1.
         -5    1    3    3    0  502  0.12744043754E+02 -0.92862767422E+02  0.91659465264E+02  0.13116719939E+03  0.41800000000E+01 0.  1.
        -11    1    1    2    0    0 -0.44759260497E+00  0.26088924853E+02 -0.23073564604E+02  0.34831332485E+02  0.00000000000E+00 0.  1.
         11    1    1    2    0    0  0.55227203501E+02  0.79956226324E+02  0.87788907199E+02  0.13095775793E+03  0.00000000000E+00 0. -1.
</event>
<event>
 7    1  0.2626349E-009  0.1091915E+03  0.7561462E-02  0.1262074E+00
          4   -1    0    0  501    0  0.00000000000E+00  0.00000000000E+00  0.33925124369E+03  0.33925124369E+03  0.00000000000E+00 0. -1.
         -4   -1    0    0    0  501 -0.00000000000E+00 -0.00000000000E+00 -0.62088118907E+02  0.62088118907E+02  0.00000000000E+00 0.  1.
         25    2    1    2    0    0  0.13040795539E+02 -0.76650294857E+02  0.78606782993E+02  0.16695030639E+03  0.12509215972E+03 0.  0.
          5    1    3    3  502    0 -0.21366995453E+02 -0.21898362366E+02 -0.28333539071E+02  0.41908812979E+02  0.41800000000E+01 0.  1.
         -5    1    3    3    0  502  0.34407790992E+02 -0.54751932491E+02  0.10694032206E+03  0.12504149342E+03  0.41800000000E+01 0.  1.
        -11    1    1    2    0    0  0.14787897556E+01  0.97381333453E+02  0.17229559919E+03  0.19791686240E+03  0.00000000000E+00 0. -1.
         11    1    1    2    0    0 -0.14519585295E+02 -0.20731038596E+02  0.26260742601E+02  0.36472193797E+02  0.00000000000E+00 0.  1.
</event>
<event>
 7    1  0.2657585E-009  0.8627590E+02  0.7561462E-02  0.1312129E+00
         -2   -1    0    0    0  501 -0.00000000000E+00  0.00000000000E+00  0.55717256608E+02  0.55717256608E+02  0.00000000000E+00 0.  1.
          2   -1    0    0  501    0  0.00000000000E+00 -0.00000000000E+00 -0.32897230946E+03  0.32897230946E+03  0.00000000000E+00 0. -1.
         25    2    1    2    0    0 -0.78565212029E+02  0.76762745639E+01 -0.17180113798E+03  0.22670386314E+03  0.12509033862E+03 0.  0.
          5    1    3    3  502    0 -0.46045895019E+02  0.20860381201E+02 -0.18278932764E+03  0.18969657522E+03  0.41800000000E+01 0.  1.
         -5    1    3    3    0  502 -0.32519317010E+02 -0.13184106637E+02  0.10988189660E+02  0.37007287912E+02  0.41800000000E+01 0.  1.
        -11    1    1    2    0    0  0.46075885680E+02  0.13129337361E+02  0.16105154597E+01  0.47937047268E+02  0.00000000000E+00 0.  1.
         11    1    1    2    0    0  0.32489326350E+02 -0.20805611925E+02 -0.10306443033E+03  0.11004865567E+03  0.00000000000E+00 0. -1.
</event>
<event>
 7    1  0.2626349E-009  0.9746294E+02  0.7561462E-02  0.1285723E+00
          3   -1    0    0  501    0  0.00000000000E+00  0.00000000000E+00  0.35751351668E+03  0.35751351668E+03  0.00000000000E+00 0. -1.
         -3   -1    0    0    0  501 -0.00000000000E+00 -0.00000000000E+00 -0.39612551681E+02  0.39612551681E+02  0.00000000000E+00 0.  1.
         25    2    1    2    0    0  0.37337947878E+01  0.48309814432E+02  0.21644529797E+03  0.25464583370E+03  0.12509258256E+03 0.  0.
          5    1    3    3  502    0 -0.39887283073E+02  0.49320292570E+00  0.14677986877E+02  0.42710119396E+02  0.41800000000E+01 0. -1.
         -5    1    3    3    0  502  0.43621077861E+02  0.47816611506E+02  0.20176731109E+03  0.21193571430E+03  0.41800000000E+01 0. -1.
        -11    1    1    2    0    0  0.28366142266E+02  0.39370692507E+01  0.65277831011E+02  0.71283474682E+02  0.00000000000E+00 0. -1.
         11    1    1    2    0    0 -0.32099937054E+02 -0.52246883682E+02  0.36177836021E+02  0.71196759986E+02  0.00000000000E+00 0.  1.
</event>
<event>
 7    1  0.2626349E-009  0.1362113E+03  0.7561462E-02  0.1218520E+00
         -2   -1    0    0    0  501 -0.00000000000E+00  0.00000000000E+00  0.18699443453E+03  0.18699443453E+03  0.00000000000E+00 0.  1.
          2   -1    0    0  501    0  0.00000000000E+00 -0.00000000000E+00 -0.11274278982E+03  0.11274278982E+03  0.00000000000E+00 0. -1.
         25    2    1    2    0    0 -0.46189557359E+02  0.83185068639E+02  0.61423991646E+02  0.16874130391E+03  0.12508992781E+03 0.  0.
          5    1    3    3  502    0  0.38352117663E+02  0.56454805848E+02  0.25338126542E+02  0.72921348652E+02  0.41800000000E+01 0. -1.
         -5    1    3    3    0  502 -0.84541675023E+02  0.26730262791E+02  0.36085865103E+02  0.95819955254E+02  0.41800000000E+01 0. -1.
        -11    1    1    2    0    0 -0.13773837893E+02 -0.37337998641E+02  0.34278546763E+02  0.52524884778E+02  0.00000000000E+00 0.  1.
         11    1    1    2    0    0  0.59963395252E+02 -0.45847069998E+02 -0.21450893708E+02  0.78471035665E+02  0.00000000000E+00 0. -1.
</event>
<event>
 7    1  0.2626349E-009  0.1199865E+03  0.7561462E-02  0.1243119E+00
          2   -1    0    0  501    0  0.00000000000E+00  0.00000000000E+00  0.61566298218E+02  0.61566298218E+02  0.00000000000E+00 0. -1.
         -2   -1    0    0    0  501 -0.00000000000E+00 -0.00000000000E+00 -0.46077377458E+03  0.46077377458E+03  0.00000000000E+00 0.  1.
         25    2    1    2    0    0 -0.39692743133E+02 -0.11054445788E+03 -0.32007779338E+03  0.36317112154E+03  0.12509148124E+03 0.  0.
          5    1    3    3  502    0 -0.19203288708E+02 -0.75766818526E+02 -0.56618573503E+02  0.96604929234E+02  0.41800000000E+01 0. -1.
         -5    1    3    3    0  502 -0.20489454425E+02 -0.34777639356E+02 -0.26345921988E+03  0.26656619231E+03  0.41800000000E+01 0. -1.
        -11    1    1    2    0    0  0.38209619890E+02  0.63915613279E+02 -0.84009403102E+02  0.11226201710E+03  0.00000000000E+00 0.  1.
         11    1    1    2    0    0  0.14831232432E+01  0.46628844604E+02  0.48797201239E+01  0.46906934158E+02  0.00000000000E+00 0. -1.
</event>
<event>
 7    1  0.2626349E-009  0.1297615E+03  0.7561462E-02  0.1227810E+00
         -2   -1    0    0    0  501 -0.00000000000E+00  0.00000000000E+00  0.43726414525E+02  0.43726414525E+02  0.00000000000E+00 0. -1.
          2   -1    0    0  501    0  0.00000000000E+00 -0.00000000000E+00 -0.46102095819E+03  0.46102095819E+03  0.00000000000E+00 0.  1.
         25    2    1    2    0    0  0.69158506506E+02  0.48961845926E+02 -0.29071268606E+03  0.32763111933E+03  0.12509245837E+03 0.  0.
          5    1    3    3  502    0  0.27964502002E+02 -0.39999685852E+02 -0.13465031677E+03  0.14328352469E+03  0.41800000000E+01 0. -1.
         -5    1    3    3    0  502  0.41194004504E+02  0.88961531778E+02 -0.15606236929E+03  0.18434759465E+03  0.41800000000E+01 0. -1.
        -11    1    1    2    0    0 -0.35193909939E+02  0.16343632708E+02 -0.82872412525E+02  0.91507171219E+02  0.00000000000E+00 0.  1.
         11    1    1    2    0    0 -0.33964596566E+02 -0.65305478633E+02 -0.43709445080E+02  0.85609082162E+02  0.00000000000E+00 0. -1.
</event>
<event>
 7    1  0.2626349E-009  0.1573321E+03  0.7561462E-02  0.1191742E+00
         -2   -1    0    0    0  501 -0.00000000000E+00  0.00000000000E+00  0.93373087385E+02  0.93373087385E+02  0.00000000000E+00 0.  1.
          2   -1    0    0  501    0  0.00000000000E+00 -0.00000000000E+00 -0.33645926889E+03  0.33645926889E+03  0.00000000000E+00 0. -1.
         25    2    1    2    0    0  0.13194837988E+03 -0.63004540965E+01 -0.68973964172E+02  0.19456300168E+03  0.12508910110E+03 0.  0.
          5    1    3    3  502    0  0.88069816956E+02  0.42714779767E+02 -0.81531597704E+02  0.12745869485E+03  0.41800000000E+01 0.  1.
         -5    1    3    3    0  502  0.43878562919E+02 -0.49015233864E+02  0.12557633532E+02  0.67104306825E+02  0.41800000000E+01 0.  1.
        -11    1    1    2    0    0 -0.15363646928E+02  0.28234831482E+02 -0.71595530573E+02  0.78480362854E+02  0.00000000000E+00 0. -1.
         11    1    1    2    0    0 -0.11658473295E+03 -0.21934377385E+02 -0.10251668676E+03  0.15678899174E+03  0.00000000000E+00 0.  1.
</event>
<event>
 7    1  0.2626349E-009  0.8940199E+02  0.7561462E-02  0.1304306E+00
         -2   -1    0    0    0  501 -0.00000000000E+00  0.00000000000E+00  0.48492920910E+02  0.48492920910E+02  0.00000000000E+00 0.  1.
          2   -1    0    0  501    0  0.00000000000E+00 -0.00000000000E+00 -0.27348680596E+03  0.27348680596E+03  0.00000000000E+00 0. -1.
         25    2    1    2    0    0  0.14011207010E+02  0.35021738758E+02 -0.16661085193E+03  0.21172970173E+03  0.12508978577E+03 0.  0.
          5    1    3    3  502    0  0.32366107196E+02  0.52480612805E+02 -0.23156684268E+02  0.65996091110E+02  0.41800000000E+01 0. -1.
         -5    1    3    3    0  502 -0.18354900186E+02 -0.17458874048E+02 -0.14345416766E+03  0.14573361062E+03  0.41800000000E+01 0. -1.
        -11    1    1    2    0    0 -0.43021428685E+02  0.34340793906E+01 -0.15811891842E+02  0.45963595932E+02  0.00000000000E+00 0. -1.
         11    1    1    2    0    0  0.29010221675E+02 -0.38455818148E+02 -0.42571141279E+02  0.64286429212E+02  0.00000000000E+00 0.  1.
</event>
<event>
 7    1  0.2626349E-009  0.2333504E+03  0.7561462E-02  0.1124304E+00
          1   -1    0    0  501    0  0.00000000000E+00  0.00000000000E+00  0.16360232552E+03  0.16360232552E+03  0.00000000000E+00 0. -1.
         -1   -1    0    0    0  501 -0.00000000000E+00 -0.00000000000E+00 -0.38280160728E+03  0.38280160728E+03  0.00000000000E+00 0.  1.
         25    2    1    2    0    0  0.11916741844E+03  0.16947134532E+03 -0.16318632745E+02  0.24255827601E+03  0.12508720550E+03 0.  0.
          5    1    3    3  502    0  0.13134189565E+03  0.87639976128E+02  0.87713907042E+00  0.15795474270E+03  0.41800000000E+01 0.  1.
         -5    1    3    3    0  502 -0.12174477204E+02  0.81831369197E+02 -0.17195771816E+02  0.84603533308E+02  0.41800000000E+01 0.  1.
        -11    1    1    2    0    0 -0.35402715696E+02  0.15935525852E+01 -0.37484179323E+02  0.51584449091E+02  0.00000000000E+00 0.  1.
         11    1    1    2    0    0 -0.83764702746E+02 -0.17106489791E+03 -0.16539646970E+03  0.25226120770E+03  0.00000000000E+00 0. -1.
</event>
<event>
 7    1  0.2626349E-009  0.1039783E+03  0.7561462E-02  0.1272146E+00
          2   -1    0    0  501    0  0.00000000000E+00  0.00000000000E+00  0.43228871991E+03  0.43228871991E+03  0.00000000000E+00 0.  1.
         -2   -1    0    0    0  501 -0.00000000000E+00 -0.00000000000E+00 -0.34549408774E+02  0.34549408774E+02  0.00000000000E+00 0. -1.
         25    2    1    2    0    0 -0.85541230326E+01  0.27599718735E+02  0.31128751461E+03  0.33672340396E+03  0.12509123281E+03 0.  0.
          5    1    3    3  502    0  0.53047729614E+02  0.30570182162E+02  0.20256305879E+03  0.21165505626E+03  0.41800000000E+01 0. -1.
         -5    1    3    3    0  502 -0.61601852647E+02 -0.29704634274E+01  0.10872445583E+03  0.12506834770E+03  0.41800000000E+01 0. -1.
        -11    1    1    2    0    0  0.21446624347E+02  0.23650476081E+02  0.39937939211E+01  0.32175349332E+02  0.00000000000E+00 0. -1.
         11    1    1    2    0    0 -0.12892501315E+02 -0.51250194816E+02  0.82458002605E+02  0.97939375393E+02  0.00000000000E+00 0.  1.
</event>
<event>
 7    1  0.2626349E-009  0.1222226E+03  0.7561462E-02  0.1239475E+00
          1   -1    0    0  501    0  0.00000000000E+00  0.00000000000E+00  0.28264253386E+03  0.28264253386E+03  0.00000000000E+00 0. -1.
         -1   -1    0    0    0  501 -0.00000000000E+00 -0.00000000000E+00 -0.10122472053E+03  0.10122472053E+03  0.00000000000E+00 0.  1.
         25    2    1    2    0    0  0.13834362780E+02  0.88662720453E+02  0.19913809699E+03  0.25170675672E+03  0.12509133509E+03 0.  0.
          5    1    3    3  502    0  0.14021176924E+02 -0.97374148552E+01 -0.10226202384E+02  0.20333673195E+02  0.41800000000E+01 0.  1.
         -5    1    3    3    0  502 -0.18681414449E+00  0.98400135308E+02  0.20936429937E+03  0.23137308352E+03  0.41800000000E+01 0.  1.
        -11    1    1    2    0    0  0.88549649575E+01 -0.10178569691E+03 -0.32530682506E+01  0.10222192012E+03  0.00000000000E+00 0.  1.
         11    1    1    2    0    0 -0.22689327737E+02  0.13122976461E+02 -0.14467215405E+02  0.29938577554E+02  0.00000000000E+00 0. -1.
</event>
<event>
 7    1  0.2626349E-009  0.1754082E+03  0.7561462E-02  0.1172322E+00
          2   -1    0    0  501    0  0.00000000000E+00  0.00000000000E+00  0.69746958872E+03  0.69746958872E+03  0.00000000000E+00 0. -1.
         -2   -1    0    0    0  501 -0.00000000000E+00 -0.00000000000E+00 -0.58590146093E+02  0.58590146093E+02  0.00000000000E+00 0.  1.
         25    2    1    2    0    0  0.91193179800E+02  0.12385476723E+03  0.47285421256E+03  0.51273290218E+03  0.12509085992E+03 0.  0.
          5    1    3    3  502    0 -0.10080669422E+02 -0.16307908690E+02  0.97305700239E+02  0.99264492549E+02  0.41800000000E+01 0.  1.
         -5    1    3    3    0  502  0.10127384922E+03  0.14016267592E+03  0.37554851232E+03  0.41346840963E+03  0.41800000000E+01 0.  1.
        -11    1    1    2    0    0 -0.48845920291E+02 -0.95473769868E+02  0.53618171768E+02  0.11990026274E+03  0.00000000000E+00 0.  1.
         11    1    1    2    0    0 -0.42347259510E+02 -0.28380997365E+02  0.11240705830E+03  0.12342656990E+03  0.00000000000E+00 0. -1.
</event>
<event>
 7    1  0.2626349E-009  0.2353757E+03  0.7561462E-02  0.1122912E+00
          1   -1    0    0  501    0  0.00000000000E+00  0.00000000000E+00  0.12680674857E+03  0.12680674857E+03  0.00000000000E+00 0. -1.
         -1   -1    0    0    0  501 -0.00000000000E+00 -0.00000000000E+00 -0.57093506776E+03  0.57093506776E+03  0.00000000000E+00 0.  1.
         25    2    1    2    0    0  0.86703052067E+02  0.19820550433E+03 -0.73670525935E+02  0.26053528144E+03  0.12509374603E+03 0.  0.
          5    1    3    3  502    0 -0.23490588110E+02  0.97967063211E+02 -0.27205364751E+02  0.10443638004E+03  0.41800000000E+01 0.  1.
         -5    1    3    3    0  502  0.11019364018E+03  0.10023844112E+03 -0.46465161184E+02  0.15609890140E+03  0.41800000000E+01 0.  1.
        -11    1    1    2    0    0 -0.70014738216E+01 -0.67119118080E+02 -0.57456900843E+02  0.88630085761E+02  0.00000000000E+00 0.  1.
         11    1    1    2    0    0 -0.79701578246E+02 -0.13108638625E+03 -0.31300089242E+03  0.34857644913E+03  0.00000000000E+00 0. -1.
</event>
<event>
 7    1  0.2626349E-009  0.2700605E+03  0.7561462E-02  0.1101245E+00
          1   -1    0    0  501    0  0.00000000000E+00  0.00000000000E+00  0.74356339217E+03  0.74356339217E+03  0.00000000000E+00 0. -1.
         -1   -1    0    0    0  501 -0.00000000000E+00 -0.00000000000E+00 -0.10380231662E+03  0.10380231662E+03  0.00000000000E+00 0.  1.
         25    2    1    2    0    0  0.12339154334E+03  0.22250730453E+03  0.30836426330E+03  0.41889234168E+03  0.12508917418E+03 0.  0.
          5    1    3    3  502    0  0.95738098600E+02  0.22585415974E+03  0.30357355813E+03  0.39032071761E+03  0.41800000000E+01 0. -1.
         -5    1    3    3    0  502  0.27653444741E+02 -0.33468552187E+01  0.47907051758E+01  0.28571624070E+02  0.41800000000E+01 0. -1.
        -11    1    1    2    0    0 -0.12950040595E+03 -0.16978368742E+03  0.22882004445E+03  0.31297838327E+03  0.00000000000E+00 0.  1.
         11    1    1    2    0    0  0.61088626053E+01 -0.52723617108E+02  0.10257676779E+03  0.11549498385E+03  0.00000000000E+00 0. -1.
</event>
<event>
 7    1  0.2626349E-009  0.9314411E+02  0.7561462E-02  0.1295412E+00
          1   -1    0    0  501    0  0.00000000000E+00  0.00000000000E+00  0.12190235819E+03  0.12190235819E+03  0.00000000000E+00 0. -1.
         -1   -1    0    0    0  501 -0.00000000000E+00 -0.00000000000E+00 -0.15489708866E+03  0.15489708866E+03  0.00000000000E+00 0.  1.
         25    2    1    2    0    0 -0.27489494243E+02 -0.82678489578E+02 -0.15983883871E+02  0.15327893037E+03  0.12509013159E+03 0.  0.
          5    1    3    3  502    0 -0.20698778053E+02 -0.82216024244E+02  0.42028330911E+02  0.94719412237E+02  0.41800000000E+01 0.  1.
         -5    1    3    3    0  502 -0.67907161895E+01 -0.46246533377E+00 -0.58012214782E+02  0.58559518137E+02  0.41800000000E+01 0.  1.
        -11    1    1    2    0    0  0.54923918518E+01  0.64902298628E+02 -0.48490523824E+02  0.81202251422E+02  0.00000000000E+00 0.  1.
         11    1    1    2    0    0  0.21997102391E+02  0.17776190950E+02  0.31479677224E+02  0.42318265045E+02  0.00000000000E+00 0. -1.
</event>
<event>
 7    1  0.2626349E-009  0.9614765E+02  0.7561462E-02  0.1288612E+00
         -1   -1    0    0    0  501 -0.00000000000E+00  0.00000000000E+00  0.10586237598E+03  0.10586237598E+03  0.00000000000E+00 0.  1.
          1   -1    0    0  501    0  0.00000000000E+00 -0.00000000000E+00 -0.13928843857E+03  0.13928843857E+03  0.00000000000E+00 0. -1.
         25    2    1    2    0    0 -0.30814074407E+02 -0.17837081754E+02 -0.60490849268E+02  0.14343900578E+03  0.12509171382E+03 0.  0.
          5    1    3    3  502    0 -0.59678463701E+02  0.31269295506E+02 -0.12097368961E+02  0.68579199521E+02  0.41800000000E+01 0.  1.
         -5    1    3    3    0  502  0.28864389294E+02 -0.49106377260E+02 -0.48393480307E+02  0.74859806259E+02  0.41800000000E+01 0.  1.
        -11    1    1    2    0    0  0.34527595355E+02  0.35562642487E+02  0.51381079634E+02  0.71392378627E+02  0.00000000000E+00 0.  1.
         11    1    1    2    0    0 -0.37135209485E+01 -0.17725560734E+02 -0.24316292952E+02  0.30319430141E+02  0.00000000000E+00 0. -1.
</event>
<event>
 7    1  0.2626349E-009  0.1078847E+03  0.7561462E-02  0.1264538E+00
         -1   -1    0    0    0  501 -0.00000000000E+00  0.00000000000E+00  0.61932649123E+02  0.61932649123E+02  0.00000000000E+00 0.  1.
          1   -1    0    0  501    0  0.00000000000E+00 -0.00000000000E+00 -0.24764753544E+03  0.24764753544E+03  0.00000000000E+00 0. -1.
         25    2    1    2    0    0 -0.40825853575E+02 -0.23455892308E+02 -0.14489825766E+03  0.19712979792E+03  0.12509085879E+03 0.  0.
          5    1    3    3  502    0 -0.15998052024E+02 -0.68121392636E+02 -0.40847971665E+02  0.81132551990E+02  0.41800000000E+01 0.  1.
         -5    1    3    3    0  502 -0.24827801551E+02  0.44665500327E+02 -0.10405028599E+03  0.11599724593E+03  0.41800000000E+01 0.  1.
        -11    1    1    2    0    0  0.43098592733E+02  0.50992957675E+02 -0.49912727829E+02  0.83360967049E+02  0.00000000000E+00 0. -1.
         11    1    1    2    0    0 -0.22727391584E+01 -0.27537065366E+02  0.90960991648E+01  0.29089419593E+02  0.00000000000E+00 0.  1.
</event>
<event>
 7    1  0.2626349E-009  0.1400017E+03  0.7561462E-02  0.1213327E+00
          2   -1    0    0  501    0  0.00000000000E+00  0.00000000000E+00  0.39847904684E+03  0.39847904684E+03  0.00000000000E+00 0. -1.
         -2   -1    0    0    0  501 -0.00000000000E+00 -0.00000000000E+00 -0.58556927682E+02  0.58556927682E+02  0.00000000000E+00 0.  1.
         25    2    1    2    0    0  0.10440273202E+03  0.11644940447E+02  0.21802103777E+03  0.27242773301E+03  0.12509261254E+03 0.  0.
          5    1    3    3  502    0  0.11845199894E+03  0.36335033633E+02  0.12909390947E+03  0.17897994464E+03  0.41800000000E+01 0. -1.
         -5    1    3    3    0  502 -0.14049266927E+02 -0.24690093186E+02  0.88927128304E+02  0.93447788369E+02  0.41800000000E+01 0. -1.
        -11    1    1    2    0    0  0.66888451693E+01 -0.14738447268E+02 -0.40015679070E+01  0.16672582982E+02  0.00000000000E+00 0.  1.
         11    1    1    2    0    0 -0.11109157719E+03  0.30935068207E+01  0.12590264930E+03  0.16793565853E+03  0.00000000000E+00 0. -1.
</event>
<event>
 7    1  0.2626349E-009  0.1326587E+03  0.7561462E-02  0.1223563E+00
         -1   -1    0    0    0  501 -0.00000000000E+00  0.00000000000E+00  0.93455204817E+02  0.93455204817E+02  0.00000000000E+00 0.  1.
          1   -1    0    0  501    0  0.00000000000E+00 -0.00000000000E+00 -0.29800580710E+03  0.29800580710E+03  0.00000000000E+00 0. -1.
         25    2    1    2    0    0 -0.82259080561E+02 -0.95140338120E+02 -0.10630808840E+03  0.20680515712E+03  0.12509485633E+03 0.  0.
          5    1    3    3  502    0 -0.83086900883E+02 -0.64692900700E+02 -0.13046081085E+03  0.16770837805E+03  0.41800000000E+01 0.  1.
         -5    1    3    3    0  502  0.82782032269E+00 -0.30447437420E+02  0.24152722454E+02  0.39096779073E+02  0.41800000000E+01 0.  1.
        -11    1    1    2    0    0  0.29966024906E+02  0.15039145582E+02  0.14732054282E+02  0.36622014853E+02  0.00000000000E+00 0.  1.
         11    1    1    2    0    0  0.52293055655E+02  0.80101192538E+02 -0.11297456817E+03  0.14803383995E+03  0.00000000000E+00 0. -1.
</event>
<event>
 7    1  0.2626349E-009  0.3880216E+03  0.7561462E-02  0.1048008E+00
         -2   -1    0    0    0  501 -0.00000000000E+00  0.00000000000E+00  0.16610290104E+03  0.16610290104E+03  0.00000000000E+00 0.  1.
          2   -1    0    0  501    0  0.00000000000E+00 -0.00000000000E+00 -0.96853213360E+03  0.96853213360E+03  0.00000000000E+00 0. -1.
         25    2    1    2    0    0 -0.30657513483E+03 -0.23148716195E+03 -0.46059444769E+03  0.61267444783E+03  0.12509242317E+03 0.  0.
          5    1    3    3  502    0 -0.29953723857E+03 -0.20546486469E+03 -0.45899534334E+03  0.58534824294E+03  0.41800000000E+01 0.  1.
         -5    1    3    3    0  502 -0.70378962601E+01 -0.26022297262E+02 -0.15991043508E+01  0.27326204882E+02  0.41800000000E+01 0.  1.
        -11    1    1    2    0    0  0.11831366488E+03  0.10927008780E+03 -0.19861304060E+03  0.25570532900E+03  0.00000000000E+00 0.  1.
         11    1    1    2    0    0  0.18826146995E+03  0.12221707415E+03 -0.14322174427E+03  0.26625525781E+03  0.00000000000E+00 0. -1.
</event>
<event>
 7    1  0.2626349E-009  0.1295395E+03  0.7561462E-02  0.1228141E+00
         -1   -1    0    0    0  501 -0.00000000000E+00  0.00000000000E+00  0.84179443611E+02  0.84179443611E+02  0.00000000000E+00 0.  1.
          1   -1    0    0  501    0  0.00000000000E+00 -0.00000000000E+00 -0.25463306425E+03  0.25463306425E+03  0.00000000000E+00 0. -1.
         25    2    1    2    0    0 -0.94286731952E+02  0.47835492405E+01 -0.11430992580E+03  0.19397857838E+03  0.12509220427E+03 0.  0.
          5    1    3    3  502    0 -0.85869472552E+02  0.51891747856E+02 -0.45957882858E+02  0.11043513575E+03  0.41800000000E+01 0.  1.
         -5    1    3    3    0  502 -0.84172594005E+01 -0.47108198616E+02 -0.68352042940E+02  0.83543442631E+02  0.41800000000E+01 0.  1.
        -11    1    1    2    0    0  0.97629534024E+02 -0.15989671596E+02 -0.73961576157E+02  0.12352129476E+03  0.00000000000E+00 0. -1.
         11    1    1    2    0    0 -0.33428020711E+01  0.11206122356E+02  0.17817881317E+02  0.21312634716E+02  0.00000000000E+00 0.  1.
</event>
<event>
 7    1  0.2626349E-009  0.1647466E+03  0.7561462E-02  0.1183440E+00
          2   -1    0    0  501    0  0.00000000000E+00  0.00000000000E+00  0.41522779939E+03  0.41522779939E+03  0.00000000000E+00 0. -1.
         -2   -1    0    0    0  501 -0.00000000000E+00 -0.00000000000E+00 -0.77376798591E+02  0.77376798591E+02  0.00000000000E+00 0.  1.
         25    2    1    2    0    0 -0.54860695730E+02  0.12207305909E+03  0.11232211778E+03  0.21488054062E+03  0.12508341578E+03 0.  0.
          5    1    3    3  502    0  0.29772152956E+02  0.19639637102E+02 -0.66001839437E+01  0.36512070131E+02  0.41800000000E+01 0. -1.
         -5    1    3    3    0  502 -0.84632848686E+02  0.10243342198E+03  0.11892230173E+03  0.17836847049E+03  0.41800000000E+01 0. -1.
        -11    1    1    2    0    0  0.17971446837E+02 -0.12244057508E+03  0.18819854527E+03  0.22524067077E+03  0.00000000000E+00 0.  1.
         11    1    1    2    0    0  0.36889248893E+02  0.36751599192E+00  0.37330337739E+02  0.52483386587E+02  0.00000000000E+00 0. -1.
</event>
<event>
 7    1  0.2626349E-009  0.2022032E+03  0.7561462E-02  0.1147893E+00
         -2   -1    0    0    0  501 -0.00000000000E+00  0.00000000000E+00  0.11313342683E+03  0.11313342683E+03  0.00000000000E+00 0.  1.
          2   -1    0    0  501    0  0.00000000000E+00 -0.00000000000E+00 -0.46165266632E+03  0.46165266632E+03  0.00000000000E+00 0. -1.
         25    2    1    2    0    0 -0.12167420820E+03  0.15444015928E+03 -0.12950728922E+03  0.26659816306E+03  0.12508423902E+03 0.  0.
          5    1    3    3  502    0 -0.11224883458E+03  0.98310035950E+02 -0.14432784346E+03  0.20763589004E+03  0.41800000000E+01 0. -1.
         -5    1    3    3    0  502 -0.94253736123E+01  0.56130123326E+02  0.14820554242E+02  0.58962273026E+02  0.41800000000E+01 0. -1.
        -11    1    1    2    0    0  0.30638250943E+01 -0.13565893750E+02  0.78647786037E+01  0.15977335195E+02  0.00000000000E+00 0.  1.
         11    1    1    2    0    0  0.11861038310E+03 -0.14087426553E+03 -0.22687672887E+03  0.29221059490E+03  0.00000000000E+00 0. -1.
</event>
<event>
 7    1  0.2626349E-009  0.1507152E+03  0.7561462E-02  0.1199597E+00
          1   -1    0    0  501    0  0.00000000000E+00  0.00000000000E+00  0.52422238549E+03  0.52422238549E+03  0.00000000000E+00 0. -1.
         -1   -1    0    0    0  501 -0.00000000000E+00 -0.00000000000E+00 -0.47278351118E+02  0.47278351118E+02  0.00000000000E+00 0.  1.
         25    2    1    2    0    0  0.13323564829E+02 -0.96258458663E+02  0.29486322441E+03  0.33471909811E+03  0.12509734324E+03 0.  0.
          5    1    3    3  502    0  0.41377632061E+02  0.10143853797E+02  0.12645925671E+03  0.13350813538E+03  0.41800000000E+01 0.  1.
         -5    1    3    3    0  502 -0.28054067233E+02 -0.10640231246E+03  0.16840396771E+03  0.20121096273E+03  0.41800000000E+01 0.  1.
        -11    1    1    2    0    0  0.49880330214E+02  0.42498464481E+02  0.57983685816E+02  0.87500140836E+02  0.00000000000E+00 0. -1.
         11    1    1    2    0    0 -0.63203895043E+02  0.53759994182E+02  0.12409712414E+03  0.14928149765E+03  0.00000000000E+00 0.  1.
</event>
<event>
 7    1  0.2626349E-009  0.1611222E+03  0.7561462E-02  0.1187436E+00
          1   -1    0    0  501    0  0.00000000000E+00  0.00000000000E+00  0.82877361439E+03  0.82877361439E+03  0.00000000000E+00 0. -1.
         -1   -1    0    0    0  501 -0.00000000000E+00 -0.00000000000E+00 -0.37436816762E+02  0.37436816762E+02  0.00000000000E+00 0.  1.
         25    2    1    2    0    0 -0.11157902264E+02  0.12944391350E+03  0.58469869008E+03  0.61188121505E+03  0.12508332276E+03 0.  0.
          5    1    3    3  502    0  0.45417227800E+02  0.12087134981E+02  0.20743974888E+03  0.21273820820E+03  0.41800000000E+01 0. -1.
         -5    1    3    3    0  502 -0.56575130064E+02  0.11735677852E+03  0.37725894120E+03  0.39914300686E+03  0.41800000000E+01 0. -1.
        -11    1    1    2    0    0  0.30600548573E+02 -0.28183543826E+02  0.86683979089E+02  0.96149976320E+02  0.00000000000E+00 0. -1.
         11    1    1    2    0    0 -0.19442646309E+02 -0.10126036967E+03  0.11995412846E+03  0.15817923977E+03  0.00000000000E+00 0.  1.
</event>
<event>
 7    1  0.2626349E-009  0.1491705E+03  0.7561462E-02  0.1201496E+00
          3   -1    0    0  501    0  0.00000000000E+00  0.00000000000E+00  0.34565093510E+02  0.34565093510E+02  0.00000000000E+00 0. -1.
         -3   -1    0    0    0  501 -0.00000000000E+00 -0.00000000000E+00 -0.78741275141E+03  0.78741275141E+03  0.00000000000E+00 0.  1.
         25    2    1    2    0    0  0.10681605492E+03 -0.80728945196E+01 -0.55825915450E+03  0.58204462967E+03  0.12509127119E+03 0.  0.
          5    1    3    3  502    0  0.60664453373E+02 -0.66477150943E+02 -0.31189493351E+03  0.32464643761E+03  0.41800000000E+01 0.  1.
         -5    1    3    3    0  502  0.46151601546E+02  0.58404256423E+02 -0.24636422099E+03  0.25739819207E+03  0.41800000000E+01 0.  1.
        -11    1    1    2    0    0 -0.11505736249E+02  0.33190056251E+02 -0.88026838287E+02  0.94777033396E+02  0.00000000000E+00 0.  1.
         11    1    1    2    0    0 -0.95310318671E+02 -0.25117161731E+02 -0.10656166511E+03  0.14515618185E+03  0.00000000000E+00 0. -1.
</event>
<event>
 7    1  0.2626349E-009  0.8908301E+02  0.7561462E-02  0.1305088E+00
          1   -1    0    0  501    0  0.00000000000E+00  0.00000000000E+00  0.44721441899E+03  0.44721441899E+03  0.00000000000E+00 0. -1.
         -1   -1    0    0    0  501 -0.00000000000E+00 -0.00000000000E+00 -0.43207910485E+02  0.43207910485E+02  0.00000000000E+00 0.  1.
         25    2    1    2    0    0  0.35959695166E+02 -0.53334842672E+02  0.33033473233E+03  0.35903516308E+03  0.12508999889E+03 0.  0.
          5    1    3    3  502    0 -0.26476573599E+01  0.23241640976E+02  0.20926962449E+03  0.21061441570E+03  0.41800000000E+01 0. -1.
         -5    1    3    3    0  502  0.38607352526E+02 -0.76576483648E+02  0.12106510784E+03  0.14842074738E+03  0.41800000000E+01 0. -1.
        -11    1    1    2    0    0 -0.33767251044E+02  0.30191003154E+02 -0.84158547884E+01  0.46071146354E+02  0.00000000000E+00 0.  1.
         11    1    1    2    0    0 -0.21924441220E+01  0.23143839518E+02  0.82087630962E+02  0.85316020042E+02  0.00000000000E+00 0. -1.
</event>
<event>
 7    1  0.2626349E-009  0.1491078E+03  0.7561462E-02  0.1201574E+00
         -3   -1    0    0    0  501 -0.00000000000E+00  0.00000000000E+00  0.51845224040E+03  0.51845224040E+03  0.00000000000E+00 0.  1.
          3   -1    0    0  501    0  0.00000000000E+00 -0.00000000000E+00 -0.50578275457E+02  0.50578275457E+02  0.00000000000E+00 0. -1.
         25    2    1    2    0    0  0.61425226979E+02 -0.81521908762E+02  0.26991850444E+03  0.31451975846E+03  0.12509116397E+03 0.  0.
          5    1    3    3  502    0 -0.48425355168E+01  0.20964573445E+02  0.45275604824E+01  0.22381570407E+02  0.41800000000E+01 0.  1.
         -5    1    3    3    0  502  0.66267762496E+02 -0.10248648221E+03  0.26539094396E+03  0.29213818805E+03  0.41800000000E+01 0.  1.
        -11    1    1    2    0    0 -0.37260852130E+02  0.11040446222E+03  0.11650115337E+03  0.16477267709E+03  0.00000000000E+00 0. -1.
         11    1    1    2    0    0 -0.24164374849E+02 -0.28882553462E+02  0.81454307131E+02  0.89738080303E+02  0.00000000000E+00 0.  1.
</event>
<event>
 7    1  0.2626349E-009  0.1104225E+03  0.7561462E-02  0.1259789E+00
          2   -1    0    0  501    0  0.00000000000E+00  0.00000000000E+00  0.83087479402E+03  0.83087479402E+03  0.00000000000E+00 0. -1.
         -2   -1    0    0    0  501 -0.00000000000E+00 -0.00000000000E+00 -0.28968544195E+02  0.28968544195E+02  0.00000000000E+00 0.  1.
         25    2    1    2    0    0 -0.55765871512E+01  0.33792086689E+02  0.72024482997E+03  0.73182858115E+03  0.12508978232E+03 0.  0.
          5    1    3    3  502    0  0.47222085907E+02  0.53242554249E+02  0.33746712088E+03  0.34491480840E+03  0.41800000000E+01 0.  1.
         -5    1    3    3    0  502 -0.52798673058E+02 -0.19450467560E+02  0.38277770909E+03  0.38691377275E+03  0.41800000000E+01 0.  1.
        -11    1    1    2    0    0 -0.37307332773E+02  0.18763160382E+01  0.12999872151E+02  0.39551919251E+02  0.00000000000E+00 0. -1.
         11    1    1    2    0    0  0.42883919924E+02 -0.35668402727E+02  0.68661547711E+02  0.88462837821E+02  0.00000000000E+00 0.  1.
</event>
<event>
 7    1  0.2626349E-009  0.1794116E+03  0.7561462E-02  0.1168374E+00
         -1   -1    0    0    0  501 -0.00000000000E+00  0.00000000000E+00  0.16690356734E+03  0.16690356734E+03  0.00000000000E+00 0.  1.
          1   -1    0    0  501    0  0.00000000000E+00 -0.00000000000E+00 -0.26895280366E+03  0.26895280366E+03  0.00000000000E+00 0. -1.
         25    2    1    2    0    0 -0.10507586173E+03 -0.13522931238E+03  0.73211111836E+01  0.21220216430E+03  0.12509299030E+03 0.  0.
          5    1    3    3  502    0 -0.99023204505E+02 -0.13650064104E+03  0.44356571520E+02  0.17442189620E+03  0.41800000000E+01 0. -1.
         -5    1    3    3    0  502 -0.60526572211E+01  0.12713286628E+01 -0.37035460336E+02  0.37780268108E+02  0.41800000000E+01 0. -1.
        -11    1    1    2    0    0  0.96236348610E+02  0.75572720570E+02 -0.10819232069E+03  0.16333477628E+03  0.00000000000E+00 0. -1.
         11    1    1    2    0    0  0.88395131160E+01  0.59656591810E+02 -0.11780268165E+01  0.60319430416E+02  0.00000000000E+00 0.  1.
</event>
<event>
 7    1  0.2626349E-009  0.1128054E+03  0.7561462E-02  0.1255461E+00
         -2   -1    0    0    0  501 -0.00000000000E+00  0.00000000000E+00  0.21804003244E+02  0.21804003244E+02  0.00000000000E+00 0. -1.
          2   -1    0    0  501    0  0.00000000000E+00 -0.00000000000E+00 -0.68403042429E+03  0.68403042429E+03  0.00000000000E+00 0.  1.
         25    2    1    2    0    0 -0.14555593157E+02  0.51321592195E+02 -0.42373563237E+03  0.44502795172E+03  0.12510883484E+03 0.  0.
          5    1    3    3  502    0  0.53175397487E+02  0.11280395033E+02 -0.21817912897E+03  0.22488769403E+03  0.41800000000E+01 0.  1.
         -5    1    3    3    0  502 -0.67730990644E+02  0.40041197162E+02 -0.20555650341E+03  0.22014025769E+03  0.41800000000E+01 0.  1.
        -11    1    1    2    0    0 -0.15136938362E+02  0.13954129378E+02 -0.12409966057E+03  0.12579574867E+03  0.00000000000E+00 0.  1.
         11    1    1    2    0    0  0.29692531519E+02 -0.65275721573E+02 -0.11439112811E+03  0.13501072715E+03  0.00000000000E+00 0. -1.
</event>
<event>
 7    1  0.2626349E-009  0.1853962E+03  0.7561462E-02  0.1162680E+00
         -2   -1    0    0    0  501 -0.00000000000E+00  0.00000000000E+00  0.55822935534E+03  0.55822935534E+03  0.00000000000E+00 0.  1.
          2   -1    0    0  501    0  0.00000000000E+00 -0.00000000000E+00 -0.12728906573E+03  0.12728906573E+03  0.00000000000E+00 0. -1.
         25    2    1    2    0    0 -0.45899143931E+02  0.16951856334E+03  0.43732311541E+03  0.48758849692E+03  0.12509100814E+03 0.  0.
          5    1    3    3  502    0 -0.37266853234E+02  0.12465885866E+03  0.15891616207E+03  0.20542752580E+03  0.41800000000E+01 0.  1.
         -5    1    3    3    0  502 -0.86322906967E+01  0.44859704685E+02  0.27840695335E+03  0.28216097111E+03  0.41800000000E+01 0.  1.
        -11    1    1    2    0    0 -0.24302047457E+02 -0.59035924404E+02  0.14253398173E+02  0.65413983523E+02  0.00000000000E+00 0. -1.
         11    1    1    2    0    0  0.70201191389E+02 -0.11048263894E+03 -0.20636223976E+02  0.13251594062E+03  0.00000000000E+00 0.  1.
</event>
<event>
 7    1  0.2626349E-009  0.2026338E+03  0.7561462E-02  0.1147536E+00
         -2   -1    0    0    0  501 -0.00000000000E+00  0.00000000000E+00  0.57653832466E+02  0.57653832466E+02  0.00000000000E+00 0.  1.
          2   -1    0    0  501    0  0.00000000000E+00 -0.00000000000E+00 -0.72840711617E+03  0.72840711617E+03  0.00000000000E+00 0. -1.
         25    2    1    2    0    0  0.16953849514E+03 -0.25880767210E+02 -0.39682196108E+03  0.45003157042E+03  0.12509048778E+03 0.  0.
          5    1    3    3  502    0  0.11739852979E+02  0.38670459657E+02 -0.95738059446E+02  0.10400229336E+03  0.41800000000E+01 0. -1.
         -5    1    3    3    0  502  0.15779864217E+03 -0.64551226867E+02 -0.30108390163E+03  0.34602927705E+03  0.41800000000E+01 0. -1.
        -11    1    1    2    0    0  0.11007718660E+02 -0.26179224749E+01 -0.22453087827E+02  0.25142882514E+02  0.00000000000E+00 0.  1.
         11    1    1    2    0    0 -0.18054621380E+03  0.28498689685E+02 -0.25147823481E+03  0.31088649571E+03  0.00000000000E+00 0. -1.
</event>
<event>
 7    1  0.2626349E-009  0.1864793E+03  0.7561462E-02  0.1161676E+00
         -1   -1    0    0    0  501 -0.00000000000E+00  0.00000000000E+00  0.90029361982E+03  0.90029361982E+03  0.00000000000E+00 0.  1.
          1   -1    0    0  501    0  0.00000000000E+00 -0.00000000000E+00 -0.39396764100E+02  0.39396764100E+02  0.00000000000E+00 0. -1.
         25    2    1    2    0    0 -0.13209078207E+03 -0.76931116969E+02  0.43874040450E+03  0.48115196935E+03  0.12509078143E+03 0.  0.
          5    1    3    3  502    0 -0.14623673220E+03 -0.31494211100E+02  0.33903351097E+03  0.37059177155E+03  0.41800000000E+01 0. -1.
         -5    1    3    3    0  502  0.14145950131E+02 -0.45436905869E+02  0.99706893534E+02  0.11056019780E+03  0.41800000000E+01 0. -1.
        -11    1    1    2    0    0  0.20768791912E+02 -0.19328303776E+02  0.40136656514E+02  0.49151574141E+02  0.00000000000E+00 0.  1.
         11    1    1    2    0    0  0.11132199016E+03  0.96259420745E+02  0.38201979470E+03  0.40938684043E+03  0.00000000000E+00 0. -1.
</event>
<event>
 7    1  0.2626349E-009  0.1230081E+03  0.7561462E-02  0.1238216E+00
         -1   -1    0    0    0  501 -0.00000000000E+00  0.00000000000E+00  0.12350661690E+03  0.12350661690E+03  0.00000000000E+00 0.  1.
          1   -1    0    0  501    0  0.00000000000E+00 -0.00000000000E+00 -0.16353614586E+03  0.16353614586E+03  0.00000000000E+00 0. -1.
         25    2    1    2    0    0 -0.10525522192E+02  0.71372035856E+02 -0.79742801482E+02  0.16495734142E+03  0.12508899225E+03 0.  0.
          5    1    3    3  502    0 -0.21198446257E+02  0.98867893566E+02 -0.27587378640E+02  0.10489409117E+03  0.41800000000E+01 0. -1.
         -5    1    3    3    0  502  0.10672924065E+02 -0.27495857710E+02 -0.52155422842E+02  0.60063250254E+02  0.41800000000E+01 0. -1.
        -11    1    1    2    0    0 -0.39012947346E+02 -0.20712426264E+02  0.10220900359E+02  0.45337417951E+02  0.00000000000E+00 0. -1.
         11    1    1    2    0    0  0.49538469538E+02 -0.50659609592E+02  0.29492372161E+02  0.76748003387E+02  0.00000000000E+00 0.  1.
</event>
<event>
 7    1  0.3025448E-009  0.1087761E+03  0.7561462E-02  0.1262853E+00
         -1   -1    0    0    0  501 -0.00000000000E+00  0.00000000000E+00  0.15558471516E+03  0.15558471516E+03  0.00000000000E+00 0.  1.
          1   -1    0    0  501    0  0.00000000000E+00 -0.00000000000E+00 -0.10466915340E+03  0.10466915340E+03  0.00000000000E+00 0. -1.
         25    2    1    2    0    0 -0.25699096969E+02  0.55299490556E+02  0.58730388715E+02  0.15104545002E+03  0.12508793776E+03 0.  0.
          5    1    3    3  502    0  0.14798960835E+02 -0.24207437568E+02  0.54542235162E+02  0.61622537208E+02  0.41800000000E+01 0. -1.
         -5    1    3    3    0  502 -0.40498057805E+02  0.79506928125E+02  0.41881535524E+01  0.89422912813E+02  0.41800000000E+01 0. -1.
        -11    1    1    2    0    0  0.51111956223E+02 -0.17547965534E+02 -0.26286348301E+02  0.60094386346E+02  0.00000000000E+00 0.  1.
         11    1    1    2    0    0 -0.25412859254E+02 -0.37751525023E+02  0.18471521347E+02  0.49114032189E+02  0.00000000000E+00 0. -1.
</event>
<event>
 7    1  0.2626349E-009  0.8911973E+02  0.7561462E-02  0.1304998E+00
         -2   -1    0    0    0  501 -0.00000000000E+00  0.00000000000E+00  0.43733703806E+02  0.43733703806E+02  0.00000000000E+00 0. -1.
          2   -1    0    0  501    0  0.00000000000E+00 -0.00000000000E+00 -0.38643800223E+03  0.38643800223E+03  0.00000000000E+00 0.  1.
         25    2    1    2    0    0  0.45509376054E+02 -0.53874673908E+02 -0.17191396366E+03  0.22399573829E+03  0.12508435583E+03 0.  0.
          5    1    3    3  502    0  0.58478146923E+02 -0.58866962590E+02 -0.41669448570E+02  0.92945297332E+02  0.41800000000E+01 0.  1.
         -5    1    3    3    0  502 -0.12968770868E+02  0.49922886819E+01 -0.13024451509E+03  0.13105044096E+03  0.41800000000E+01 0.  1.
        -11    1    1    2    0    0 -0.19697089347E+02  0.51004065685E+02 -0.17169342691E+03  0.18018885340E+03  0.00000000000E+00 0.  1.
         11    1    1    2    0    0 -0.25812286707E+02  0.28706082225E+01  0.90309214706E+00  0.25987114346E+02  0.00000000000E+00 0. -1.
</event>
<event>
 7    1  0.2626349E-009  0.1400340E+03  0.7561462E-02  0.1213283E+00
         -1   -1    0    0    0  501 -0.00000000000E+00  0.00000000000E+00  0.29937400473E+03  0.29937400473E+03  0.00000000000E+00 0.  1.
          1   -1    0    0  501    0  0.00000000000E+00 -0.00000000000E+00 -0.67074742015E+02  0.67074742015E+02  0.00000000000E+00 0. -1.
         25    2    1    2    0    0  0.74826619623E+02 -0.49261947068E+02  0.11397099154E+03  0.19147486640E+03  0.12508986816E+03 0.  0.
          5    1    3    3  502    0  0.86971841604E+02  0.12982137103E+02  0.82097059922E+02  0.12037456859E+03  0.41800000000E+01 0. -1.
         -5    1    3    3    0  502 -0.12145221982E+02 -0.62244084171E+02  0.31873931618E+02  0.71100297806E+02  0.41800000000E+01 0. -1.
        -11    1    1    2    0    0 -0.94020850716E+02  0.24523758994E+02  0.95349837934E+02  0.13613569230E+03  0.00000000000E+00 0. -1.
         11    1    1    2    0    0  0.19194231093E+02  0.24738188073E+02  0.22978433236E+02  0.38838188042E+02  0.00000000000E+00 0.  1.
</event>
<event>
 7    1  0.2626349E-009  0.1511155E+03  0.7561462E-02  0.1199109E+00
         -3   -1    0    0    0  501 -0.00000000000E+00  0.00000000000E+00  0.20645032672E+03  0.20645032672E+03  0.00000000000E+00 0.  1.
          3   -1    0    0  501    0  0.00000000000E+00 -0.00000000000E+00 -0.18610387410E+03  0.18610387410E+03  0.00000000000E+00 0. -1.
         25    2    1    2    0    0  0.12490261080E+03 -0.87049767218E+00 -0.91035761270E+02  0.19883810104E+03  0.12509060973E+03 0.  0.
          5    1    3    3  502    0  0.13007233688E+03  0.12226878251E+02 -0.27431589991E+02  0.13356000113E+03  0.41800000000E+01 0. -1.
         -5    1    3    3    0  502 -0.51697260728E+01 -0.13097375923E+02 -0.63604171279E+02  0.65278099910E+02  0.41800000000E+01 0. -1.
        -11    1    1    2    0    0 -0.44299928343E+02 -0.45777017539E+02  0.59208304732E+02  0.86969203372E+02  0.00000000000E+00 0.  1.
         11    1    1    2    0    0 -0.80602682461E+02  0.46647515211E+02  0.52173909165E+02  0.10674689641E+03  0.00000000000E+00 0. -1.
</event>
<event>
 7    1  0.2626349E-009  0.2328229E+03  0.7561462E-02  0.1124668E+00
          1   -1    0    0  501    0  0.00000000000E+00  0.00000000000E+00  0.15931523845E+04  0.15931523845E+04  0.00000000000E+00 0. -1.
         -1   -1    0    0    0  501 -0.00000000000E+00 -0.00000000000E+00 -0.41013206030E+02  0.41013206030E+02  0.00000000000E+00 0.  1.
         25    2    1    2    0    0 -0.17941524506E+03  0.14815510686E+03  0.76430915059E+03  0.80867520063E+03  0.12508931444E+03 0.  0.
          5    1    3    3  502    0 -0.46575096174E+02  0.41322642338E+02  0.41830622181E+03  0.42293541819E+03  0.41800000000E+01 0.  1.
         -5    1    3    3    0  502 -0.13284014888E+03  0.10683246452E+03  0.34600292878E+03  0.38573978244E+03  0.41800000000E+01 0.  1.
        -11    1    1    2    0    0  0.74889713507E+02 -0.59023539811E+02  0.46455635877E+03  0.47424134986E+03  0.00000000000E+00 0. -1.
         11    1    1    2    0    0  0.10452553155E+03 -0.89131567052E+02  0.32327366908E+03  0.35124904001E+03  0.00000000000E+00 0.  1.
</event>
<event>
 7    1  0.2626349E-009  0.1768854E+03  0.7561462E-02  0.1170852E+00
          2   -1    0    0  501    0  0.00000000000E+00  0.00000000000E+00  0.21333887626E+03  0.21333887626E+03  0.00000000000E+00 0.  1.
         -2   -1    0    0    0  501 -0.00000000000E+00 -0.00000000000E+00 -0.18502918054E+03  0.18502918054E+03  0.00000000000E+00 0. -1.
         25    2    1    2    0    0  0.15247204656E+03 -0.66740635172E+02  0.46512715712E+01  0.20825760714E+03  0.12509020441E+03 0.  0.
          5    1    3    3  502    0  0.15963308638E+03 -0.49382962086E+02 -0.28855376052E+02  0.16962165056E+03  0.41800000000E+01 0.  1.
         -5    1    3    3    0  502 -0.71610398152E+01 -0.17357673086E+02  0.33506647623E+02  0.38635956584E+02  0.41800000000E+01 0.  1.
        -11    1    1    2    0    0 -0.98555689944E+02  0.33740091291E+02  0.56890503925E+02  0.11869350116E+03  0.00000000000E+00 0.  1.
         11    1    1    2    0    0 -0.53916356616E+02  0.33000543881E+02 -0.33232079775E+02  0.71416948502E+02  0.00000000000E+00 0. -1.
</event>
<event>
 7    1  0.2626349E-009  0.1233532E+03  0.7561462E-02  0.1237666E+00
         -2   -1    0    0    0  501 -0.00000000000E+00  0.00000000000E+00  0.72716064986E+02  0.72716064986E+02  0.00000000000E+00 0.  1.
          2   -1    0    0  501    0  0.00000000000E+00 -0.00000000000E+00 -0.27849085427E+03  0.27849085427E+03  0.00000000000E+00 0. -1.
         25    2    1    2    0    0 -0.86662791719E+02  0.10559185722E+02 -0.14921148175E+03  0.21338537824E+03  0.12508923811E+03 0.  0.
          5    1    3    3  502    0 -0.86371775398E+02  0.50754113683E+02 -0.13954556507E+03  0.17183276979E+03  0.41800000000E+01 0. -1.
         -5    1    3    3    0  502 -0.29101632061E+00 -0.40194927961E+02 -0.96659166752E+01  0.41552608455E+02  0.41800000000E+01 0. -1.
        -11    1    1    2    0    0  0.34945285628E+00 -0.19271296822E+02  0.15743648502E+02  0.24887094380E+02  0.00000000000E+00 0.  1.
         11    1    1    2    0    0  0.86313338863E+02  0.87121110999E+01 -0.72306956044E+02  0.11293444664E+03  0.00000000000E+00 0. -1.
</event>
<event>
 7    1  0.2626349E-009  0.9919460E+02  0.7561462E-02  0.1281999E+00
         -2   -1    0    0    0  501 -0.00000000000E+00  0.00000000000E+00  0.12614656164E+02  0.12614656164E+02  0.00000000000E+00 0. -1.
          2   -1    0    0  501    0  0.00000000000E+00 -0.00000000000E+00 -0.13332780409E+04  0.13332780409E+04  0.00000000000E+00 0.  1.
         25    2    1    2    0    0 -0.38030378057E+01 -0.66704373459E+01 -0.11065884948E+04  0.11136624262E+04  0.12508774895E+03 0.  0.
          5    1    3    3  502    0  0.45869117844E+02  0.32719268860E+02 -0.36368139244E+03  0.36804368509E+03  0.41800000000E+01 0. -1.
         -5    1    3    3    0  502 -0.49672155650E+02 -0.39389706206E+02 -0.74290710235E+03  0.74561874113E+03  0.41800000000E+01 0. -1.
        -11    1    1    2    0    0 -0.87815714537E+01 -0.34348445192E+02 -0.42372059267E+02  0.55247833359E+02  0.00000000000E+00 0. -1.
         11    1    1    2    0    0  0.12584609259E+02  0.41018882538E+02 -0.17170283063E+03  0.17698243744E+03  0.00000000000E+00 0.  1.
</event>
<event>
 7    1  0.2626349E-009  0.9468703E+02  0.7561462E-02  0.1291883E+00
         -3   -1    0    0    0  501 -0.00000000000E+00  0.00000000000E+00  0.75749375967E+02  0.75749375967E+02  0.00000000000E+00 0.  1.
          3   -1    0    0  501    0  0.00000000000E+00 -0.00000000000E+00 -0.26448005434E+03  0.26448005434E+03  0.00000000000E+00 0. -1.
         25    2    1    2    0    0  0.33716800316E+02 -0.59194436298E+02 -0.26617086122E+02  0.14490714918E+03  0.12509519855E+03 0.  0.
          5    1    3    3  502    0  0.10872523119E+01 -0.57505977478E+02  0.40278416149E+02  0.70341614786E+02  0.41800000000E+01 0. -1.
         -5    1    3    3    0  502  0.32629548004E+02 -0.16884588204E+01 -0.66895502271E+02  0.74565534399E+02  0.41800000000E+01 0. -1.
        -11    1    1    2    0    0  0.22187356377E+02  0.24108826251E+02 -0.97899949509E+02  0.10323717547E+03  0.00000000000E+00 0. -1.
         11    1    1    2    0    0 -0.55904156693E+02  0.35085610047E+02 -0.64213642742E+02  0.92085105648E+02  0.00000000000E+00 0.  1.
</event>
<event>
 7    1  0.2626349E-009  0.1456840E+03  0.7561462E-02  0.1205879E+00
          1   -1    0    0  501    0  0.00000000000E+00  0.00000000000E+00  0.57104764665E+03  0.57104764665E+03  0.00000000000E+00 0. -1.
         -1   -1    0    0    0  501 -0.00000000000E+00 -0.00000000000E+00 -0.49733169625E+02  0.49733169625E+02  0.00000000000E+00 0.  1.
         25    2    1    2    0    0 -0.65766622609E+02  0.78782901230E+02  0.13404547247E+03  0.21011437171E+03  0.12509143190E+03 0.  0.
          5    1    3    3  502    0 -0.69313544172E+02  0.10846230689E+03  0.91630294383E+02  0.15805702348E+03  0.41800000000E+01 0. -1.
         -5    1    3    3    0  502  0.35469215626E+01 -0.29679405664E+02  0.42415178083E+02  0.52057348232E+02  0.41800000000E+01 0. -1.
        -11    1    1    2    0    0  0.12764712573E+02 -0.78363840045E+02  0.18009777966E+03  0.19682235532E+03  0.00000000000E+00 0.  1.
         11    1    1    2    0    0  0.53001910036E+02 -0.41906118431E+00  0.20717122490E+03  0.21384408925E+03  0.00000000000E+00 0. -1.
</event>
<event>
 7    1  0.2626349E-009  0.9028262E+02  0.7561462E-02  0.1302169E+00
          2   -1    0    0  501    0  0.00000000000E+00  0.00000000000E+00  0.67258895764E+02  0.67258895764E+02  0.00000000000E+00 0. -1.
         -2   -1    0    0    0  501 -0.00000000000E+00 -0.00000000000E+00 -0.21056010585E+03  0.21056010585E+03  0.00000000000E+00 0.  1.
         25    2    1    2    0    0  0.48559106576E+02  0.78225422292E+01 -0.89640315839E+02  0.16156204062E+03  0.12509087796E+03 0.  0.
          5    1    3    3  502    0 -0.22123445822E+02  0.30157281425E+02 -0.77738136609E+02  0.86368968742E+02  0.41800000000E+01 0.  1.
         -5    1    3    3    0  502  0.70682552398E+02 -0.22334739196E+02 -0.11902179230E+02  0.75193071881E+02  0.41800000000E+01 0.  1.
        -11    1    1    2    0    0 -0.20477924899E+02  0.20376893473E+02  0.18177562200E+02  0.34131905357E+02  0.00000000000E+00 0. -1.
         11    1    1    2    0    0 -0.28081181678E+02 -0.28199435702E+02 -0.71838456449E+02  0.82125055637E+02  0.00000000000E+00 0.  1.
</event>
<event>
 7    1  0.2626349E-009  0.9725574E+02  0.7561462E-02  0.1286175E+00
         -1   -1    0    0    0  501 -0.00000000000E+00  0.00000000000E+00  0.58480942373E+03  0.58480942373E+03  0.00000000000E+00 0.  1.
          1   -1    0    0  501    0  0.00000000000E+00 -0.00000000000E+00 -0.27686209020E+02  0.27686209020E+02  0.00000000000E+00 0. -1.
         25    2    1    2    0    0  0.99600022330E+01 -0.56881993346E+02  0.39161934337E+03  0.41514691505E+03  0.12508592311E+03 0.  0.
          5    1    3    3  502    0  0.60350826851E+02 -0.38580438386E+00  0.14434379691E+03  0.15650870664E+03  0.41800000000E+01 0.  1.
         -5    1    3    3    0  502 -0.50390824618E+02 -0.56496188962E+02  0.24727554646E+03  0.25863820841E+03  0.41800000000E+01 0.  1.
        -11    1    1    2    0    0 -0.12100234113E+01  0.27792262483E+02  0.16462492764E+03  0.16695879974E+03  0.00000000000E+00 0.  1.
         11    1    1    2    0    0 -0.87499788217E+01  0.29089730863E+02  0.87894369002E+00  0.30389917951E+02  0.00000000000E+00 0. -1.
</event>
<event>
 7    1  0.2626349E-009  0.1798235E+03  0.7561462E-02  0.1167974E+00
          2   -1    0    0  501    0  0.00000000000E+00  0.00000000000E+00  0.22661989658E+03  0.22661989658E+03  0.00000000000E+00 0. -1.
         -2   -1    0    0    0  501 -0.00000000000E+00 -0.00000000000E+00 -0.15368734697E+03  0.15368734697E+03  0.00000000000E+00 0.  1.
         25    2    1    2    0    0  0.13643718021E+03 -0.65200648767E+02  0.40864564187E+02  0.20046242724E+03  0.12509613658E+03 0.  0.
          5    1    3    3  502    0  0.16776961497E+02  0.26696175772E+02 -0.20161823560E+02  0.37657984109E+02  0.41800000000E+01 0.  1.
         -5    1    3    3    0  502  0.11966021871E+03 -0.91896824539E+02  0.61026387746E+02  0.16280444313E+03  0.41800000000E+01 0.  1.
        -11    1    1    2    0    0 -0.74177383702E+02  0.83813999828E+02  0.18110524744E+02  0.11338016549E+03  0.00000000000E+00 0.  1.
         11    1    1    2    0    0 -0.62259796505E+02 -0.18613351062E+02  0.13957460680E+02  0.66464650810E+02  0.00000000000E+00 0. -1.
</event>
<event>
 7    1  0.2626349E-009  0.3147394E+03  0.7561462E-02  0.1078096E+00
         -1   -1    0    0    0  501 -0.00000000000E+00  0.00000000000E+00  0.45722091038E+03  0.45722091038E+03  0.00000000000E+00 0.  1.
          1   -1    0    0  501    0  0.00000000000E+00 -0.00000000000E+00 -0.22654635409E+03  0.22654635409E+03  0.00000000000E+00 0. -1.
         25    2    1    2    0    0  0.12780470635E+03 -0.27339208385E+03  0.90626304818E+02  0.33902554607E+03  0.12509164355E+03 0.  0.
          5    1    3    3  502    0 -0.12013109281E+02 -0.11061160339E+03  0.41708259247E+02  0.11889614329E+03  0.41800000000E+01 0. -1.
         -5    1    3    3    0  502  0.13981781563E+03 -0.16278048046E+03  0.48918045570E+02  0.22012940278E+03  0.41800000000E+01 0. -1.
        -11    1    1    2    0    0 -0.51693424378E+02  0.14868122002E+03  0.11856601608E+03  0.19706906272E+03  0.00000000000E+00 0.  1.
         11    1    1    2    0    0 -0.76111281973E+02  0.12471086383E+03  0.21482235390E+02  0.14767265569E+03  0.00000000000E+00 0. -1.
</event>
<event>
 7    1  0.2626349E-009  0.1391711E+03  0.7561462E-02  0.1214449E+00
         -1   -1    0    0    0  501 -0.00000000000E+00  0.00000000000E+00  0.10891944470E+04  0.10891944470E+04  0.00000000000E+00 0.  1.
          1   -1    0    0  501    0  0.00000000000E+00 -0.00000000000E+00 -0.26211541897E+02  0.26211541897E+02  0.00000000000E+00 0. -1.
         25    2    1    2    0    0  0.90163616592E+02  0.93380592053E+02  0.43409553836E+03  0.47004086658E+03  0.12510022821E+03 0.  0.
          5    1    3    3  502    0  0.38588062704E+02  0.79650879856E+02  0.10854107281E+03  0.14011401833E+03  0.41800000000E+01 0.  1.
         -5    1    3    3    0  502  0.51575553888E+02  0.13729712198E+02  0.32555446555E+03  0.32992684825E+03  0.41800000000E+01 0.  1.
        -11    1    1    2    0    0 -0.45739897635E+02 -0.18923423267E+02  0.13212228302E+03  0.14109050944E+03  0.00000000000E+00 0. -1.
         11    1    1    2    0    0 -0.44423718956E+02 -0.74457168787E+02  0.49676508372E+03  0.50427461288E+03  0.00000000000E+00 0.  1.
</event>
<event>
 7    1  0.2626349E-009  0.1005907E+03  0.7561462E-02  0.1279059E+00
         -1   -1    0    0    0  501 -0.00000000000E+00  0.00000000000E+00  0.29902527510E+02  0.29902527510E+02  0.00000000000E+00 0.  1.
          1   -1    0    0  501    0  0.00000000000E+00 -0.00000000000E+00 -0.42582561944E+03  0.42582561944E+03  0.00000000000E+00 0. -1.
         25    2    1    2    0    0 -0.22830400401E+02 -0.20764295638E+02 -0.20021951408E+03  0.23809208439E+03  0.12509038202E+03 0.  0.
          5    1    3    3  502    0 -0.46243852338E+00  0.43510212109E+02 -0.25658091056E+02  0.50686906039E+02  0.41800000000E+01 0.  1.
         -5    1    3    3    0  502 -0.22367961878E+02 -0.64274507747E+02 -0.17456142302E+03  0.18740517835E+03  0.41800000000E+01 0.  1.
        -11    1    1    2    0    0  0.54580432922E+02  0.17740001831E+02 -0.86006387035E+02  0.10339646964E+03  0.00000000000E+00 0.  1.
         11    1    1    2    0    0 -0.31750032521E+02  0.30242938065E+01 -0.10969719082E+03  0.11423959293E+03  0.00000000000E+00 0. -1.
</event>
<event>
 7    1  0.2626349E-009  0.1059080E+03  0.7561462E-02  0.1268341E+00
          2   -1    0    0  501    0  0.00000000000E+00  0.00000000000E+00  0.17755262259E+03  0.17755262259E+03  0.00000000000E+00 0.  1.
         -2   -1    0    0    0  501 -0.00000000000E+00 -0.00000000000E+00 -0.14072403939E+03  0.14072403939E+03  0.00000000000E+00 0. -1.
         25    2    1    2    0    0 -0.89992120290E+02 -0.20329051136E+02  0.89937914414E+02  0.17957665967E+03  0.12508835363E+03 0.  0.
          5    1    3    3  502    0 -0.42380662197E+02 -0.21560450417E+01  0.11498631572E+03  0.12263806204E+03  0.41800000000E+01 0. -1.
         -5    1    3    3    0  502 -0.47611458092E+02 -0.18173006094E+02 -0.25048401304E+02  0.56938597630E+02  0.41800000000E+01 0. -1.
        -11    1    1    2    0    0 -0.67146592216E+01  0.20251124120E+02  0.96473711649E+01  0.23415090155E+02  0.00000000000E+00 0.  1.
         11    1    1    2    0    0  0.96706779511E+02  0.77927016238E-01 -0.62756702380E+02  0.11528491215E+03  0.00000000000E+00 0. -1.
</event>
<event>
 7    1  0.2626349E-009  0.1035295E+03  0.7561462E-02  0.1273044E+00
         -4   -1    0    0    0  501 -0.00000000000E+00  0.00000000000E+00  0.15992078831E+03  0.15992078831E+03  0.00000000000E+00 0.  1.
          4   -1    0    0  501    0  0.00000000000E+00 -0.00000000000E+00 -0.87087262672E+02  0.87087262672E+02  0.00000000000E+00 0. -1.
         25    2    1    2    0    0 -0.15377915355E+02 -0.34235348103E+02  0.12839883541E+02  0.13123331131E+03  0.12509508403E+03 0.  0.
          5    1    3    3  502    0 -0.44401395467E+02  0.18780485414E+02 -0.30087619855E+02  0.56981820086E+02  0.41800000000E+01 0. -1.
         -5    1    3    3    0  502  0.29023480112E+02 -0.53015833517E+02  0.42927503396E+02  0.74251491225E+02  0.41800000000E+01 0. -1.
        -11    1    1    2    0    0 -0.23644309412E+02 -0.20205617029E+02  0.26624558516E+02  0.40941268217E+02  0.00000000000E+00 0.  1.
         11    1    1    2    0    0  0.39022224766E+02  0.54440965132E+02  0.33369083578E+02  0.74833471449E+02  0.00000000000E+00 0. -1.
</event>
<event>
 7    1  0.2626349E-009  0.8555368E+02  0.7561462E-02  0.1313991E+00
         -2   -1    0    0    0  501 -0.00000000000E+00  0.00000000000E+00  0.25042610400E+03  0.25042610400E+03  0.00000000000E+00 0.  1.
          2   -1    0    0  501    0  0.00000000000E+00 -0.00000000000E+00 -0.51493663551E+02  0.51493663551E+02  0.00000000000E+00 0. -1.
         25    2    1    2    0    0  0.22099989954E+02  0.42075787734E+00  0.88263674013E+02  0.15468036060E+03  0.12508777403E+03 0.  0.
          5    1    3    3  502    0 -0.36939491892E+02 -0.17035415212E+02  0.83272201934E+02  0.92771026984E+02  0.41800000000E+01 0. -1.
         -5    1    3    3    0  502  0.59039481846E+02  0.17456173089E+02  0.49914720789E+01  0.61909333618E+02  0.41800000000E+01 0. -1.
        -11    1    1    2    0    0  0.22116684353E+02  0.79553678472E+01 -0.41939939083E+01  0.23875200297E+02  0.00000000000E+00 0. -1.
         11    1    1    2    0    0 -0.44216674306E+02 -0.83761257246E+01  0.11486276034E+03  0.12336420665E+03  0.00000000000E+00 0.  1.
</event>
<event>
 7    1  0.2626349E-009  0.3418330E+03  0.7561462E-02  0.1066018E+00
          1   -1    0    0  501    0  0.00000000000E+00  0.00000000000E+00  0.16306433590E+04  0.16306433590E+04  0.00000000000E+00 0. -1.
         -1   -1    0    0    0  501 -0.00000000000E+00 -0.00000000000E+00 -0.11269880723E+03  0.11269880723E+03  0.00000000000E+00 0.  1.
         25    2    1    2    0    0  0.28833209611E+03 -0.15104667295E+03  0.24453319857E+03  0.42590471564E+03  0.12509135279E+03 0.  0.
          5    1    3    3  502    0  0.22440750274E+03 -0.17037379007E+03  0.19889318778E+03  0.34490857944E+03  0.41800000000E+01 0.  1.
         -5    1    3    3    0  502  0.63924593378E+02  0.19327117118E+02  0.45640010790E+02  0.80996136201E+02  0.41800000000E+01 0.  1.
        -11    1    1    2    0    0 -0.72023387269E+02  0.79168828100E+02  0.48922104325E+03  0.50079167407E+03  0.00000000000E+00 0.  1.
         11    1    1    2    0    0 -0.21630870885E+03  0.71877844847E+02  0.78419030995E+03  0.81664577653E+03  0.00000000000E+00 0. -1.
</event>
<event>
 7    1  0.2626349E-009  0.7934897E+02  0.7561462E-02  0.1330909E+00
          2   -1    0    0  501    0  0.00000000000E+00  0.00000000000E+00  0.17327736252E+03  0.17327736252E+03  0.00000000000E+00 0. -1.
         -2   -1    0    0    0  501 -0.00000000000E+00 -0.00000000000E+00 -0.71746023458E+02  0.71746023458E+02  0.00000000000E+00 0.  1.
         25    2    1    2    0    0  0.11490241297E+02 -0.31285438826E+02  0.34724584385E+02  0.13402891723E+03  0.12508856689E+03 0.  0.
          5    1    3    3  502    0 -0.10356753948E+02  0.28490058332E+02  0.58452635268E+02  0.65978244489E+02  0.41800000000E+01 0.  1.
         -5    1    3    3    0  502  0.21846995245E+02 -0.59775497159E+02 -0.23728050883E+02  0.68050672741E+02  0.41800000000E+01 0.  1.
        -11    1    1    2    0    0 -0.33420590515E+02  0.13356729246E+02  0.73543714939E+02  0.81878056240E+02  0.00000000000E+00 0. -1.
         11    1    1    2    0    0  0.21930349219E+02  0.17928709581E+02 -0.67369602576E+01  0.29116412512E+02  0.00000000000E+00 0.  1.
</event>
<event>
 7    1  0.2626349E-009  0.9881385E+02  0.7561462E-02  0.1282810E+00
          1   -1    0    0  501    0  0.00000000000E+00  0.00000000000E+00  0.11971399593E+03  0.11971399593E+03  0.00000000000E+00 0. -1.
         -1   -1    0    0    0  501 -0.00000000000E+00 -0.00000000000E+00 -0.14084387264E+03  0.14084387264E+03  0.00000000000E+00 0.  1.
         25    2    1    2    0    0  0.50155377915E+02  0.37053548093E+02  0.19654235033E+02  0.14114955199E+03  0.12509348389E+03 0.  0.
          5    1    3    3  502    0  0.49443485743E+02  0.62640133650E+02  0.55217722198E+02  0.97133484807E+02  0.41800000000E+01 0. -1.
         -5    1    3    3    0  502  0.71189217235E+00 -0.25586585557E+02 -0.35563487166E+02  0.44016067184E+02  0.41800000000E+01 0. -1.
        -11    1    1    2    0    0 -0.67051622422E+02 -0.30398379012E+02  0.12372603765E+01  0.73630919655E+02  0.00000000000E+00 0. -1.
         11    1    1    2    0    0  0.16896244507E+02 -0.66551690805E+01 -0.42021372124E+02  0.45777396924E+02  0.00000000000E+00 0.  1.
</event>
<event>
 7    1  0.2626349E-009  0.1234796E+03  0.7561462E-02  0.1237465E+00
         -1   -1    0    0    0  501 -0.00000000000E+00  0.00000000000E+00  0.22414428877E+03  0.22414428877E+03  0.00000000000E+00 0.  1.
          1   -1    0    0  501    0  0.00000000000E+00 -0.00000000000E+00 -0.16259450359E+03  0.16259450359E+03  0.00000000000E+00 0. -1.
         25    2    1    2    0    0 -0.45839687586E+02  0.56177560628E+02 -0.11025831348E+03  0.18182816651E+03  0.12508953261E+03 0.  0.
          5    1    3    3  502    0  0.35200386321E+02 -0.76079390462E+01 -0.92611899649E+01  0.37419112406E+02  0.41800000000E+01 0. -1.
         -5    1    3    3    0  502 -0.81040073907E+02  0.63785499674E+02 -0.10099712352E+03  0.14440905410E+03  0.41800000000E+01 0. -1.
        -11    1    1    2    0    0  0.40781040016E+02  0.92897505221E+01  0.95391364271E+02  0.10415807730E+03  0.00000000000E+00 0.  1.
         11    1    1    2    0    0  0.50586475704E+01 -0.65467311150E+02  0.76416734389E+02  0.10075254855E+03  0.00000000000E+00 0. -1.
</event>
<event>
 7    1  0.2626349E-009  0.1216553E+03  0.7561462E-02  0.1240391E+00
         -2   -1    0    0    0  501 -0.00000000000E+00  0.00000000000E+00  0.32634218838E+03  0.32634218838E+03  0.00000000000E+00 0. -1.
          2   -1    0    0  501    0  0.00000000000E+00 -0.00000000000E+00 -0.12744800176E+03  0.12744800176E+03  0.00000000000E+00 0.  1.
         25    2    1    2    0    0 -0.56601802356E+02 -0.10147305578E+03 -0.40734268027E+02  0.17552085338E+03  0.12509094412E+03 0.  0.
          5    1    3    3  502    0 -0.56181284593E+02 -0.68397754728E+02 -0.83186993543E+02  0.12154068407E+03  0.41800000000E+01 0.  1.
         -5    1    3    3    0  502 -0.42051776340E+00 -0.33075301054E+02  0.42452725515E+02  0.53980169310E+02  0.41800000000E+01 0.  1.
        -11    1    1    2    0    0  0.31976683685E+02  0.87239057591E+02  0.10301874333E+03  0.13873003621E+03  0.00000000000E+00 0.  1.
         11    1    1    2    0    0  0.24625118672E+02  0.14233998192E+02  0.13660971132E+03  0.13953930056E+03  0.00000000000E+00 0. -1.
</event>
<event>
 7    1  0.2626349E-009  0.1030454E+03  0.7561462E-02  0.1274019E+00
          3   -1    0    0  501    0  0.00000000000E+00  0.00000000000E+00  0.55737279566E+02  0.55737279566E+02  0.00000000000E+00 0. -1.
         -3   -1    0    0    0  501 -0.00000000000E+00 -0.00000000000E+00 -0.33408095259E+03  0.33408095259E+03  0.00000000000E+00 0.  1.
         25    2    1    2    0    0 -0.74519680601E+02  0.26708322589E+02 -0.18243587385E+03  0.23493884556E+03  0.12508755251E+03 0.  0.
          5    1    3    3  502    0 -0.68366885900E+02  0.93963844054E+01 -0.20784075815E+02  0.72192612745E+02  0.41800000000E+01 0. -1.
         -5    1    3    3    0  502 -0.61527947017E+01  0.17311938184E+02 -0.16165179804E+03  0.16274623281E+03  0.41800000000E+01 0. -1.
        -11    1    1    2    0    0  0.46871664984E+02  0.29562932124E+02 -0.26756678037E+02  0.61537303758E+02  0.00000000000E+00 0. -1.
         11    1    1    2    0    0  0.27648015617E+02 -0.56271254713E+02 -0.69151121133E+02  0.93342082838E+02  0.00000000000E+00 0.  1.
</event>
<event>
 7    1  0.2626349E-009  0.1562917E+03  0.7561462E-02  0.1192948E+00
          1   -1    0    0  501    0  0.00000000000E+00  0.00000000000E+00  0.44378103751E+03  0.44378103751E+03  0.00000000000E+00 0. -1.
         -1   -1    0    0    0  501 -0.00000000000E+00 -0.00000000000E+00 -0.64729734889E+02  0.64729734889E+02  0.00000000000E+00 0.  1.
         25    2    1    2    0    0 -0.35650495366E+02  0.12354497011E+03  0.18691579218E+03  0.25907348601E+03  0.12508892968E+03 0.  0.
          5    1    3    3  502    0  0.15291363151E+02 -0.18245148696E+02  0.49619025287E+02  0.55192674409E+02  0.41800000000E+01 0.  1.
         -5    1    3    3    0  502 -0.50941858517E+02  0.14179011880E+03  0.13729676689E+03  0.20388081160E+03  0.41800000000E+01 0.  1.
        -11    1    1    2    0    0 -0.96433881838E+01 -0.52915058080E+02  0.19003587847E+02  0.57045023082E+02  0.00000000000E+00 0.  1.
         11    1    1    2    0    0  0.45293883550E+02 -0.70629912025E+02  0.17313192259E+03  0.19239226331E+03  0.00000000000E+00 0. -1.
</event>
<event>
 7    1  0.2626349E-009  0.1862074E+03  0.7561462E-02  0.1161927E+00
         -1   -1    0    0    0  501 -0.00000000000E+00  0.00000000000E+00  0.45853270822E+03  0.45853270822E+03  0.00000000000E+00 0.  1.
          1   -1    0    0  501    0  0.00000000000E+00 -0.00000000000E+00 -0.90056944635E+02  0.90056944635E+02  0.00000000000E+00 0. -1.
         25    2    1    2    0    0 -0.13329779339E+03  0.10457123894E+03  0.21380088053E+03  0.30010327133E+03  0.12509081186E+03 0.  0.
          5    1    3    3  502    0 -0.71765645914E+02 -0.98121583670E+01  0.11852135949E+03  0.13896536058E+03  0.41800000000E+01 0. -1.
         -5    1    3    3    0  502 -0.61532147481E+02  0.11438339730E+03  0.95279521039E+02  0.16113791075E+03  0.41800000000E+01 0. -1.
        -11    1    1    2    0    0  0.59260878667E+02 -0.38420755849E+02  0.12716544306E+03  0.14546152800E+03  0.00000000000E+00 0. -1.
         11    1    1    2    0    0  0.74036914728E+02 -0.66150483087E+02  0.27509440002E+02  0.10302485353E+03  0.00000000000E+00 0.  1.
</event>
<event>
 7    1  0.2626349E-009  0.1558267E+03  0.7561462E-02  0.1193491E+00
         -2   -1    0    0    0  501 -0.00000000000E+00  0.00000000000E+00  0.41606886499E+02  0.41606886499E+02  0.00000000000E+00 0.  1.
          2   -1    0    0  501    0  0.00000000000E+00 -0.00000000000E+00 -0.70060432931E+03  0.70060432931E+03  0.00000000000E+00 0. -1.
         25    2    1    2    0    0 -0.12589462981E+03  0.21073286080E+02 -0.28852329601E+03  0.33939346154E+03  0.12509471690E+03 0.  0.
          5    1    3    3  502    0 -0.65874619388E+02 -0.51830094747E+02 -0.14512277490E+03  0.16764222737E+03  0.41800000000E+01 0.  1.
         -5    1    3    3    0  502 -0.60020010420E+02  0.72903380827E+02 -0.14340052110E+03  0.17175123417E+03  0.41800000000E+01 0.  1.
        -11    1    1    2    0    0  0.10732183089E+03 -0.31103910434E+01 -0.35869869300E+03  0.37442275876E+03  0.00000000000E+00 0. -1.
         11    1    1    2    0    0  0.18572798916E+02 -0.17962895036E+02 -0.11775453806E+02  0.28394995510E+02  0.00000000000E+00 0.  1.
</event>
<event>
 7    1  0.4921332E-009  0.1894415E+03  0.7561462E-02  0.1158966E+00
          2   -1    0    0  501    0  0.00000000000E+00  0.00000000000E+00  0.40381736734E+03  0.40381736734E+03  0.00000000000E+00 0. -1.
         -2   -1    0    0    0  501 -0.00000000000E+00 -0.00000000000E+00 -0.11008859845E+03  0.11008859845E+03  0.00000000000E+00 0.  1.
         25    2    1    2    0    0  0.15311204435E+03 -0.67310972724E+02  0.23497080247E+03  0.31437675111E+03  0.12508956171E+03 0.  0.
          5    1    3    3  502    0  0.54355451792E+02 -0.74627330442E+02  0.51383135644E+02  0.10574238799E+03  0.41800000000E+01 0.  1.
         -5    1    3    3    0  502  0.98756592560E+02  0.73163577179E+01  0.18358766683E+03  0.20863436312E+03  0.41800000000E+01 0.  1.
        -11    1    1    2    0    0 -0.60075458317E+02 -0.16316082654E+02  0.37398264020E+02  0.72621659282E+02  0.00000000000E+00 0. -1.
         11    1    1    2    0    0 -0.93036586036E+02  0.83627055378E+02  0.21359702400E+02  0.12690755541E+03  0.00000000000E+00 0.  1.
</event>
<event>
 7    1  0.2626349E-009  0.9982825E+02  0.7561462E-02  0.1280658E+00
          3   -1    0    0  501    0  0.00000000000E+00  0.00000000000E+00  0.19262953660E+03  0.19262953660E+03  0.00000000000E+00 0. -1.
         -3   -1    0    0    0  501 -0.00000000000E+00 -0.00000000000E+00 -0.68794880533E+02  0.68794880533E+02  0.00000000000E+00 0.  1.
         25    2    1    2    0    0  0.13481827265E+02  0.35803836527E+01  0.28870360113E+02  0.12913585015E+03  0.12509193134E+03 0.  0.
          5    1    3    3  502    0  0.52307569627E+02  0.32989090952E+02  0.46160609070E+02  0.77282832452E+02  0.41800000000E+01 0.  1.
         -5    1    3    3    0  502 -0.38825742362E+02 -0.29408707299E+02 -0.17290248956E+02  0.51853017694E+02  0.41800000000E+01 0.  1.
        -11    1    1    2    0    0  0.19251139046E+02  0.33925912993E+02  0.24675715835E+02  0.46156959160E+02  0.00000000000E+00 0.  1.
         11    1    1    2    0    0 -0.32732966311E+02 -0.37506296645E+02  0.70288580115E+02  0.86131607823E+02  0.00000000000E+00 0. -1.
</event>
<event>
 7    1  0.2626349E-009  0.1183266E+03  0.7561462E-02  0.1245883E+00
          2   -1    0    0  501    0  0.00000000000E+00  0.00000000000E+00  0.11700463862E+03  0.11700463862E+03  0.00000000000E+00 0. -1.
         -2   -1    0    0    0  501 -0.00000000000E+00 -0.00000000000E+00 -0.15555734333E+03  0.15555734333E+03  0.00000000000E+00 0.  1.
         25    2    1    2    0    0  0.75417983168E+02  0.10164692376E+01  0.44474131393E+01  0.14613599497E+03  0.12508814551E+03 0.  0.
          5    1    3    3  502    0  0.92964680570E+02 -0.15680204959E+02  0.40342670828E+02  0.10263188662E+03  0.41800000000E+01 0.  1.
         -5    1    3    3    0  502 -0.17546697402E+02  0.16696674197E+02 -0.35895257689E+02  0.43504108352E+02  0.41800000000E+01 0.  1.
        -11    1    1    2    0    0 -0.29954777930E+02  0.44323247999E+02 -0.28449289183E+02  0.60590437274E+02  0.00000000000E+00 0.  1.
         11    1    1    2    0    0 -0.45463205238E+02 -0.45339717237E+02 -0.14550828667E+02  0.65835549701E+02  0.00000000000E+00 0. -1.
</event>
<event>
 7    1  0.2626349E-009  0.1038189E+03  0.7561462E-02  0.1272464E+00
          2   -1    0    0  501    0  0.00000000000E+00  0.00000000000E+00  0.12489483355E+03  0.12489483355E+03  0.00000000000E+00 0. -1.
         -2   -1    0    0    0  501 -0.00000000000E+00 -0.00000000000E+00 -0.14373006258E+03  0.14373006258E+03  0.00000000000E+00 0.  1.
         25    2    1    2    0    0  0.17476754520E+02  0.34106941334E+02 -0.76742257358E+02  0.15167612637E+03  0.12509017887E+03 0.  0.
          5    1    3    3  502    0 -0.14272670009E+02 -0.34466338337E+02  0.76598195176E+01  0.38311653874E+02  0.41800000000E+01 0.  1.
         -5    1    3    3    0  502  0.31749424529E+02  0.68573279671E+02 -0.84402076876E+02  0.11336447249E+03  0.41800000000E+01 0.  1.
        -11    1    1    2    0    0 -0.49447124298E+02 -0.37791912361E+02  0.57548355987E+02  0.84764733339E+02  0.00000000000E+00 0.  1.
         11    1    1    2    0    0  0.31970369778E+02  0.36849710271E+01  0.35867234063E+00  0.32184036432E+02  0.00000000000E+00 0. -1.
</event>
<event>
 7    1  0.2919525E-009  0.1024780E+03  0.7561462E-02  0.1275170E+00
          1   -1    0    0  501    0  0.00000000000E+00  0.00000000000E+00  0.65482236064E+03  0.65482236064E+03  0.00000000000E+00 0. -1.
         -1   -1    0    0    0  501 -0.00000000000E+00 -0.00000000000E+00 -0.21481616531E+02  0.21481616531E+02  0.00000000000E+00 0.  1.
         25    2    1    2    0    0 -0.25542259907E+02  0.24617262914E+02  0.44573511069E+03  0.46431044806E+03  0.12508391824E+03 0.  0.
          5    1    3    3  502    0 -0.37568641832E+02 -0.33857699057E+02  0.87828468996E+02  0.10143499889E+03  0.41800000000E+01 0.  1.
         -5    1    3    3    0  502  0.12026381925E+02  0.58474961971E+02  0.35790664170E+03  0.36287544917E+03  0.41800000000E+01 0.  1.
        -11    1    1    2    0    0  0.48771452850E+02 -0.42781716180E+02  0.96881093819E+02  0.11659706768E+03  0.00000000000E+00 0. -1.
         11    1    1    2    0    0 -0.23229192944E+02  0.18164453266E+02  0.90724539599E+02  0.95396461427E+02  0.00000000000E+00 0.  1.
</event>
<event>
 7    1  0.2626349E-009  0.1222341E+03  0.7561462E-02  0.1239456E+00
          1   -1    0    0  501    0  0.00000000000E+00  0.00000000000E+00  0.58215865257E+02  0.58215865257E+02  0.00000000000E+00 0. -1.
         -1   -1    0    0    0  501 -0.00000000000E+00 -0.00000000000E+00 -0.34001803053E+03  0.34001803053E+03  0.00000000000E+00 0.  1.
         25    2    1    2    0    0  0.59658860894E+02  0.55290553972E+02 -0.10380799958E+03  0.18175904798E+03  0.12507607967E+03 0.  0.
          5    1    3    3  502    0 -0.15537733179E+02  0.62956137822E+02 -0.78574804933E+02  0.10196258535E+03  0.41800000000E+01 0.  1.
         -5    1    3    3    0  502  0.75196594072E+02 -0.76655838498E+01 -0.25233194645E+02  0.79796462628E+02  0.41800000000E+01 0.  1.
        -11    1    1    2    0    0 -0.47493065579E+02 -0.70067123109E+02 -0.17825599111E+03  0.19733269213E+03  0.00000000000E+00 0.  1.
         11    1    1    2    0    0 -0.12165795315E+02  0.14776569137E+02  0.26182541736E+00  0.19142155669E+02  0.00000000000E+00 0. -1.
</event>
<event>
 7    1  0.2626349E-009  0.9963930E+02  0.7561462E-02  0.1281056E+00
          3   -1    0    0  501    0  0.00000000000E+00  0.00000000000E+00  0.12791454246E+03  0.12791454246E+03  0.00000000000E+00 0. -1.
         -3   -1    0    0    0  501 -0.00000000000E+00 -0.00000000000E+00 -0.14770797008E+03  0.14770797008E+03  0.00000000000E+00 0.  1.
         25    2    1    2    0    0 -0.45959650685E+02  0.58637953095E+02  0.29827027889E+02  0.14862131374E+03  0.12509174341E+03 0.  0.
          5    1    3    3  502    0  0.19756049770E+02  0.35027409746E+02 -0.34829023767E+02  0.53364353576E+02  0.41800000000E+01 0. -1.
         -5    1    3    3    0  502 -0.65715700455E+02  0.23610543348E+02  0.64656051656E+02  0.95256960161E+02  0.41800000000E+01 0. -1.
        -11    1    1    2    0    0  0.17928345941E+02  0.56194713197E+01 -0.53585347773E+02  0.56783743643E+02  0.00000000000E+00 0.  1.
         11    1    1    2    0    0  0.28031304744E+02 -0.64257424414E+02  0.39648922632E+01  0.70217455157E+02  0.00000000000E+00 0. -1.
</event>
<event>
 7    1  0.2626349E-009  0.2941282E+03  0.7561462E-02  0.1088213E+00
          2   -1    0    0  501    0  0.00000000000E+00  0.00000000000E+00  0.78370845847E+03  0.78370845847E+03  0.00000000000E+00 0.  1.
         -2   -1    0    0    0  501 -0.00000000000E+00 -0.00000000000E+00 -0.13844743825E+03  0.13844743825E+03  0.00000000000E+00 0. -1.
         25    2    1    2    0    0  0.24681526199E+03 -0.15968048993E+03  0.46927655023E+03  0.56770040949E+03  0.12509053490E+03 0.  0.
          5    1    3    3  502    0  0.18808692543E+03 -0.12507985802E+03  0.24502600894E+03  0.33328198249E+03  0.41800000000E+01 0. -1.
         -5    1    3    3    0  502  0.58728336562E+02 -0.34600631907E+02  0.22425054129E+03  0.23441842699E+03  0.41800000000E+01 0. -1.
        -11    1    1    2    0    0 -0.19914228914E+03  0.13205244675E+03  0.18007594784E+03  0.29920368815E+03  0.00000000000E+00 0.  1.
         11    1    1    2    0    0 -0.47672972855E+02  0.27628043182E+02 -0.40914778474E+01  0.55251799083E+02  0.00000000000E+00 0. -1.
</event>
<event>
 7    1  0.2626349E-009  0.1193650E+03  0.7561462E-02  0.1244148E+00
         -2   -1    0    0    0  501 -0.00000000000E+00  0.00000000000E+00  0.22472360737E+02  0.22472360737E+02  0.00000000000E+00 0.  1.
          2   -1    0    0  501    0  0.00000000000E+00 -0.00000000000E+00 -0.85896893788E+03  0.85896893788E+03  0.00000000000E+00 0. -1.
         25    2    1    2    0    0 -0.51411965205E+02 -0.64570138837E+02 -0.53208266410E+03  0.55278623086E+03  0.12509261606E+03 0.  0.
          5    1    3    3  502    0 -0.22402321153E+02  0.36010343675E+02 -0.11189948269E+03  0.11973961530E+03  0.41800000000E+01 0.  1.
         -5    1    3    3    0  502 -0.29009644052E+02 -0.10058048251E+03 -0.42018318141E+03  0.43304661556E+03  0.41800000000E+01 0.  1.
        -11    1    1    2    0    0 -0.49149620620E+01  0.16769317257E+02 -0.22828821180E+01  0.17623234779E+02  0.00000000000E+00 0.  1.
         11    1    1    2    0    0  0.56326927267E+02  0.47800821580E+02 -0.30213103092E+03  0.31103183298E+03  0.00000000000E+00 0. -1.
</event>
<event>
 7    1  0.2626349E-009  0.8654647E+02  0.7561462E-02  0.1311437E+00
          1   -1    0    0  501    0  0.00000000000E+00  0.00000000000E+00  0.33337713942E+03  0.33337713942E+03  0.00000000000E+00 0. -1.
         -1   -1    0    0    0  501 -0.00000000000E+00 -0.00000000000E+00 -0.32816973483E+02  0.32816973483E+02  0.00000000000E+00 0.  1.
         25    2    1    2    0    0 -0.41925095739E+02 -0.61134061849E+01  0.19819110169E+03  0.23816450753E+03  0.12509009742E+03 0.  0.
          5    1    3    3  502    0  0.90228717703E+01  0.42028945999E+02  0.21944888552E+02  0.48444762878E+02  0.41800000000E+01 0.  1.
         -5    1    3    3    0  502 -0.50947967509E+02 -0.48142352184E+02  0.17624621313E+03  0.18971974465E+03  0.41800000000E+01 0.  1.
        -11    1    1    2    0    0  0.43997117250E+02 -0.85959846877E+01  0.29506302461E+02  0.53668046024E+02  0.00000000000E+00 0.  1.
         11    1    1    2    0    0 -0.20720215117E+01  0.14709390873E+02  0.72862761794E+02  0.74361559352E+02  0.00000000000E+00 0. -1.
</event>
<event>
 7    1  0.2626349E-009  0.2271149E+03  0.7561462E-02  0.1128687E+00
          1   -1    0    0  501    0  0.00000000000E+00  0.00000000000E+00  0.90641430538E+03  0.90641430538E+03  0.00000000000E+00 0. -1.
         -1   -1    0    0    0  501 -0.00000000000E+00 -0.00000000000E+00 -0.75078102391E+02  0.75078102391E+02  0.00000000000E+00 0.  1.
         25    2    1    2    0    0 -0.20763981164E+03 -0.61243562069E+02  0.60921473237E+03  0.65852527479E+03  0.12509149505E+03 0.  0.
          5    1    3    3  502    0 -0.16327698965E+03 -0.84743869141E+02  0.55411297208E+03  0.58386604366E+03  0.41800000000E+01 0.  1.
         -5    1    3    3    0  502 -0.44362821986E+02  0.23500307072E+02  0.55101760285E+02  0.74659231134E+02  0.41800000000E+01 0.  1.
        -11    1    1    2    0    0  0.93281943787E+02  0.77716440472E+01  0.15213034407E+03  0.17862127834E+03  0.00000000000E+00 0. -1.
         11    1    1    2    0    0  0.11435786785E+03  0.53471918022E+02  0.69991126552E+02  0.14434585464E+03  0.00000000000E+00 0.  1.
</event>
<event>
 7    1  0.2626349E-009  0.1427207E+03  0.7561462E-02  0.1209714E+00
          1   -1    0    0  501    0  0.00000000000E+00  0.00000000000E+00  0.22385104508E+03  0.22385104508E+03  0.00000000000E+00 0. -1.
         -1   -1    0    0    0  501 -0.00000000000E+00 -0.00000000000E+00 -0.15038980470E+03  0.15038980470E+03  0.00000000000E+00 0.  1.
         25    2    1    2    0    0  0.39810926044E+02 -0.99363590135E+02  0.14271672500E+03  0.21788410147E+03  0.12508950876E+03 0.  0.
          5    1    3    3  502    0  0.63093587804E+02 -0.91569674990E+01  0.91172618386E+02  0.11133090146E+03  0.41800000000E+01 0.  1.
         -5    1    3    3    0  502 -0.23282661760E+02 -0.90206622636E+02  0.51544106616E+02  0.10655320001E+03  0.41800000000E+01 0.  1.
        -11    1    1    2    0    0 -0.59975774615E+02  0.82557472644E+02 -0.78267674694E+02  0.12860271666E+03  0.00000000000E+00 0.  1.
         11    1    1    2    0    0  0.20164848571E+02  0.16806117492E+02  0.90121900656E+01  0.27754031649E+02  0.00000000000E+00 0. -1.
</event>
<event>
 7    1  0.2626349E-009  0.1154829E+03  0.7561462E-02  0.1250741E+00
         -1   -1    0    0    0  501 -0.00000000000E+00  0.00000000000E+00  0.17232385601E+03  0.17232385601E+03  0.00000000000E+00 0.  1.
          1   -1    0    0  501    0  0.00000000000E+00 -0.00000000000E+00 -0.77519604065E+02  0.77519604065E+02  0.00000000000E+00 0. -1.
         25    2    1    2    0    0 -0.58430809883E+01  0.41635483252E+02  0.50078256233E+02  0.14114449279E+03  0.12508509518E+03 0.  0.
          5    1    3    3  502    0  0.30267847004E+02 -0.35374974773E+02  0.19766709561E+02  0.50751616815E+02  0.41800000000E+01 0. -1.
         -5    1    3    3    0  502 -0.36110927993E+02  0.77010458024E+02  0.30311546672E+02  0.90392875976E+02  0.41800000000E+01 0. -1.
        -11    1    1    2    0    0 -0.22959401216E+02  0.20370550168E+02  0.14510651957E+02  0.33950735464E+02  0.00000000000E+00 0. -1.
         11    1    1    2    0    0  0.28802482204E+02 -0.62006033419E+02  0.30215343751E+02  0.74748231815E+02  0.00000000000E+00 0.  1.
</event>
<event>
 7    1  0.2626349E-009  0.9919190E+02  0.7561462E-02  0.1282005E+00
          1   -1    0    0  501    0  0.00000000000E+00  0.00000000000E+00  0.16153003765E+03  0.16153003765E+03  0.00000000000E+00 0. -1.
         -1   -1    0    0    0  501 -0.00000000000E+00 -0.00000000000E+00 -0.13050250181E+03  0.13050250181E+03  0.00000000000E+00 0.  1.
         25    2    1    2    0    0 -0.39132174967E+01  0.89597575604E+02  0.45143303347E+02  0.16039959226E+03  0.12508825898E+03 0.  0.
          5    1    3    3  502    0  0.55533047272E+01  0.74096945304E+02 -0.32019412713E+02  0.81017971384E+02  0.41800000000E+01 0.  1.
         -5    1    3    3    0  502 -0.94665222239E+01  0.15500630301E+02  0.77162716060E+02  0.79381620874E+02  0.41800000000E+01 0.  1.
        -11    1    1    2    0    0 -0.25579477315E+02 -0.47056939269E+02  0.31927838016E+02  0.62354246314E+02  0.00000000000E+00 0. -1.
         11    1    1    2    0    0  0.29492694812E+02 -0.42540636336E+02 -0.46043605523E+02  0.69278700888E+02  0.00000000000E+00 0.  1.
</event>
<event>
 7    1  0.2626349E-009  0.1517150E+03  0.7561462E-02  0.1198381E+00
         -2   -1    0    0    0  501 -0.00000000000E+00  0.00000000000E+00  0.31287697102E+03  0.31287697102E+03  0.00000000000E+00 0.  1.
          2   -1    0    0  501    0  0.00000000000E+00 -0.00000000000E+00 -0.83111090591E+02  0.83111090591E+02  0.00000000000E+00 0. -1.
         25    2    1    2    0    0  0.59975927017E+02  0.96708208816E+02  0.79000821539E+02  0.18665047167E+03  0.12509068430E+03 0.  0.
          5    1    3    3  502    0  0.92599012743E+02  0.55660583026E+02  0.79243423566E+02  0.13405099866E+03  0.41800000000E+01 0. -1.
         -5    1    3    3    0  502 -0.32623085727E+02  0.41047625790E+02 -0.24260202678E+00  0.52599473011E+02  0.41800000000E+01 0. -1.
        -11    1    1    2    0    0  0.20580624447E+02 -0.37355051458E+02  0.63937127907E+02  0.76856478563E+02  0.00000000000E+00 0.  1.
         11    1    1    2    0    0 -0.80556551464E+02 -0.59353157358E+02  0.86827930982E+02  0.13248111137E+03  0.00000000000E+00 0. -1.
</event>
<event>
 7    1  0.2626349E-009  0.1969955E+03  0.7561462E-02  0.1152299E+00
         -2   -1    0    0    0  501 -0.00000000000E+00  0.00000000000E+00  0.21205285464E+02  0.21205285464E+02  0.00000000000E+00 0.  1.
          2   -1    0    0  501    0  0.00000000000E+00 -0.00000000000E+00 -0.22233688950E+04  0.22233688950E+04  0.00000000000E+00 0. -1.
         25    2    1    2    0    0 -0.15461065920E+03 -0.10431074558E+03 -0.12898961450E+04  0.13092990884E+04  0.12508737159E+03 0.  0.
          5    1    3    3  502    0 -0.16205249762E+02  0.29352905078E+01 -0.49696357883E+03  0.49725395638E+03  0.41800000000E+01 0.  1.
         -5    1    3    3    0  502 -0.13840540943E+03 -0.10724603609E+03 -0.79293256616E+03  0.81204513205E+03  0.41800000000E+01 0.  1.
        -11    1    1    2    0    0  0.62143576953E+02  0.88358630714E+02 -0.39190010307E+03  0.40651539032E+03  0.00000000000E+00 0. -1.
         11    1    1    2    0    0  0.92467082244E+02  0.15952114869E+02 -0.52036736149E+03  0.52875970173E+03  0.00000000000E+00 0.  1.
</event>
<event>
 7    1  0.2862992E-009  0.7991992E+02  0.7561462E-02  0.1329279E+00
         -1   -1    0    0    0  501 -0.00000000000E+00  0.00000000000E+00  0.25160297616E+03  0.25160297616E+03  0.00000000000E+00 0.  1.
          1   -1    0    0  501    0  0.00000000000E+00 -0.00000000000E+00 -0.61292611426E+02  0.61292611426E+02  0.00000000000E+00 0. -1.
         25    2    1    2    0    0 -0.40152471385E+02 -0.20012269926E+02  0.15628703108E+03  0.20514676560E+03  0.12508735926E+03 0.  0.
          5    1    3    3  502    0 -0.12387247397E+02  0.10035119067E+02  0.16269359308E+03  0.16352622157E+03  0.41800000000E+01 0. -1.
         -5    1    3    3    0  502 -0.27765223987E+02 -0.30047388993E+02 -0.64065620031E+01  0.41620544026E+02  0.41800000000E+01 0. -1.
        -11    1    1    2    0    0  0.68560214916E+02  0.25780291510E+02  0.24653898658E+02  0.77284805872E+02  0.00000000000E+00 0. -1.
         11    1    1    2    0    0 -0.28407743532E+02 -0.57680215843E+01  0.93694349995E+01  0.30464016114E+02  0.00000000000E+00 0.  1.
</event>
<event>
 7    1  0.2626349E-009  0.1581142E+03  0.7561462E-02  0.1190842E+00
         -2   -1    0    0    0  501 -0.00000000000E+00  0.00000000000E+00  0.80759885707E+02  0.80759885707E+02  0.00000000000E+00 0.  1.
          2   -1    0    0  501    0  0.00000000000E+00 -0.00000000000E+00 -0.38331399036E+03  0.38331399036E+03  0.00000000000E+00 0. -1.
         25    2    1    2    0    0  0.13633276344E+03 -0.22650749733E+02 -0.14732855341E+03  0.23759880900E+03  0.12509121687E+03 0.  0.
          5    1    3    3  502    0  0.12708666158E+03 -0.49484599188E+02 -0.15635980430E+03  0.20752254313E+03  0.41800000000E+01 0.  1.
         -5    1    3    3    0  502  0.92461018592E+01  0.26833849455E+02  0.90312508836E+01  0.30076265870E+02  0.41800000000E+01 0.  1.
        -11    1    1    2    0    0 -0.11004782789E+02  0.23297143943E+02  0.14892830549E+01  0.25808528128E+02  0.00000000000E+00 0.  1.
         11    1    1    2    0    0 -0.12532798065E+03 -0.64639420953E+00 -0.15671483430E+03  0.20066653894E+03  0.00000000000E+00 0. -1.
</event>
<event>
 7    1  0.2626349E-009  0.1354767E+03  0.7561462E-02  0.1219548E+00
         -2   -1    0    0    0  501 -0.00000000000E+00  0.00000000000E+00  0.82351842956E+02  0.82351842956E+02  0.00000000000E+00 0. -1.
          2   -1    0    0  501    0  0.00000000000E+00 -0.00000000000E+00 -0.27865708792E+03  0.27865708792E+03  0.00000000000E+00 0.  1.
         25    2    1    2    0    0  0.84712388494E+02  0.49569714217E+02 -0.15816600141E+03  0.22427451626E+03  0.12509687970E+03 0.  0.
          5    1    3    3  502    0  0.51642052170E+02 -0.26020671856E+02 -0.11999739978E+03  0.13326974626E+03  0.41800000000E+01 0. -1.
         -5    1    3    3    0  502  0.33070336324E+02  0.75590386073E+02 -0.38168601631E+02  0.91004769994E+02  0.41800000000E+01 0. -1.
        -11    1    1    2    0    0 -0.64825905634E+02 -0.74314918574E+02 -0.35760615331E+02  0.10489960330E+03  0.00000000000E+00 0. -1.
         11    1    1    2    0    0 -0.19886482860E+02  0.24745204357E+02 -0.23786282237E+01  0.31834811315E+02  0.00000000000E+00 0.  1.
</event>
<event>
 7    1  0.2626349E-009  0.1094991E+03  0.7561462E-02  0.1261500E+00
         -1   -1    0    0    0  501 -0.00000000000E+00  0.00000000000E+00  0.46715761643E+02  0.46715761643E+02  0.00000000000E+00 0.  1.
          1   -1    0    0  501    0  0.00000000000E+00 -0.00000000000E+00 -0.31772159011E+03  0.31772159011E+03  0.00000000000E+00 0. -1.
         25    2    1    2    0    0  0.47228068879E+01  0.32540063653E+02 -0.85050187268E+02  0.15479875683E+03  0.12509180674E+03 0.  0.
          5    1    3    3  502    0  0.42709470234E+02  0.63471790913E+02 -0.68921800225E+02  0.10305558711E+03  0.41800000000E+01 0. -1.
         -5    1    3    3    0  502 -0.37986663346E+02 -0.30931727261E+02 -0.16128387043E+02  0.51743169714E+02  0.41800000000E+01 0. -1.
        -11    1    1    2    0    0  0.17018426056E+02 -0.57586808766E+02 -0.90723494581E+02  0.10879623081E+03  0.00000000000E+00 0.  1.
         11    1    1    2    0    0 -0.21741232944E+02  0.25046745113E+02 -0.95232146620E+02  0.10084236412E+03  0.00000000000E+00 0. -1.
</event>
<event>
 7    1  0.2626349E-009  0.1290048E+03  0.7561462E-02  0.1228940E+00
          2   -1    0    0  501    0  0.00000000000E+00  0.00000000000E+00  0.51256495434E+03  0.51256495434E+03  0.00000000000E+00 0.  1.
         -2   -1    0    0    0  501 -0.00000000000E+00 -0.00000000000E+00 -0.43379064944E+02  0.43379064944E+02  0.00000000000E+00 0. -1.
         25    2    1    2    0    0  0.47547931798E+02 -0.89552178261E+02  0.23886801311E+03  0.28807424129E+03  0.12509373428E+03 0.  0.
          5    1    3    3  502    0  0.38757449067E+01  0.10791180858E+02  0.14000645821E+03  0.14053736771E+03  0.41800000000E+01 0. -1.
         -5    1    3    3    0  502  0.43672186892E+02 -0.10034335912E+03  0.98861554900E+02  0.14753687358E+03  0.41800000000E+01 0. -1.
        -11    1    1    2    0    0 -0.39128571191E+02 -0.66766126644E+01  0.77681644367E+02  0.87235658487E+02  0.00000000000E+00 0.  1.
         11    1    1    2    0    0 -0.84193606073E+01  0.96228790925E+02  0.15263623192E+03  0.18063411951E+03  0.00000000000E+00 0. -1.
</event>
<event>
 7    1  0.2626349E-009  0.1013699E+03  0.7561462E-02  0.1277441E+00
          1   -1    0    0  501    0  0.00000000000E+00  0.00000000000E+00  0.23777816327E+03  0.23777816327E+03  0.00000000000E+00 0. -1.
         -1   -1    0    0    0  501 -0.00000000000E+00 -0.00000000000E+00 -0.79709210003E+02  0.79709210003E+02  0.00000000000E+00 0.  1.
         25    2    1    2    0    0  0.53724383998E+02  0.41424344536E+02  0.14429140241E+03  0.20266504381E+03  0.12510325901E+03 0.  0.
          5    1    3    3  502    0  0.61369580460E+02 -0.13251043700E+01  0.14658784160E+03  0.15897625298E+03  0.41800000000E+01 0.  1.
         -5    1    3    3    0  502 -0.76451964625E+01  0.42749448906E+02 -0.22964391912E+01  0.43688790824E+02  0.41800000000E+01 0.  1.
        -11    1    1    2    0    0 -0.27557854447E+02 -0.59642504157E+02  0.36976334508E+02  0.75391730034E+02  0.00000000000E+00 0. -1.
         11    1    1    2    0    0 -0.26166529551E+02  0.18218159620E+02 -0.23198783650E+02  0.39430599431E+02  0.00000000000E+00 0.  1.
</event>
<event>
 7    1  0.2626349E-009  0.1170009E+03  0.7561462E-02  0.1248128E+00
         -1   -1    0    0    0  501 -0.00000000000E+00  0.00000000000E+00  0.18961507943E+03  0.18961507943E+03  0.00000000000E+00 0.  1.
          1   -1    0    0  501    0  0.00000000000E+00 -0.00000000000E+00 -0.12805315371E+03  0.12805315371E+03  0.00000000000E+00 0. -1.
         25    2    1    2    0    0 -0.35341021879E+01 -0.79777684370E+02  0.12259614219E+03  0.19249333306E+03  0.12508757090E+03 0.  0.
          5    1    3    3  502    0 -0.28039748739E+02  0.26121455315E+02  0.22302332838E+02  0.44535652989E+02  0.41800000000E+01 0. -1.
         -5    1    3    3    0  502  0.24505646551E+02 -0.10589913969E+03  0.10029380935E+03  0.14795768007E+03  0.41800000000E+01 0. -1.
        -11    1    1    2    0    0 -0.10127863734E+02  0.62769326604E+01 -0.47787653567E+02  0.49250719192E+02  0.00000000000E+00 0. -1.
         11    1    1    2    0    0  0.13661965922E+02  0.73500751709E+02 -0.13246562891E+02  0.75924180885E+02  0.00000000000E+00 0.  1.
</event>
<event>
 7    1  0.2626349E-009  0.2765893E+03  0.7561462E-02  0.1097567E+00
          1   -1    0    0  501    0  0.00000000000E+00  0.00000000000E+00  0.49855476889E+02  0.49855476889E+02  0.00000000000E+00 0. -1.
         -1   -1    0    0    0  501 -0.00000000000E+00 -0.00000000000E+00 -0.18323264368E+04  0.18323264368E+04  0.00000000000E+00 0.  1.
         25    2    1    2    0    0  0.26110020699E+03  0.25980363711E+02 -0.12368175150E+04  0.12705169927E+04  0.12509023137E+03 0.  0.
          5    1    3    3  502    0  0.22799716463E+03 -0.25205058059E+02 -0.99335212885E+03  0.10195018030E+04  0.41800000000E+01 0. -1.
         -5    1    3    3    0  502  0.33103042359E+02  0.51185421770E+02 -0.24346538610E+03  0.25101518967E+03  0.41800000000E+01 0. -1.
        -11    1    1    2    0    0 -0.21947439501E+02  0.10879666401E+01 -0.94451086491E+01  0.23918274383E+02  0.00000000000E+00 0. -1.
         11    1    1    2    0    0 -0.23915276749E+03 -0.27068330351E+02 -0.53620833636E+03  0.58774664668E+03  0.00000000000E+00 0.  1.
</event>
<event>
 7    1  0.2626349E-009  0.1222959E+03  0.7561462E-02  0.1239357E+00
          2   -1    0    0  501    0  0.00000000000E+00  0.00000000000E+00  0.10828574008E+04  0.10828574008E+04  0.00000000000E+00 0.  1.
         -2   -1    0    0    0  501 -0.00000000000E+00 -0.00000000000E+00 -0.14947765833E+02  0.14947765833E+02  0.00000000000E+00 0. -1.
         25    2    1    2    0    0 -0.65788669729E+02  0.29682714250E+01  0.55479423476E+03  0.57252093210E+03  0.12508643041E+03 0.  0.
          5    1    3    3  502    0 -0.78300258602E+02 -0.39460135654E+02  0.45339167790E+03  0.46181112892E+03  0.41800000000E+01 0.  1.
         -5    1    3    3    0  502  0.12511588873E+02  0.42428407079E+02  0.10140255686E+03  0.11070980318E+03  0.41800000000E+01 0.  1.
        -11    1    1    2    0    0  0.87983486721E+02  0.65550482447E+01  0.40786321584E+03  0.41729661564E+03  0.00000000000E+00 0.  1.
         11    1    1    2    0    0 -0.22194816992E+02 -0.95233196697E+01  0.10525218434E+03  0.10798761886E+03  0.00000000000E+00 0. -1.
</event>
<event>
 7    1  0.2626349E-009  0.1122600E+03  0.7561462E-02  0.1256441E+00
          2   -1    0    0  501    0  0.00000000000E+00  0.00000000000E+00  0.25826554772E+03  0.25826554772E+03  0.00000000000E+00 0. -1.
         -2   -1    0    0    0  501 -0.00000000000E+00 -0.00000000000E+00 -0.54364451222E+02  0.54364451222E+02  0.00000000000E+00 0.  1.
         25    2    1    2    0    0 -0.14727935704E+02  0.11194222439E+02  0.83063298751E+02  0.15129199946E+03  0.12509010671E+03 0.  0.
          5    1    3    3  502    0 -0.32111304140E+02  0.59185744998E+02  0.72435565502E+02  0.98987230561E+02  0.41800000000E+01 0.  1.
         -5    1    3    3    0  502  0.17383368436E+02 -0.47991522559E+02  0.10627733249E+02  0.52304768901E+02  0.41800000000E+01 0.  1.
        -11    1    1    2    0    0 -0.18784105914E+02 -0.50681274746E+02  0.50345503373E+02  0.73865444930E+02  0.00000000000E+00 0.  1.
         11    1    1    2    0    0  0.33512041618E+02  0.39487052307E+02  0.70492294373E+02  0.87472554548E+02  0.00000000000E+00 0. -1.
</event>
<event>
 7    1  0.2626349E-009  0.1303082E+03  0.7561462E-02  0.1226999E+00
         -1   -1    0    0    0  501 -0.00000000000E+00  0.00000000000E+00  0.23944967579E+03  0.23944967579E+03  0.00000000000E+00 0.  1.
          1   -1    0    0  501    0  0.00000000000E+00 -0.00000000000E+00 -0.89836635216E+02  0.89836635216E+02  0.00000000000E+00 0. -1.
         25    2    1    2    0    0 -0.81550150441E+02  0.38585150352E+00  0.18786158623E+02  0.15050046547E+03  0.12508754707E+03 0.  0.
          5    1    3    3  502    0 -0.50233953649E+02  0.57527947072E+02 -0.13483053477E+02  0.77667109671E+02  0.41800000000E+01 0.  1.
         -5    1    3    3    0  502 -0.31316196793E+02 -0.57142095569E+02  0.32269212099E+02  0.72833355800E+02  0.41800000000E+01 0.  1.
        -11    1    1    2    0    0  0.27227552244E+02  0.41916274345E+02  0.35991669108E+02  0.61593131933E+02  0.00000000000E+00 0.  1.
         11    1    1    2    0    0  0.54322598198E+02 -0.42302125849E+02  0.94835212839E+02  0.11719271360E+03  0.00000000000E+00 0. -1.
</event>
<event>
 7    1  0.2626349E-009  0.1291404E+03  0.7561462E-02  0.1228737E+00
          2   -1    0    0  501    0  0.00000000000E+00  0.00000000000E+00  0.93694709759E+02  0.93694709759E+02  0.00000000000E+00 0. -1.
         -2   -1    0    0    0  501 -0.00000000000E+00 -0.00000000000E+00 -0.23007507583E+03  0.23007507583E+03  0.00000000000E+00 0.  1.
         25    2    1    2    0    0 -0.83179868850E+02 -0.51965629355E+02 -0.59759568534E+02  0.16981728450E+03  0.12508951542E+03 0.  0.
          5    1    3    3  502    0 -0.20971567659E+02 -0.59657161681E+02 -0.81589997157E+02  0.10331110117E+03  0.41800000000E+01 0. -1.
         -5    1    3    3    0  502 -0.62208301191E+02  0.76915323254E+01  0.21830428623E+02  0.66506183325E+02  0.41800000000E+01 0. -1.
        -11    1    1    2    0    0  0.10065646839E+02 -0.24380440933E+02 -0.24882847021E+02  0.36261263384E+02  0.00000000000E+00 0. -1.
         11    1    1    2    0    0  0.73114222011E+02  0.76346070288E+02 -0.51737950513E+02  0.11769123770E+03  0.00000000000E+00 0.  1.
</event>
<event>
 7    1  0.2626349E-009  0.2127844E+03  0.7561462E-02  0.1139380E+00
         -2   -1    0    0    0  501 -0.00000000000E+00  0.00000000000E+00  0.81705843370E+02  0.81705843370E+02  0.00000000000E+00 0. -1.
          2   -1    0    0  501    0  0.00000000000E+00 -0.00000000000E+00 -0.58664690398E+03  0.58664690398E+03  0.00000000000E+00 0.  1.
         25    2    1    2    0    0  0.18986810569E+03 -0.47284309434E+01 -0.27471601328E+03  0.35663531419E+03  0.12509038236E+03 0.  0.
          5    1    3    3  502    0 -0.12380655286E+02 -0.73150838333E+01  0.59244656081E+00  0.14987143481E+02  0.41800000000E+01 0.  1.
         -5    1    3    3    0  502  0.20224876097E+03  0.25866528899E+01 -0.27530845984E+03  0.34164817071E+03  0.41800000000E+01 0.  1.
        -11    1    1    2    0    0 -0.13208324799E+03  0.43079998120E+02 -0.17245027117E+03  0.22145195114E+03  0.00000000000E+00 0. -1.
         11    1    1    2    0    0 -0.57784857695E+02 -0.38351567176E+02 -0.57774776165E+02  0.90265482022E+02  0.00000000000E+00 0.  1.
</event>
<event>
 7    1  0.2626349E-009  0.1108426E+03  0.7561462E-02  0.1259018E+00
          2   -1    0    0  501    0  0.00000000000E+00  0.00000000000E+00  0.94955165439E+03  0.94955165439E+03  0.00000000000E+00 0. -1.
         -2   -1    0    0    0  501 -0.00000000000E+00 -0.00000000000E+00 -0.20531269784E+02  0.20531269784E+02  0.00000000000E+00 0.  1.
         25    2    1    2    0    0 -0.76562729292E+02 -0.39051866534E+02  0.45562714997E+03  0.48023999942E+03  0.12508979757E+03 0.  0.
          5    1    3    3  502    0  0.56250545682E+01 -0.57631034959E+00 -0.63142789831E+01  0.94507085232E+01  0.41800000000E+01 0. -1.
         -5    1    3    3    0  502 -0.82187783860E+02 -0.38475556185E+02  0.46194142895E+03  0.47078929089E+03  0.41800000000E+01 0. -1.
        -11    1    1    2    0    0  0.86016144458E+02  0.24977434665E+01  0.36684451476E+03  0.37680222112E+03  0.00000000000E+00 0. -1.
         11    1    1    2    0    0 -0.94534151667E+01  0.36554123068E+02  0.10654871988E+03  0.11304070364E+03  0.00000000000E+00 0.  1.
</event>
<event>
 7    1  0.2626349E-009  0.1375359E+03  0.7561462E-02  0.1216684E+00
          1   -1    0    0  501    0  0.00000000000E+00  0.00000000000E+00  0.33516189158E+02  0.33516189158E+02  0.00000000000E+00 0. -1.
         -1   -1    0    0    0  501 -0.00000000000E+00 -0.00000000000E+00 -0.59635451718E+03  0.59635451718E+03  0.00000000000E+00 0.  1.
         25    2    1    2    0    0  0.21962212004E+01  0.86848067906E+02 -0.35365069682E+03  0.38504972227E+03  0.12508822075E+03 0.  0.
          5    1    3    3  502    0  0.17798417064E+02 -0.28924762291E+02 -0.10170958615E+03  0.10731140591E+03  0.41800000000E+01 0.  1.
         -5    1    3    3    0  502 -0.15602195863E+02  0.11577283020E+03 -0.25194111067E+03  0.27773831636E+03  0.41800000000E+01 0.  1.
        -11    1    1    2    0    0  0.79875513890E+01 -0.10384131360E+03 -0.15165527272E+03  0.18397320764E+03  0.00000000000E+00 0.  1.
         11    1    1    2    0    0 -0.10183772589E+02  0.16993245694E+02 -0.57532358487E+02  0.60847776430E+02  0.00000000000E+00 0. -1.
</event>
<event>
 7    1  0.2626349E-009  0.1294468E+03  0.7561462E-02  0.1228279E+00
         -3   -1    0    0    0  501 -0.00000000000E+00  0.00000000000E+00  0.12855178079E+03  0.12855178079E+03  0.00000000000E+00 0.  1.
          3   -1    0    0  501    0  0.00000000000E+00 -0.00000000000E+00 -0.19158448462E+03  0.19158448462E+03  0.00000000000E+00 0. -1.
         25    2    1    2    0    0  0.71107475369E+00 -0.96403338496E+02  0.27558399106E+02  0.16031856482E+03  0.12509383503E+03 0.  0.
          5    1    3    3  502    0  0.31036927932E+02  0.17702108188E+02  0.21744404756E+02  0.42035069501E+02  0.41800000000E+01 0. -1.
         -5    1    3    3    0  502 -0.30325853178E+02 -0.11410544668E+03  0.58139943491E+01  0.11828349532E+03  0.41800000000E+01 0. -1.
        -11    1    1    2    0    0 -0.20834739712E+02  0.52516106024E+02  0.74825746507E+00  0.56502988062E+02  0.00000000000E+00 0.  1.
         11    1    1    2    0    0  0.20123664958E+02  0.43887232472E+02 -0.91339360405E+02  0.10331471253E+03  0.00000000000E+00 0. -1.
</event>
<event>
 7    1  0.2626349E-009  0.9306459E+02  0.7561462E-02  0.1295596E+00
          1   -1    0    0  501    0  0.00000000000E+00  0.00000000000E+00  0.35408808335E+03  0.35408808335E+03  0.00000000000E+00 0. -1.
         -1   -1    0    0    0  501 -0.00000000000E+00 -0.00000000000E+00 -0.59546431333E+02  0.59546431333E+02  0.00000000000E+00 0.  1.
         25    2    1    2    0    0 -0.10727317342E+02  0.44569419510E+02  0.28136867331E+03  0.31131525445E+03  0.12508936341E+03 0.  0.
          5    1    3    3  502    0  0.44080049796E+01 -0.27919066469E+02  0.19665864637E+03  0.19872342683E+03  0.41800000000E+01 0.  1.
         -5    1    3    3    0  502 -0.15135322321E+02  0.72488485980E+02  0.84710026947E+02  0.11259182762E+03  0.41800000000E+01 0.  1.
        -11    1    1    2    0    0 -0.23825672225E+02  0.36108453246E+01 -0.22630302691E+02  0.33058001464E+02  0.00000000000E+00 0.  1.
         11    1    1    2    0    0  0.34552989566E+02 -0.48180264835E+02  0.35803281392E+02  0.69261258767E+02  0.00000000000E+00 0. -1.
</event>
<event>
 7    1  0.2626349E-009  0.1682578E+03  0.7561462E-02  0.1179677E+00
          2   -1    0    0  501    0  0.00000000000E+00  0.00000000000E+00  0.79069730972E+02  0.79069730972E+02  0.00000000000E+00 0. -1.
         -2   -1    0    0    0  501 -0.00000000000E+00 -0.00000000000E+00 -0.41835867480E+03  0.41835867480E+03  0.00000000000E+00 0.  1.
         25    2    1    2    0    0  0.33403879482E+02 -0.14021617703E+03 -0.13346512474E+03  0.23288760273E+03  0.12508917027E+03 0.  0.
          5    1    3    3  502    0  0.75251061697E+02 -0.68222450156E+02 -0.44538632889E+02  0.11098732906E+03  0.41800000000E+01 0.  1.
         -5    1    3    3    0  502 -0.41847182215E+02 -0.71993726878E+02 -0.88926491851E+02  0.12190027368E+03  0.41800000000E+01 0.  1.
        -11    1    1    2    0    0  0.11143306812E+02  0.44981308626E+02 -0.12060885010E+03  0.12920520940E+03  0.00000000000E+00 0.  1.
         11    1    1    2    0    0 -0.44547186294E+02  0.95234868408E+02 -0.85214968990E+02  0.13533559365E+03  0.00000000000E+00 0. -1.
</event>
<event>
 7    1  0.2626349E-009  0.9098764E+02  0.7561462E-02  0.1300477E+00
          2   -1    0    0  501    0  0.00000000000E+00  0.00000000000E+00  0.11522285998E+03  0.11522285998E+03  0.00000000000E+00 0.  1.
         -2   -1    0    0    0  501 -0.00000000000E+00 -0.00000000000E+00 -0.13102959193E+03  0.13102959193E+03  0.00000000000E+00 0. -1.
         25    2    1    2    0    0 -0.17089006188E+02  0.69532760176E+01  0.46095589687E+02  0.13458432305E+03  0.12509098466E+03 0.  0.
          5    1    3    3  502    0 -0.61371844035E+02  0.70473021158E+01  0.61735328232E+02  0.87435066531E+02  0.41800000000E+01 0. -1.
         -5    1    3    3    0  502  0.44282837847E+02 -0.94026098211E-01 -0.15639738545E+02  0.47149256520E+02  0.41800000000E+01 0. -1.
        -11    1    1    2    0    0  0.31669824273E+02 -0.32994225851E+02 -0.32380485614E+01  0.45848464178E+02  0.00000000000E+00 0.  1.
         11    1    1    2    0    0 -0.14580818084E+02  0.26040949834E+02 -0.58664273069E+02  0.65819664683E+02  0.00000000000E+00 0. -1.
</event>
<event>
 7    1  0.2626349E-009  0.1339698E+03  0.7561462E-02  0.1221681E+00
         -4   -1    0    0    0  501 -0.00000000000E+00  0.00000000000E+00  0.30476964856E+03  0.30476964856E+03  0.00000000000E+00 0.  1.
          4   -1    0    0  501    0  0.00000000000E+00 -0.00000000000E+00 -0.81806153959E+02  0.81806153959E+02  0.00000000000E+00 0. -1.
         25    2    1    2    0    0  0.45706193272E+02 -0.77922207845E+02  0.33997977516E+02  0.15799962836E+03  0.12508834282E+03 0.  0.
          5    1    3    3  502    0 -0.20133184941E+02  0.19032696584E+02  0.29436773818E+02  0.40639693994E+02  0.41800000000E+01 0. -1.
         -5    1    3    3    0  502  0.65839378213E+02 -0.96954904428E+02  0.45612036986E+01  0.11735993437E+03  0.41800000000E+01 0. -1.
        -11    1    1    2    0    0  0.17826528404E+02  0.50311364506E+02  0.49232799817E+02  0.72614647911E+02  0.00000000000E+00 0. -1.
         11    1    1    2    0    0 -0.63532721676E+02  0.27610843339E+02  0.13973271727E+03  0.15596152625E+03  0.00000000000E+00 0.  1.
</event>
<event>
 7    1  0.2626349E-009  0.1445790E+03  0.7561462E-02  0.1207297E+00
          1   -1    0    0  501    0  0.00000000000E+00  0.00000000000E+00  0.75916067956E+03  0.75916067956E+03  0.00000000000E+00 0. -1.
         -1   -1    0    0    0  501 -0.00000000000E+00 -0.00000000000E+00 -0.29909548070E+02  0.29909548070E+02  0.00000000000E+00 0.  1.
         25    2    1    2    0    0 -0.97504911762E+02  0.11595479678E+02  0.30043680749E+03  0.33992863328E+03  0.12509011737E+03 0.  0.
          5    1    3    3  502    0 -0.14662894355E+02  0.60716394712E+02  0.12114004932E+03  0.13635932314E+03  0.41800000000E+01 0. -1.
         -5    1    3    3    0  502 -0.82842017407E+02 -0.49120915034E+02  0.17929675817E+03  0.20356931015E+03  0.41800000000E+01 0. -1.
        -11    1    1    2    0    0  0.33192360799E+02 -0.46383972342E+02  0.23949046377E+03  0.24618872424E+03  0.00000000000E+00 0. -1.
         11    1    1    2    0    0  0.64312550963E+02  0.34788492664E+02  0.18932386023E+03  0.20295287011E+03  0.00000000000E+00 0.  1.
</event>
<event>
 7    1  0.2626349E-009  0.1045155E+03  0.7561462E-02  0.1271077E+00
          2   -1    0    0  501    0  0.00000000000E+00  0.00000000000E+00  0.16091240134E+03  0.16091240134E+03  0.00000000000E+00 0. -1.
         -2   -1    0    0    0  501 -0.00000000000E+00 -0.00000000000E+00 -0.79354310521E+02  0.79354310521E+02  0.00000000000E+00 0.  1.
         25    2    1    2    0    0  0.18952113556E+02  0.21662585492E+02  0.51036617157E+02  0.13813375178E+03  0.12509095440E+03 0.  0.
          5    1    3    3  502    0  0.68978735101E+02 -0.54667924767E+01  0.15901158236E+02  0.71121522406E+02  0.41800000000E+01 0. -1.
         -5    1    3    3    0  502 -0.50026621545E+02  0.27129377969E+02  0.35135458921E+02  0.67012229374E+02  0.41800000000E+01 0. -1.
        -11    1    1    2    0    0 -0.73422290847E+01 -0.50776133131E+02 -0.85834090916E+01  0.52017294579E+02  0.00000000000E+00 0.  1.
         11    1    1    2    0    0 -0.11609884471E+02  0.29113547639E+02  0.39104882754E+02  0.50115665503E+02  0.00000000000E+00 0. -1.
</event>
<event>
 7    1  0.2626349E-009  0.1062737E+03  0.7561462E-02  0.1267630E+00
         -1   -1    0    0    0  501 -0.00000000000E+00  0.00000000000E+00  0.35855681321E+02  0.35855681321E+02  0.00000000000E+00 0.  1.
          1   -1    0    0  501    0  0.00000000000E+00 -0.00000000000E+00 -0.58862369336E+03  0.58862369336E+03  0.00000000000E+00 0. -1.
         25    2    1    2    0    0  0.52170598990E+02 -0.28961439333E+02 -0.46295856767E+03  0.48325903459E+03  0.12509245687E+03 0.  0.
          5    1    3    3  502    0  0.40966206550E+02  0.25103346630E+02 -0.38285401817E+03  0.38587961817E+03  0.41800000000E+01 0.  1.
         -5    1    3    3    0  502  0.11204392440E+02 -0.54064785964E+02 -0.80104549500E+02  0.97379416418E+02  0.41800000000E+01 0.  1.
        -11    1    1    2    0    0 -0.50488752732E+02 -0.24040253422E+02 -0.44298833665E+02  0.71340273346E+02  0.00000000000E+00 0.  1.
         11    1    1    2    0    0 -0.16818462583E+01  0.53001692755E+02 -0.45510610705E+02  0.69880066746E+02  0.00000000000E+00 0. -1.
</event>
<event>
 7    1  0.2626349E-009  0.1118273E+03  0.7561462E-02  0.1257223E+00
          1   -1    0    0  501    0  0.00000000000E+00  0.00000000000E+00  0.72884834498E+03  0.72884834498E+03  0.00000000000E+00 0. -1.
         -1   -1    0    0    0  501 -0.00000000000E+00 -0.00000000000E+00 -0.26044958499E+02  0.26044958499E+02  0.00000000000E+00 0.  1.
         25    2    1    2    0    0 -0.90202648775E+01 -0.84004093436E+02  0.38320234248E+03  0.41186119081E+03  0.12509017678E+03 0.  0.
          5    1    3    3  502    0 -0.39778650835E+02 -0.85581202594E+02  0.15475588917E+03  0.18131006848E+03  0.41800000000E+01 0. -1.
         -5    1    3    3    0  502  0.30758385957E+02  0.15771091585E+01  0.22844645331E+03  0.23055112234E+03  0.41800000000E+01 0. -1.
        -11    1    1    2    0    0 -0.12448901969E+02  0.72863188132E+02  0.30697088819E+03  0.31574538087E+03  0.00000000000E+00 0. -1.
         11    1    1    2    0    0  0.21469166846E+02  0.11140905303E+02  0.12630155810E+02  0.27286731791E+02  0.00000000000E+00 0.  1.
</event>
<event>
 7    1  0.2626349E-009  0.3993887E+03  0.7561462E-02  0.1043992E+00
          2   -1    0    0  501    0  0.00000000000E+00  0.00000000000E+00  0.74616419560E+03  0.74616419560E+03  0.00000000000E+00 0. -1.
         -2   -1    0    0    0  501 -0.00000000000E+00 -0.00000000000E+00 -0.22041332104E+03  0.22041332104E+03  0.00000000000E+00 0.  1.
         25    2    1    2    0    0  0.31086092163E+03  0.23275598415E+03  0.31307028615E+03  0.51426844502E+03  0.12509663751E+03 0.  0.
          5    1    3    3  502    0  0.51924480711E+02 -0.39462867889E+01  0.16257709288E+02  0.54712981895E+02  0.41800000000E+01 0.  1.
         -5    1    3    3    0  502  0.25893644092E+03  0.23670227093E+03  0.29681257686E+03  0.45955546312E+03  0.41800000000E+01 0.  1.
        -11    1    1    2    0    0 -0.19325229677E+02 -0.44868847591E+02  0.47535813081E+02  0.68164004515E+02  0.00000000000E+00 0. -1.
         11    1    1    2    0    0 -0.29153569195E+03 -0.18788713655E+03  0.16514477533E+03  0.38414506711E+03  0.00000000000E+00 0.  1.
</event>
<event>
 7    1  0.2626349E-009  0.1471716E+03  0.7561462E-02  0.1203992E+00
          2   -1    0    0  501    0  0.00000000000E+00  0.00000000000E+00  0.26881590566E+03  0.26881590566E+03  0.00000000000E+00 0. -1.
         -2   -1    0    0    0  501 -0.00000000000E+00 -0.00000000000E+00 -0.10573436507E+03  0.10573436507E+03  0.00000000000E+00 0.  1.
         25    2    1    2    0    0  0.92658304205E+02  0.85160328955E+02  0.53645117735E+02  0.18537543487E+03  0.12509360588E+03 0.  0.
          5    1    3    3  502    0  0.60454315417E+02 -0.14544527971E+02 -0.93963871630E+01  0.63024059201E+02  0.41800000000E+01 0. -1.
         -5    1    3    3    0  502  0.32203988788E+02  0.99704856926E+02  0.63041504898E+02  0.12235137567E+03  0.41800000000E+01 0. -1.
        -11    1    1    2    0    0 -0.28386863994E+02 -0.38064941369E+02 -0.70904672044E+01  0.48010712700E+02  0.00000000000E+00 0. -1.
         11    1    1    2    0    0 -0.64271440211E+02 -0.47095387587E+02  0.11652689007E+03  0.14116412316E+03  0.00000000000E+00 0.  1.
</event>
<event>
 7    1  0.2626349E-009  0.1055171E+03  0.7561462E-02  0.1269104E+00
         -2   -1    0    0    0  501 -0.00000000000E+00  0.00000000000E+00  0.91628114426E+02  0.91628114426E+02  0.00000000000E+00 0.  1.
          2   -1    0    0  501    0  0.00000000000E+00 -0.00000000000E+00 -0.14755877551E+03  0.14755877551E+03  0.00000000000E+00 0. -1.
         25    2    1    2    0    0 -0.43726850606E+02 -0.30359288502E+02 -0.72738894802E+02  0.15418634878E+03  0.12509500179E+03 0.  0.
          5    1    3    3  502    0  0.35874479173E+02 -0.34298281621E+02 -0.60332885071E+01  0.50171937857E+02  0.41800000000E+01 0. -1.
         -5    1    3    3    0  502 -0.79601329779E+02  0.39389931195E+01 -0.66705606295E+02  0.10401441093E+03  0.41800000000E+01 0. -1.
        -11    1    1    2    0    0  0.19335820635E+02  0.47714021186E+02  0.18014439612E+01  0.51514531714E+02  0.00000000000E+00 0. -1.
         11    1    1    2    0    0  0.24391029971E+02 -0.17354732684E+02  0.15006789754E+02  0.33486009441E+02  0.00000000000E+00 0.  1.
</event>
<event>
 7    1  0.2626349E-009  0.1284631E+03  0.7561462E-02  0.1229754E+00
         -2   -1    0    0    0  501 -0.00000000000E+00  0.00000000000E+00  0.31334413497E+03  0.31334413497E+03  0.00000000000E+00 0.  1.
          2   -1    0    0  501    0  0.00000000000E+00 -0.00000000000E+00 -0.65800320817E+02  0.65800320817E+02  0.00000000000E+00 0. -1.
         25    2    1    2    0    0  0.66806152096E+02 -0.52726536409E+02  0.83267714077E+02  0.17271061663E+03  0.12510913352E+03 0.  0.
          5    1    3    3  502    0 -0.65798378065E+00 -0.69832603071E+02  0.74890755498E+02  0.10248474547E+03  0.41800000000E+01 0.  1.
         -5    1    3    3    0  502  0.67464135877E+02  0.17106066662E+02  0.83769585785E+01  0.70225871168E+02  0.41800000000E+01 0.  1.
        -11    1    1    2    0    0 -0.34792420066E+02  0.71934725180E+02  0.14205573003E+03  0.16298756889E+03  0.00000000000E+00 0.  1.
         11    1    1    2    0    0 -0.32013732030E+02 -0.19208188771E+02  0.22220370054E+02  0.43446270262E+02  0.00000000000E+00 0. -1.
</event>
<event>
 7    1  0.2626349E-009  0.1507759E+03  0.7561462E-02  0.1199523E+00
          1   -1    0    0  501    0  0.00000000000E+00  0.00000000000E+00  0.28208095818E+03  0.28208095818E+03  0.00000000000E+00 0. -1.
         -1   -1    0    0    0  501 -0.00000000000E+00 -0.00000000000E+00 -0.10368435110E+03  0.10368435110E+03  0.00000000000E+00 0.  1.
         25    2    1    2    0    0  0.76478348499E+02 -0.81486116914E+02  0.17868798842E+03  0.24508354358E+03  0.12509045163E+03 0.  0.
          5    1    3    3  502    0  0.10972457639E+03 -0.53822348332E+02  0.14749363788E+03  0.19159377197E+03  0.41800000000E+01 0.  1.
         -5    1    3    3    0  502 -0.33246227888E+02 -0.27663768582E+02  0.31194350546E+02  0.53489771610E+02  0.41800000000E+01 0.  1.
        -11    1    1    2    0    0 -0.90438514515E+02  0.81663800309E+02  0.11517712466E+02  0.12239591043E+03  0.00000000000E+00 0. -1.
         11    1    1    2    0    0  0.13960166016E+02 -0.17768339570E+00 -0.11809093804E+02  0.18285855273E+02  0.00000000000E+00 0.  1.
</event>
<event>
 7    1  0.2626349E-009  0.8317316E+02  0.7561462E-02  0.1320280E+00
         -1   -1    0    0    0  501 -0.00000000000E+00  0.00000000000E+00  0.14218959863E+03  0.14218959863E+03  0.00000000000E+00 0.  1.
          1   -1    0    0  501    0  0.00000000000E+00 -0.00000000000E+00 -0.82107960375E+02  0.82107960375E+02  0.00000000000E+00 0. -1.
         25    2    1    2    0    0 -0.58672031622E+01 -0.11204021587E+02  0.25233404050E+02  0.12823656063E+03  0.12509171287E+03 0.  0.
          5    1    3    3  502    0 -0.20969312208E+02  0.35461016489E+02 -0.32301434268E+02  0.52517147682E+02  0.41800000000E+01 0. -1.
         -5    1    3    3    0  502  0.15102109046E+02 -0.46665038076E+02  0.57534838318E+02  0.75719412944E+02  0.41800000000E+01 0. -1.
        -11    1    1    2    0    0  0.40266919449E+02  0.32030410085E+01  0.43844154002E+02  0.59615384874E+02  0.00000000000E+00 0.  1.
         11    1    1    2    0    0 -0.34399716287E+02  0.80009805784E+01 -0.89959197956E+01  0.36445613505E+02  0.00000000000E+00 0. -1.
</event>
<event>
 7    1  0.2626349E-009  0.1272695E+03  0.7561462E-02  0.1231564E+00
         -2   -1    0    0    0  501 -0.00000000000E+00  0.00000000000E+00  0.70590334944E+02  0.70590334944E+02  0.00000000000E+00 0.  1.
          2   -1    0    0  501    0  0.00000000000E+00 -0.00000000000E+00 -0.32377694660E+03  0.32377694660E+03  0.00000000000E+00 0. -1.
         25    2    1    2    0    0 -0.64636777721E+02  0.38629799581E+02 -0.41337037542E+02  0.15174818491E+03  0.12509431042E+03 0.  0.
          5    1    3    3  502    0 -0.93369250818E+02  0.49530741826E+02 -0.77914225525E+01  0.10606267039E+03  0.41800000000E+01 0.  1.
         -5    1    3    3    0  502  0.28732473097E+02 -0.10900942245E+02 -0.33545614990E+02  0.45685514522E+02  0.41800000000E+01 0.  1.
        -11    1    1    2    0    0  0.77864098533E+02 -0.56003966738E+02 -0.16327508168E+03  0.18936212512E+03  0.00000000000E+00 0.  1.
         11    1    1    2    0    0 -0.13227320812E+02  0.17374167157E+02 -0.48574492433E+02  0.53256971519E+02  0.00000000000E+00 0. -1.
</event>
<event>
 7    1  0.2626349E-009  0.1533236E+03  0.7561462E-02  0.1196447E+00
         -2   -1    0    0    0  501 -0.00000000000E+00  0.00000000000E+00  0.66731004962E+02  0.66731004962E+02  0.00000000000E+00 0.  1.
          2   -1    0    0  501    0  0.00000000000E+00 -0.00000000000E+00 -0.77808777312E+03  0.77808777312E+03  0.00000000000E+00 0. -1.
         25    2    1    2    0    0  0.44186064887E+02  0.13031880179E+03 -0.99137057593E+02  0.21073885700E+03  0.12508921309E+03 0.  0.
          5    1    3    3  502    0 -0.95588890426E+01  0.48517977129E+02  0.22556292072E+02  0.54512614838E+02  0.41800000000E+01 0.  1.
         -5    1    3    3    0  502  0.53744953929E+02  0.81800824658E+02 -0.12169334967E+03  0.15622624216E+03  0.41800000000E+01 0.  1.
        -11    1    1    2    0    0 -0.59244816189E+02 -0.13121378946E+03 -0.58937317567E+03  0.60670235453E+03  0.00000000000E+00 0. -1.
         11    1    1    2    0    0  0.15058751302E+02  0.89498766803E+00 -0.22846534890E+02  0.27377566550E+02  0.00000000000E+00 0.  1.
</event>
<event>
 7    1  0.2626349E-009  0.9865404E+02  0.7561462E-02  0.1283152E+00
         -1   -1    0    0    0  501 -0.00000000000E+00  0.00000000000E+00  0.34208690662E+02  0.34208690662E+02  0.00000000000E+00 0.  1.
          1   -1    0    0  501    0  0.00000000000E+00 -0.00000000000E+00 -0.43598573877E+03  0.43598573877E+03  0.00000000000E+00 0. -1.
         25    2    1    2    0    0  0.56645859741E+01 -0.42780733961E+02 -0.29558932640E+03  0.32385713185E+03  0.12509241878E+03 0.  0.
          5    1    3    3  502    0  0.20761013737E+02 -0.78586544131E+02 -0.12734162243E+03  0.15112983098E+03  0.41800000000E+01 0. -1.
         -5    1    3    3    0  502 -0.15096427763E+02  0.35805810170E+02 -0.16824770397E+03  0.17272730087E+03  0.41800000000E+01 0. -1.
        -11    1    1    2    0    0  0.23022791673E+02 -0.25778280666E+01 -0.85887913064E+02  0.88957449066E+02  0.00000000000E+00 0. -1.
         11    1    1    2    0    0 -0.28687377647E+02  0.45358562028E+02 -0.20299808652E+02  0.57379848525E+02  0.00000000000E+00 0.  1.
</event>
<event>
 7    1  0.2626349E-009  0.9134223E+02  0.7561462E-02  0.1299633E+00
          3   -1    0    0  501    0  0.00000000000E+00  0.00000000000E+00  0.51398195126E+02  0.51398195126E+02  0.00000000000E+00 0. -1.
         -3   -1    0    0    0  501 -0.00000000000E+00 -0.00000000000E+00 -0.29353979910E+03  0.29353979910E+03  0.00000000000E+00 0.  1.
         25    2    1    2    0    0 -0.65573093436E+02  0.24116852047E+02 -0.18048512061E+03  0.23044362508E+03  0.12509169615E+03 0.  0.
          5    1    3    3  502    0 -0.49433955867E+01 -0.20635521223E+02  0.11257658846E+02  0.24381738633E+02  0.41800000000E+01 0. -1.
         -5    1    3    3    0  502 -0.60629697849E+02  0.44752373269E+02 -0.19174277945E+03  0.20606188645E+03  0.41800000000E+01 0. -1.
        -11    1    1    2    0    0  0.69673714544E+02 -0.93979967126E+01 -0.68130022634E+02  0.97900198287E+02  0.00000000000E+00 0.  1.
         11    1    1    2    0    0 -0.41006211086E+01 -0.14718855334E+02  0.64735392665E+01  0.16594170858E+02  0.00000000000E+00 0. -1.
</event>
<event>
 7    1  0.2626349E-009  0.1043156E+03  0.7561462E-02  0.1271474E+00
         -1   -1    0    0    0  501 -0.00000000000E+00  0.00000000000E+00  0.38650799322E+03  0.38650799322E+03  0.00000000000E+00 0.  1.
          1   -1    0    0  501    0  0.00000000000E+00 -0.00000000000E+00 -0.64778051200E+02  0.64778051200E+02  0.00000000000E+00 0. -1.
         25    2    1    2    0    0 -0.23176106948E+02 -0.28190264150E+02  0.15742185868E+02  0.13125099956E+03  0.12508871069E+03 0.  0.
          5    1    3    3  502    0 -0.67516599554E+02 -0.21841042936E+02  0.38493581156E+02  0.80837804041E+02  0.41800000000E+01 0.  1.
         -5    1    3    3    0  502  0.44340492607E+02 -0.63492212140E+01 -0.22751395288E+02  0.50413195517E+02  0.41800000000E+01 0.  1.
        -11    1    1    2    0    0 -0.31243775338E+02 -0.60084679507E-01  0.12890244804E+03  0.13263490573E+03  0.00000000000E+00 0. -1.
         11    1    1    2    0    0  0.54419882286E+02  0.28250348830E+02  0.17708530811E+03  0.18740013913E+03  0.00000000000E+00 0.  1.
</event>
<event>
 7    1  0.2626349E-009  0.1583474E+03  0.7561462E-02  0.1190575E+00
          1   -1    0    0  501    0  0.00000000000E+00  0.00000000000E+00  0.73209140256E+03  0.73209140256E+03  0.00000000000E+00 0. -1.
         -1   -1    0    0    0  501 -0.00000000000E+00 -0.00000000000E+00 -0.42564190250E+02  0.42564190250E+02  0.00000000000E+00 0.  1.
         25    2    1    2    0    0 -0.11429976187E+03  0.60666261524E+02  0.48231923783E+03  0.51480458673E+03  0.12508830673E+03 0.  0.
          5    1    3    3  502    0 -0.89224061483E+02 -0.13594662980E+02  0.34500737134E+03  0.35664170632E+03  0.41800000000E+01 0. -1.
         -5    1    3    3    0  502 -0.25075700384E+02  0.74260924504E+02  0.13731186650E+03  0.15816288041E+03  0.41800000000E+01 0. -1.
        -11    1    1    2    0    0  0.12127517539E+03 -0.42688428749E+02  0.14066029005E+03  0.19056570340E+03  0.00000000000E+00 0.  1.
         11    1    1    2    0    0 -0.69754135251E+01 -0.17977832775E+02  0.66547684432E+02  0.69285302687E+02  0.00000000000E+00 0. -1.
</event>
<event>
 7    1  0.2626349E-009  0.1105494E+03  0.7561462E-02  0.1259556E+00
          1   -1    0    0  501    0  0.00000000000E+00  0.00000000000E+00  0.40522531516E+02  0.40522531516E+02  0.00000000000E+00 0. -1.
         -1   -1    0    0    0  501 -0.00000000000E+00 -0.00000000000E+00 -0.39080136088E+03  0.39080136088E+03  0.00000000000E+00 0.  1.
         25    2    1    2    0    0 -0.59941847340E+02  0.17182246440E+02 -0.18532879137E+03  0.23212598797E+03  0.12508980264E+03 0.  0.
          5    1    3    3  502    0  0.60159582654E+01  0.39122259789E+02 -0.14770823491E+03  0.15297691991E+03  0.41800000000E+01 0.  1.
         -5    1    3    3    0  502 -0.65957805605E+02 -0.21940013349E+02 -0.37620556461E+02  0.79149068058E+02  0.41800000000E+01 0.  1.
        -11    1    1    2    0    0  0.45354864296E+01  0.35152844147E+02 -0.53890350036E+02  0.64501650489E+02  0.00000000000E+00 0.  1.
         11    1    1    2    0    0  0.55406360910E+02 -0.52335090587E+02 -0.11105968796E+03  0.13469625394E+03  0.00000000000E+00 0. -1.
</event>
<event>
 7    1  0.2626349E-009  0.1320563E+03  0.7561462E-02  0.1224436E+00
         -2   -1    0    0    0  501 -0.00000000000E+00  0.00000000000E+00  0.11042560048E+03  0.11042560048E+03  0.00000000000E+00 0. -1.
          2   -1    0    0  501    0  0.00000000000E+00 -0.00000000000E+00 -0.20266999227E+03  0.20266999227E+03  0.00000000000E+00 0.  1.
         25    2    1    2    0    0  0.82643725703E+02 -0.58222812414E+02 -0.77279050593E+02  0.17843612578E+03  0.12509003973E+03 0.  0.
          5    1    3    3  502    0  0.90418280850E+02 -0.14742410059E+02 -0.28080552794E+01  0.91750540820E+02  0.41800000000E+01 0.  1.
         -5    1    3    3    0  502 -0.77745551473E+01 -0.43480402355E+02 -0.74470995314E+02  0.86685584959E+02  0.41800000000E+01 0.  1.
        -11    1    1    2    0    0 -0.54004867491E+02 -0.92014531875E+01  0.12904574466E+02  0.56282506124E+02  0.00000000000E+00 0. -1.
         11    1    1    2    0    0 -0.28638858212E+02  0.67424265602E+02 -0.27869915659E+02  0.78376960840E+02  0.00000000000E+00 0.  1.
</event>
<event>
 7    1  0.2626349E-009  0.9530979E+02  0.7561462E-02  0.1290480E+00
         -4   -1    0    0    0  501 -0.00000000000E+00  0.00000000000E+00  0.12742305806E+03  0.12742305806E+03  0.00000000000E+00 0.  1.
          4   -1    0    0  501    0  0.00000000000E+00 -0.00000000000E+00 -0.15260644041E+03  0.15260644041E+03  0.00000000000E+00 0. -1.
         25    2    1    2    0    0  0.37530117298E+02 -0.44707770787E+02 -0.72652262476E+02  0.15599300553E+03  0.12509265390E+03 0.  0.
          5    1    3    3  502    0  0.57089452082E+02 -0.23139693043E+01  0.12641560484E+02  0.58667209278E+02  0.41800000000E+01 0. -1.
         -5    1    3    3    0  502 -0.19559334784E+02 -0.42393801482E+02 -0.85293822960E+02  0.97325796254E+02  0.41800000000E+01 0. -1.
        -11    1    1    2    0    0  0.61199777180E+01  0.42298492254E+02  0.64286267804E+02  0.77196766787E+02  0.00000000000E+00 0.  1.
         11    1    1    2    0    0 -0.43650095016E+02  0.24092785331E+01 -0.16817387672E+02  0.46839726153E+02  0.00000000000E+00 0. -1.
</event>
<event>
 7    1  0.2671890E-009  0.9980566E+02  0.7561462E-02  0.1280705E+00
         -1   -1    0    0    0  501 -0.00000000000E+00  0.00000000000E+00  0.57462860060E+02  0.57462860060E+02  0.00000000000E+00 0.  1.
          1   -1    0    0  501    0  0.00000000000E+00 -0.00000000000E+00 -0.28590737146E+03  0.28590737146E+03  0.00000000000E+00 0. -1.
         25    2    1    2    0    0  0.67809234432E+01 -0.11713156562E+02 -0.37540235017E+02  0.13129756365E+03  0.12508637822E+03 0.  0.
          5    1    3    3  502    0  0.55321293677E+02 -0.34047787224E+02 -0.42079262247E+02  0.77510219069E+02  0.41800000000E+01 0. -1.
         -5    1    3    3    0  502 -0.48540370233E+02  0.22334630662E+02  0.45390272296E+01  0.53787344584E+02  0.41800000000E+01 0. -1.
        -11    1    1    2    0    0 -0.39699938974E+02  0.23289612960E+02 -0.15627078314E+03  0.16290809953E+03  0.00000000000E+00 0. -1.
         11    1    1    2    0    0  0.32919015530E+02 -0.11576456398E+02 -0.34633493237E+02  0.49164568340E+02  0.00000000000E+00 0.  1.
</event>
<event>
 7    1  0.2626349E-009  0.4046133E+03  0.7561462E-02  0.1042194E+00
          2   -1    0    0  501    0  0.00000000000E+00  0.00000000000E+00  0.59724999826E+03  0.59724999826E+03  0.00000000000E+00 0.  1.
         -2   -1    0    0    0  501 -0.00000000000E+00 -0.00000000000E+00 -0.40320345887E+03  0.40320345887E+03  0.00000000000E+00 0. -1.
         25    2    1    2    0    0  0.59403539199E+02  0.39517416060E+03 -0.16821572534E+03  0.45125978077E+03  0.12508981498E+03 0.  0.
          5    1    3    3  502    0  0.65004782895E+01  0.22913812105E+02  0.19425369180E+02  0.31018000757E+02  0.41800000000E+01 0.  1.
         -5    1    3    3    0  502  0.52903060909E+02  0.37226034849E+03 -0.18764109452E+03  0.42024178001E+03  0.41800000000E+01 0.  1.
        -11    1    1    2    0    0  0.12972853964E+02 -0.20702050375E+03  0.14673950805E+03  0.25408318940E+03  0.00000000000E+00 0. -1.
         11    1    1    2    0    0 -0.72376393163E+02 -0.18815365684E+03  0.21552275668E+03  0.29511048697E+03  0.00000000000E+00 0.  1.
</event>
<event>
 7    1  0.2626349E-009  0.1567425E+03  0.7561462E-02  0.1192424E+00
         -2   -1    0    0    0  501 -0.00000000000E+00  0.00000000000E+00  0.41681660747E+03  0.41681660747E+03  0.00000000000E+00 0.  1.
          2   -1    0    0  501    0  0.00000000000E+00 -0.00000000000E+00 -0.79328463513E+02  0.79328463513E+02  0.00000000000E+00 0. -1.
         25    2    1    2    0    0 -0.13089285289E+03  0.19677533001E+02  0.91738107989E+02  0.20392059780E+03  0.12509030940E+03 0.  0.
          5    1    3    3  502    0 -0.12486781499E+03 -0.25456141950E+02  0.37344989460E+02  0.13286123220E+03  0.41800000000E+01 0. -1.
         -5    1    3    3    0  502 -0.60250379007E+01  0.45133674951E+02  0.54393118529E+02  0.71059365601E+02  0.41800000000E+01 0. -1.
        -11    1    1    2    0    0  0.67855289667E+02 -0.33568717283E+02  0.63265129527E+02  0.98659392507E+02  0.00000000000E+00 0. -1.
         11    1    1    2    0    0  0.63037563226E+02  0.13891184281E+02  0.18248490644E+03  0.19356508068E+03  0.00000000000E+00 0.  1.
</event>
<event>
 7    1  0.2626349E-009  0.1069965E+03  0.7561462E-02  0.1266235E+00
          2   -1    0    0  501    0  0.00000000000E+00  0.00000000000E+00  0.13385107710E+03  0.13385107710E+03  0.00000000000E+00 0. -1.
         -2   -1    0    0    0  501 -0.00000000000E+00 -0.00000000000E+00 -0.10003700533E+03  0.10003700533E+03  0.00000000000E+00 0.  1.
         25    2    1    2    0    0  0.26469908372E+02 -0.93975143787E+01 -0.14582768210E+02  0.12903084670E+03  0.12508929989E+03 0.  0.
          5    1    3    3  502    0  0.73409013020E+02 -0.62503890054E+01 -0.29544648218E+02  0.79487792733E+02  0.41800000000E+01 0. -1.
         -5    1    3    3    0  502 -0.46939104648E+02 -0.31471253733E+01  0.14961880008E+02  0.49543053969E+02  0.41800000000E+01 0. -1.
        -11    1    1    2    0    0 -0.44401492185E+02 -0.27302226173E+02  0.28840388781E+02  0.59570731801E+02  0.00000000000E+00 0. -1.
         11    1    1    2    0    0  0.17931583813E+02  0.36699740552E+02  0.19556451196E+02  0.45286503928E+02  0.00000000000E+00 0.  1.
</event>
<event>
 7    1  0.2626349E-009  0.8627027E+02  0.7561462E-02  0.1312144E+00
         -4   -1    0    0    0  501 -0.00000000000E+00  0.00000000000E+00  0.74571191452E+03  0.74571191452E+03  0.00000000000E+00 0.  1.
          4   -1    0    0  501    0  0.00000000000E+00 -0.00000000000E+00 -0.18281944982E+02  0.18281944982E+02  0.00000000000E+00 0. -1.
         25    2    1    2    0    0 -0.13206580663E+02 -0.20526955463E+02  0.43407252482E+03  0.45239734894E+03  0.12509450366E+03 0.  0.
          5    1    3    3  502    0  0.18082156620E+02 -0.49050442978E+02  0.37996218187E+03  0.38356439146E+03  0.41800000000E+01 0.  1.
         -5    1    3    3    0  502 -0.31288737283E+02  0.28523487515E+02  0.54110342957E+02  0.68832957482E+02  0.41800000000E+01 0.  1.
        -11    1    1    2    0    0  0.38395617361E+02  0.31896190972E+02  0.27233963130E+03  0.27687626335E+03  0.00000000000E+00 0.  1.
         11    1    1    2    0    0 -0.25189036698E+02 -0.11369235509E+02  0.21017813417E+02  0.34720247215E+02  0.00000000000E+00 0. -1.
</event>
<event>
 7    1  0.2626349E-009  0.1240255E+03  0.7561462E-02  0.1236600E+00
         -2   -1    0    0    0  501 -0.00000000000E+00  0.00000000000E+00  0.12496200662E+03  0.12496200662E+03  0.00000000000E+00 0.  1.
          2   -1    0    0  501    0  0.00000000000E+00 -0.00000000000E+00 -0.14075474440E+03  0.14075474440E+03  0.00000000000E+00 0. -1.
         25    2    1    2    0    0  0.47921984299E+02  0.60545404682E+02 -0.20252302097E+02  0.14838810794E+03  0.12508641905E+03 0.  0.
          5    1    3    3  502    0 -0.25847288465E+02 -0.22936576652E+02 -0.11071668227E+02  0.36527018861E+02  0.41800000000E+01 0. -1.
         -5    1    3    3    0  502  0.73769272764E+02  0.83481981335E+02 -0.91806338703E+01  0.11186108908E+03  0.41800000000E+01 0. -1.
        -11    1    1    2    0    0  0.49835828189E+01 -0.46842994187E+02  0.31183447623E+02  0.56493447476E+02  0.00000000000E+00 0.  1.
         11    1    1    2    0    0 -0.52905567118E+02 -0.13702410495E+02 -0.26723883299E+02  0.60835195603E+02  0.00000000000E+00 0. -1.
</event>
<event>
 7    1  0.2626349E-009  0.1983439E+03  0.7561462E-02  0.1151144E+00
          2   -1    0    0  501    0  0.00000000000E+00  0.00000000000E+00  0.30929124924E+03  0.30929124924E+03  0.00000000000E+00 0. -1.
         -2   -1    0    0    0  501 -0.00000000000E+00 -0.00000000000E+00 -0.14314034385E+03  0.14314034385E+03  0.00000000000E+00 0.  1.
         25    2    1    2    0    0 -0.15220892038E+03  0.95631620341E+02  0.83445374533E+02  0.23436035481E+03  0.12509469662E+03 0.  0.
          5    1    3    3  502    0 -0.13812201904E+03  0.19723229336E+02  0.37957827288E+02  0.14465464725E+03  0.41800000000E+01 0.  1.
         -5    1    3    3    0  502 -0.14086901343E+02  0.75908391006E+02  0.45487547245E+02  0.89705707560E+02  0.41800000000E+01 0.  1.
        -11    1    1    2    0    0  0.11573187955E+03 -0.71148565477E+02  0.10220600782E+03  0.17000604209E+03  0.00000000000E+00 0. -1.
         11    1    1    2    0    0  0.36477040833E+02 -0.24483054864E+02 -0.19500476958E+02  0.48065196192E+02  0.00000000000E+00 0.  1.
</event>
<event>
 7    1  0.2626349E-009  0.6766318E+02  0.7561462E-02  0.1368225E+00
         -3   -1    0    0    0  501 -0.00000000000E+00  0.00000000000E+00  0.78244545612E+03  0.78244545612E+03  0.00000000000E+00 0.  1.
          3   -1    0    0  501    0  0.00000000000E+00 -0.00000000000E+00 -0.17424851509E+02  0.17424851509E+02  0.00000000000E+00 0. -1.
         25    2    1    2    0    0  0.15482786889E+02 -0.37832212612E+02  0.49916117618E+03  0.51621721684E+03  0.12508933669E+03 0.  0.
          5    1    3    3  502    0  0.13874161715E+02 -0.10539097661E+02  0.48465440163E+03  0.48498549088E+03  0.41800000000E+01 0.  1.
         -5    1    3    3    0  502  0.16086251734E+01 -0.27293114951E+02  0.14506774550E+02  0.31231725961E+02  0.41800000000E+01 0.  1.
        -11    1    1    2    0    0  0.19520403049E+02  0.49213620581E+02  0.93886976808E+02  0.10778585714E+03  0.00000000000E+00 0. -1.
         11    1    1    2    0    0 -0.35003189937E+02 -0.11381407970E+02  0.17197245162E+03  0.17586723364E+03  0.00000000000E+00 0.  1.
</event>
<event>
 7    1  0.2626349E-009  0.1204004E+03  0.7561462E-02  0.1242438E+00
          2   -1    0    0  501    0  0.00000000000E+00  0.00000000000E+00  0.18855920892E+04  0.18855920892E+04  0.00000000000E+00 0. -1.
         -2   -1    0    0    0  501 -0.00000000000E+00 -0.00000000000E+00 -0.41744591694E+02  0.41744591694E+02  0.00000000000E+00 0.  1.
         25    2    1    2    0    0 -0.46534638098E+02 -0.40233628292E+02  0.18053782696E+04  0.18107520381E+04  0.12509208448E+03 0.  0.
          5    1    3    3  502    0 -0.30219033295E+02  0.41531263824E+02  0.48297130213E+03  0.48571265881E+03  0.41800000000E+01 0. -1.
         -5    1    3    3    0  502 -0.16315604803E+02 -0.81764892116E+02  0.13224069675E+04  0.13250393792E+04  0.41800000000E+01 0. -1.
        -11    1    1    2    0    0  0.63231356947E+02  0.10999257917E+01  0.38499242316E+02  0.74037868669E+02  0.00000000000E+00 0. -1.
         11    1    1    2    0    0 -0.16696718849E+02  0.39133702500E+02 -0.30014403435E-01  0.42546774173E+02  0.00000000000E+00 0.  1.
</event>
<event>
 7    1  0.2626349E-009  0.1231333E+03  0.7561462E-02  0.1238016E+00
          1   -1    0    0  501    0  0.00000000000E+00  0.00000000000E+00  0.11514481511E+03  0.11514481511E+03  0.00000000000E+00 0. -1.
         -1   -1    0    0    0  501 -0.00000000000E+00 -0.00000000000E+00 -0.20880358273E+03  0.20880358273E+03  0.00000000000E+00 0.  1.
         25    2    1    2    0    0  0.77728555491E+02  0.31963978895E+01  0.30176612235E+02  0.15036484223E+03  0.12508801923E+03 0.  0.
          5    1    3    3  502    0  0.83267831983E+02  0.36991532282E+02 -0.16123059582E+02  0.92624676809E+02  0.41800000000E+01 0. -1.
         -5    1    3    3    0  502 -0.55392764923E+01 -0.33795134393E+02  0.46299671817E+02  0.57740165423E+02  0.41800000000E+01 0. -1.
        -11    1    1    2    0    0 -0.67491864531E+02  0.38445684091E+02 -0.68395217276E+02  0.10349458029E+03  0.00000000000E+00 0.  1.
         11    1    1    2    0    0 -0.10236690960E+02 -0.41642081980E+02 -0.55440162585E+02  0.70088975316E+02  0.00000000000E+00 0. -1.
</event>
<event>
 7    1  0.2626349E-009  0.1354478E+03  0.7561462E-02  0.1219589E+00
          2   -1    0    0  501    0  0.00000000000E+00  0.00000000000E+00  0.74340430298E+02  0.74340430298E+02  0.00000000000E+00 0. -1.
         -2   -1    0    0    0  501 -0.00000000000E+00 -0.00000000000E+00 -0.31056285729E+03  0.31056285729E+03  0.00000000000E+00 0.  1.
         25    2    1    2    0    0 -0.77169225118E+02  0.56158923827E+02 -0.70981593215E+02  0.17261529949E+03  0.12509492801E+03 0.  0.
          5    1    3    3  502    0 -0.71027069915E+01  0.79261128826E+02 -0.55513662653E+02  0.97118557086E+02  0.41800000000E+01 0. -1.
         -5    1    3    3    0  502 -0.70066518127E+02 -0.23102204999E+02 -0.15467930563E+02  0.75496742407E+02  0.41800000000E+01 0. -1.
        -11    1    1    2    0    0  0.59796373165E+01 -0.44829344743E+02 -0.18628451062E+02  0.48912630286E+02  0.00000000000E+00 0.  1.
         11    1    1    2    0    0  0.71189587802E+02 -0.11329579084E+02 -0.14661238272E+03  0.16337535781E+03  0.00000000000E+00 0. -1.
</event>
<event>
 7    1  0.2626349E-009  0.2135812E+03  0.7561462E-02  0.1138761E+00
         -2   -1    0    0    0  501 -0.00000000000E+00  0.00000000000E+00  0.15744697474E+03  0.15744697474E+03  0.00000000000E+00 0.  1.
          2   -1    0    0  501    0  0.00000000000E+00 -0.00000000000E+00 -0.39926577821E+03  0.39926577821E+03  0.00000000000E+00 0. -1.
         25    2    1    2    0    0  0.19735357782E+03 -0.41897298759E+02 -0.58638932575E+01  0.23745684241E+03  0.12509016125E+03 0.  0.
          5    1    3    3  502    0  0.16386035683E+03 -0.71538852349E+02  0.28234803128E+02  0.18105993605E+03  0.41800000000E+01 0. -1.
         -5    1    3    3    0  502  0.33493220986E+02  0.29641553590E+02 -0.34098696385E+02  0.56396906355E+02  0.41800000000E+01 0. -1.
        -11    1    1    2    0    0 -0.47303187130E+02  0.21522316315E+02 -0.20403520256E+02  0.55831042003E+02  0.00000000000E+00 0.  1.
         11    1    1    2    0    0 -0.15005039069E+03  0.20374982444E+02 -0.21555138996E+03  0.26342486854E+03  0.00000000000E+00 0. -1.
</event>
<event>
 7    1  0.2626349E-009  0.9357926E+02  0.7561462E-02  0.1294408E+00
         -2   -1    0    0    0  501 -0.00000000000E+00  0.00000000000E+00  0.11045459849E+04  0.11045459849E+04  0.00000000000E+00 0.  1.
          2   -1    0    0  501    0  0.00000000000E+00 -0.00000000000E+00 -0.22111202935E+02  0.22111202935E+02  0.00000000000E+00 0. -1.
         25    2    1    2    0    0 -0.35184207929E+01 -0.89317124630E+02  0.82724187820E+03  0.84140791112E+03  0.12509284473E+03 0.  0.
          5    1    3    3  502    0  0.10410002328E+02 -0.67060091710E+02  0.16271337469E+03  0.17634777785E+03  0.41800000000E+01 0. -1.
         -5    1    3    3    0  502 -0.13928423121E+02 -0.22257032920E+02  0.66452850351E+03  0.66506013327E+03  0.41800000000E+01 0. -1.
        -11    1    1    2    0    0  0.13404044271E+02  0.37383879219E+02  0.21553139514E+03  0.21915977076E+03  0.00000000000E+00 0.  1.
         11    1    1    2    0    0 -0.98856234782E+01  0.51933245411E+02  0.39661508601E+02  0.66089505936E+02  0.00000000000E+00 0. -1.
</event>
<event>
 7    1  0.2626349E-009  0.1129633E+03  0.7561462E-02  0.1255179E+00
         -2   -1    0    0    0  501 -0.00000000000E+00  0.00000000000E+00  0.71064073705E+02  0.71064073705E+02  0.00000000000E+00 0. -1.
          2   -1    0    0  501    0  0.00000000000E+00 -0.00000000000E+00 -0.21786915898E+03  0.21786915898E+03  0.00000000000E+00 0.  1.
         25    2    1    2    0    0  0.54259821675E+02 -0.21709517901E+02 -0.10021593773E+03  0.17060497431E+03  0.12508953460E+03 0.  0.
          5    1    3    3  502    0 -0.13847663755E+02  0.29332607520E+02 -0.74869960538E+02  0.81701548616E+02  0.41800000000E+01 0.  1.
         -5    1    3    3    0  502  0.68107485430E+02 -0.51042125421E+02 -0.25345977197E+02  0.88903425689E+02  0.41800000000E+01 0.  1.
        -11    1    1    2    0    0 -0.46977654806E+02  0.55918063893E+02 -0.37941511553E+02  0.82299989183E+02  0.00000000000E+00 0.  1.
         11    1    1    2    0    0 -0.72821668692E+01 -0.34208545991E+02 -0.86476359859E+01  0.36028269196E+02  0.00000000000E+00 0. -1.
</event>
<event>
 7    1  0.2626349E-009  0.9245160E+02  0.7561462E-02  0.1297021E+00
          1   -1    0    0  501    0  0.00000000000E+00  0.00000000000E+00  0.11367817855E+04  0.11367817855E+04  0.00000000000E+00 0. -1.
         -1   -1    0    0    0  501 -0.00000000000E+00 -0.00000000000E+00 -0.19607519610E+02  0.19607519610E+02  0.00000000000E+00 0.  1.
         25    2    1    2    0    0  0.69076876679E+02  0.43158127860E+02  0.84771638040E+03  0.86075853463E+03  0.12509178408E+03 0.  0.
          5    1    3    3  502    0  0.77612687763E+02  0.49312357010E+02  0.84375743677E+03  0.84876352558E+03  0.41800000000E+01 0. -1.
         -5    1    3    3    0  502 -0.85358110837E+01 -0.61542291507E+01  0.39589436280E+01  0.11995009043E+02  0.41800000000E+01 0. -1.
        -11    1    1    2    0    0 -0.58160135576E+02 -0.34731706298E+02  0.27309288119E+03  0.28136917839E+03  0.00000000000E+00 0. -1.
         11    1    1    2    0    0 -0.10916741103E+02 -0.84264215611E+01 -0.36349956599E+01  0.14261592130E+02  0.00000000000E+00 0.  1.
</event>
<event>
 7    1  0.2626349E-009  0.8582379E+02  0.7561462E-02  0.1313292E+00
         -1   -1    0    0    0  501 -0.00000000000E+00  0.00000000000E+00  0.49011717976E+03  0.49011717976E+03  0.00000000000E+00 0.  1.
          1   -1    0    0  501    0  0.00000000000E+00 -0.00000000000E+00 -0.29436309874E+02  0.29436309874E+02  0.00000000000E+00 0. -1.
         25    2    1    2    0    0 -0.63131710463E+01  0.15525821919E+02  0.36080419700E+03  0.38223862830E+03  0.12508314479E+03 0.  0.
          5    1    3    3  502    0  0.48726138827E+02  0.35589530950E+02  0.24546790854E+03  0.25280984522E+03  0.41800000000E+01 0. -1.
         -5    1    3    3    0  502 -0.55039309873E+02 -0.20063709031E+02  0.11533628847E+03  0.12942878308E+03  0.41800000000E+01 0. -1.
        -11    1    1    2    0    0  0.36809018157E+01 -0.33784728297E+02  0.11078702091E+03  0.11588235805E+03  0.00000000000E+00 0.  1.
         11    1    1    2    0    0  0.26322692306E+01  0.18258906379E+02 -0.10910348026E+02  0.21432503295E+02  0.00000000000E+00 0. -1.
</event>
<event>
 7    1  0.2626349E-009  0.1080516E+03  0.7561462E-02  0.1264221E+00
          1   -1    0    0  501    0  0.00000000000E+00  0.00000000000E+00  0.38100006158E+02  0.38100006158E+02  0.00000000000E+00 0. -1.
         -1   -1    0    0    0  501 -0.00000000000E+00 -0.00000000000E+00 -0.33456946518E+03  0.33456946518E+03  0.00000000000E+00 0.  1.
         25    2    1    2    0    0 -0.80631428747E+00  0.23185866461E+02 -0.12787280648E+03  0.18038074143E+03  0.12509005834E+03 0.  0.
          5    1    3    3  502    0  0.57346660202E+02  0.33595522709E+02 -0.54258420831E+02  0.85899634537E+02  0.41800000000E+01 0.  1.
         -5    1    3    3    0  502 -0.58152974489E+02 -0.10409656248E+02 -0.73614385644E+02  0.94481106889E+02  0.41800000000E+01 0.  1.
        -11    1    1    2    0    0  0.31619240400E+02 -0.43204918469E+02 -0.11966848582E+03  0.13109915271E+03  0.00000000000E+00 0. -1.
         11    1    1    2    0    0 -0.30812926112E+02  0.20019052007E+02 -0.48928166726E+02  0.61189577201E+02  0.00000000000E+00 0.  1.
</event>
<event>
 7    1  0.2626349E-009  0.8494778E+02  0.7561462E-02  0.1315569E+00
         -2   -1    0    0    0  501 -0.00000000000E+00  0.00000000000E+00  0.27314299587E+03  0.27314299587E+03  0.00000000000E+00 0.  1.
          2   -1    0    0  501    0  0.00000000000E+00 -0.00000000000E+00 -0.85858274439E+02  0.85858274439E+02  0.00000000000E+00 0. -1.
         25    2    1    2    0    0 -0.11877117382E+02 -0.60084674626E+02 -0.26904730184E+01  0.13929598295E+03  0.12507956739E+03 0.  0.
          5    1    3    3  502    0 -0.24289616538E+02 -0.53431988625E+02  0.54527264439E+02  0.80222551986E+02  0.41800000000E+01 0.  1.
         -5    1    3    3    0  502  0.12412499156E+02 -0.66526860007E+01 -0.57217737457E+02  0.59073430965E+02  0.41800000000E+01 0.  1.
        -11    1    1    2    0    0  0.34057043925E+02  0.19180713470E+01  0.12561702045E+03  0.13016603653E+03  0.00000000000E+00 0.  1.
         11    1    1    2    0    0 -0.22179926543E+02  0.58166603279E+02  0.64358173994E+02  0.89539250825E+02  0.00000000000E+00 0. -1.
</event>
<event>
 7    1  0.2922251E-009  0.1591402E+03  0.7561462E-02  0.1189671E+00
          2   -1    0    0  501    0  0.00000000000E+00  0.00000000000E+00  0.10661183578E+04  0.10661183578E+04  0.00000000000E+00 0. -1.
         -2   -1    0    0    0  501 -0.00000000000E+00 -0.00000000000E+00 -0.25820456911E+02  0.25820456911E+02  0.00000000000E+00 0.  1.
         25    2    1    2    0    0  0.10592417327E+03  0.64875125199E+02  0.59285007818E+03  0.61850453706E+03  0.12509170560E+03 0.  0.
          5    1    3    3  502    0  0.27803436780E+01  0.71342311530E+02  0.20579659221E+03  0.21786960662E+03  0.41800000000E+01 0. -1.
         -5    1    3    3    0  502  0.10314382960E+03 -0.64671863303E+01  0.38705348597E+03  0.40063493044E+03  0.41800000000E+01 0. -1.
        -11    1    1    2    0    0 -0.54250898180E+02  0.71147514702E+01  0.26518656249E+03  0.27077239993E+03  0.00000000000E+00 0. -1.
         11    1    1    2    0    0 -0.51673275093E+02 -0.71989876670E+02  0.18226126018E+03  0.20266187768E+03  0.00000000000E+00 0.  1.
</event>
<event>
 7    1  0.2626349E-009  0.9915202E+02  0.7561462E-02  0.1282089E+00
         -1   -1    0    0    0  501 -0.00000000000E+00  0.00000000000E+00  0.25773196076E+02  0.25773196076E+02  0.00000000000E+00 0.  1.
          1   -1    0    0  501    0  0.00000000000E+00 -0.00000000000E+00 -0.48505739125E+03  0.48505739125E+03  0.00000000000E+00 0. -1.
         25    2    1    2    0    0  0.11586738568E+02 -0.24071912412E+02 -0.30086690314E+03  0.32692771661E+03  0.12508848471E+03 0.  0.
          5    1    3    3  502    0 -0.37836454629E+02 -0.48459362437E+02 -0.90978279345E+02  0.10988369679E+03  0.41800000000E+01 0. -1.
         -5    1    3    3    0  502  0.49423193197E+02  0.24387450024E+02 -0.20988862379E+03  0.21704401982E+03  0.41800000000E+01 0. -1.
        -11    1    1    2    0    0 -0.34964903056E+02 -0.13233056880E+02 -0.11926370433E+03  0.12498595685E+03  0.00000000000E+00 0. -1.
         11    1    1    2    0    0  0.23378164488E+02  0.37304969292E+02 -0.39153587706E+02  0.58916913861E+02  0.00000000000E+00 0.  1.
</event>
<event>
 7    1  0.3449192E-009  0.1136959E+03  0.7561462E-02  0.1253875E+00
          1   -1    0    0  501    0  0.00000000000E+00  0.00000000000E+00  0.16547867490E+03  0.16547867490E+03  0.00000000000E+00 0. -1.
         -1   -1    0    0    0  501 -0.00000000000E+00 -0.00000000000E+00 -0.10744101262E+03  0.10744101262E+03  0.00000000000E+00 0.  1.
         25    2    1    2    0    0 -0.43567944501E+02 -0.34303607969E+02 -0.22523786164E+02  0.13867396917E+03  0.12509294734E+03 0.  0.
          5    1    3    3  502    0 -0.86592372424E+01 -0.77024313848E+02 -0.29225903219E+02  0.82941865980E+02  0.41800000000E+01 0. -1.
         -5    1    3    3    0  502 -0.34908707259E+02  0.42720705879E+02  0.67021170556E+01  0.55732103193E+02  0.41800000000E+01 0. -1.
        -11    1    1    2    0    0  0.61823627770E+02  0.41883552339E+02  0.30938263756E+02  0.80830495924E+02  0.00000000000E+00 0.  1.
         11    1    1    2    0    0 -0.18255683268E+02 -0.75799443702E+01  0.49623184681E+02  0.53415222419E+02  0.00000000000E+00 0. -1.
</event>
<event>
 7    1  0.2626349E-009  0.1106373E+03  0.7561462E-02  0.1259394E+00
          1   -1    0    0  501    0  0.00000000000E+00  0.00000000000E+00  0.49178750951E+02  0.49178750951E+02  0.00000000000E+00 0. -1.
         -1   -1    0    0    0  501 -0.00000000000E+00 -0.00000000000E+00 -0.43155564410E+03  0.43155564410E+03  0.00000000000E+00 0.  1.
         25    2    1    2    0    0 -0.44933600755E+02  0.16821300461E+02 -0.34904597027E+03  0.37387400531E+03  0.12508676131E+03 0.  0.
          5    1    3    3  502    0 -0.35705361988E+02 -0.46343307337E+02 -0.92941630700E+02  0.10990083770E+03  0.41800000000E+01 0.  1.
         -5    1    3    3    0  502 -0.92282387671E+01  0.63164607798E+02 -0.25610433957E+03  0.26397316761E+03  0.41800000000E+01 0.  1.
        -11    1    1    2    0    0 -0.16591832686E+02  0.20744482718E+02 -0.20696318716E+02  0.33674323802E+02  0.00000000000E+00 0.  1.
         11    1    1    2    0    0  0.61525433441E+02 -0.37565783179E+02 -0.12634604159E+02  0.73186065943E+02  0.00000000000E+00 0. -1.
</event>
<event>
 7    1  0.2626349E-009  0.2560048E+03  0.7561462E-02  0.1109568E+00
         -1   -1    0    0    0  501 -0.00000000000E+00  0.00000000000E+00  0.48208934318E+02  0.48208934318E+02  0.00000000000E+00 0.  1.
          1   -1    0    0  501    0  0.00000000000E+00 -0.00000000000E+00 -0.16060193020E+04  0.16060193020E+04  0.00000000000E+00 0. -1.
         25    2    1    2    0    0 -0.21267907138E+03  0.11675104325E+03 -0.10390973432E+04  0.10743523227E+04  0.12508569572E+03 0.  0.
          5    1    3    3  502    0 -0.19551637411E+03  0.12623378973E+03 -0.76758769801E+03  0.80210346512E+03  0.41800000000E+01 0. -1.
         -5    1    3    3    0  502 -0.17162697265E+02 -0.94827464769E+01 -0.27150964514E+03  0.27224885760E+03  0.41800000000E+01 0. -1.
        -11    1    1    2    0    0  0.16784048510E+03 -0.43623092642E+02 -0.34372146199E+03  0.38499070909E+03  0.00000000000E+00 0.  1.
         11    1    1    2    0    0  0.44838586279E+02 -0.73127950608E+02 -0.17499156252E+03  0.19488520450E+03  0.00000000000E+00 0. -1.
</event>
<event>
 7    1  0.2626349E-009  0.1777880E+03  0.7561462E-02  0.1169961E+00
          2   -1    0    0  501    0  0.00000000000E+00  0.00000000000E+00  0.12753178932E+03  0.12753178932E+03  0.00000000000E+00 0.  1.
         -2   -1    0    0    0  501 -0.00000000000E+00 -0.00000000000E+00 -0.34049164770E+03  0.34049164770E+03  0.00000000000E+00 0. -1.
         25    2    1    2    0    0  0.29253749162E+02 -0.15469412696E+03 -0.19023522447E+02  0.20197888326E+03  0.12509004805E+03 0.  0.
          5    1    3    3  502    0  0.53326617610E+02 -0.14780800349E+03 -0.47133196949E+02  0.16410345729E+03  0.41800000000E+01 0. -1.
         -5    1    3    3    0  502 -0.24072868447E+02 -0.68861234749E+01  0.28109674502E+02  0.37875425970E+02  0.41800000000E+01 0. -1.
        -11    1    1    2    0    0 -0.44843347452E+02  0.50040446138E+02 -0.36815902947E+02  0.76618423177E+02  0.00000000000E+00 0.  1.
         11    1    1    2    0    0  0.15589598290E+02  0.10465368082E+03 -0.15712043298E+03  0.18942613058E+03  0.00000000000E+00 0. -1.
</event>
<event>
 7    1  0.2626349E-009  0.1190988E+03  0.7561462E-02  0.1244591E+00
         -2   -1    0    0    0  501 -0.00000000000E+00  0.00000000000E+00  0.43704121691E+02  0.43704121691E+02  0.00000000000E+00 0.  1.
          2   -1    0    0  501    0  0.00000000000E+00 -0.00000000000E+00 -0.36183048533E+03  0.36183048533E+03  0.00000000000E+00 0. -1.
         25    2    1    2    0    0  0.57636540927E+01 -0.55736360880E+02 -0.13137193414E+03  0.18985559996E+03  0.12508717809E+03 0.  0.
          5    1    3    3  502    0  0.13356218506E+02 -0.95401420666E+02 -0.90317567131E+02  0.13211568783E+03  0.41800000000E+01 0. -1.
         -5    1    3    3    0  502 -0.75925644134E+01  0.39665059786E+02 -0.41054367012E+02  0.57739912132E+02  0.41800000000E+01 0. -1.
        -11    1    1    2    0    0 -0.27737094286E+02 -0.11807691627E+02 -0.25536738536E+02  0.39508138352E+02  0.00000000000E+00 0.  1.
         11    1    1    2    0    0  0.21973440193E+02  0.67544052508E+02 -0.16121769096E+03  0.17617086870E+03  0.00000000000E+00 0. -1.
</event>
<event>
 7    1  0.2626349E-009  0.1117589E+03  0.7561462E-02  0.1257347E+00
          1   -1    0    0  501    0  0.00000000000E+00  0.00000000000E+00  0.18560015495E+03  0.18560015495E+03  0.00000000000E+00 0. -1.
         -1   -1    0    0    0  501 -0.00000000000E+00 -0.00000000000E+00 -0.21381144560E+03  0.21381144560E+03  0.00000000000E+00 0.  1.
         25    2    1    2    0    0 -0.16111038027E+02  0.98883027652E+02 -0.14580955708E+03  0.21667159291E+03  0.12509489812E+03 0.  0.
          5    1    3    3  502    0  0.42547905475E+01  0.48191412751E+02  0.11662759888E+02  0.49940042789E+02  0.41800000000E+01 0. -1.
         -5    1    3    3    0  502 -0.20365828575E+02  0.50691614901E+02 -0.15747231697E+03  0.16673155012E+03  0.41800000000E+01 0. -1.
        -11    1    1    2    0    0 -0.20040353829E+02 -0.73017161524E+02  0.24514501003E+02  0.79586948792E+02  0.00000000000E+00 0.  1.
         11    1    1    2    0    0  0.36151391856E+02 -0.25865866128E+02  0.93083765424E+02  0.10315305885E+03  0.00000000000E+00 0. -1.
</event>
<event>
 7    1  0.2626349E-009  0.3047069E+03  0.7561462E-02  0.1082911E+00
          1   -1    0    0  501    0  0.00000000000E+00  0.00000000000E+00  0.99094380140E+02  0.99094380140E+02  0.00000000000E+00 0. -1.
         -1   -1    0    0    0  501 -0.00000000000E+00 -0.00000000000E+00 -0.10223273096E+04  0.10223273096E+04  0.00000000000E+00 0.  1.
         25    2    1    2    0    0 -0.13968425369E+03 -0.25964496888E+03 -0.38025965352E+03  0.49716452468E+03  0.12509180593E+03 0.  0.
          5    1    3    3  502    0  0.13234617689E+02 -0.72566001931E+01  0.19061399681E+00  0.15662761105E+02  0.41800000000E+01 0. -1.
         -5    1    3    3    0  502 -0.15291887138E+03 -0.25238836868E+03 -0.38045026752E+03  0.48150176357E+03  0.41800000000E+01 0. -1.
        -11    1    1    2    0    0  0.43117754891E+02  0.13001231955E+03 -0.32667512374E+03  0.35423012364E+03  0.00000000000E+00 0.  1.
         11    1    1    2    0    0  0.96566498797E+02  0.12963264933E+03 -0.21629815225E+03  0.27002704147E+03  0.00000000000E+00 0. -1.
</event>
<event>
 7    1  0.2626349E-009  0.1452551E+03  0.7561462E-02  0.1206428E+00
         -2   -1    0    0    0  501 -0.00000000000E+00  0.00000000000E+00  0.31154082126E+02  0.31154082126E+02  0.00000000000E+00 0.  1.
          2   -1    0    0  501    0  0.00000000000E+00 -0.00000000000E+00 -0.80200302471E+03  0.80200302471E+03  0.00000000000E+00 0. -1.
         25    2    1    2    0    0  0.30392884336E+02 -0.99369110816E+02 -0.28800021142E+03  0.33074081706E+03  0.12508964263E+03 0.  0.
          5    1    3    3  502    0 -0.46815018134E+02 -0.53442256067E+02 -0.10514998570E+03  0.12697130600E+03  0.41800000000E+01 0. -1.
         -5    1    3    3    0  502  0.77207902469E+02 -0.45926854749E+02 -0.18285022572E+03  0.20376951106E+03  0.41800000000E+01 0. -1.
        -11    1    1    2    0    0  0.24086229310E+02  0.51628578698E+02 -0.12587439905E+03  0.13816664184E+03  0.00000000000E+00 0.  1.
         11    1    1    2    0    0 -0.54479113645E+02  0.47740532118E+02 -0.35697433212E+03  0.36424964794E+03  0.00000000000E+00 0. -1.
</event>
<event>
 7    1  0.2626349E-009  0.1034157E+03  0.7561462E-02  0.1273273E+00
          2   -1    0    0  501    0  0.00000000000E+00  0.00000000000E+00  0.15740531250E+02  0.15740531250E+02  0.00000000000E+00 0. -1.
         -2   -1    0    0    0  501 -0.00000000000E+00 -0.00000000000E+00 -0.82772828799E+03  0.82772828799E+03  0.00000000000E+00 0.  1.
         25    2    1    2    0    0  0.28456748879E+02  0.51115849745E+01 -0.40002845178E+03  0.42012809526E+03  0.12509572071E+03 0.  0.
          5    1    3    3  502    0 -0.39836808361E+02  0.90493941854E+01 -0.27037204821E+03  0.27347281343E+03  0.41800000000E+01 0.  1.
         -5    1    3    3    0  502  0.68293557239E+02 -0.39378092110E+01 -0.12965640357E+03  0.14665528183E+03  0.41800000000E+01 0.  1.
        -11    1    1    2    0    0 -0.62136800622E+02  0.42287300325E+01 -0.24839823684E+03  0.25608699345E+03  0.00000000000E+00 0.  1.
         11    1    1    2    0    0  0.33680051743E+02 -0.93403150069E+01 -0.16356106812E+03  0.16725373052E+03  0.00000000000E+00 0. -1.
</event>
<event>
 7    1  0.2626349E-009  0.1200761E+03  0.7561462E-02  0.1242972E+00
          4   -1    0    0  501    0  0.00000000000E+00  0.00000000000E+00  0.40368988188E+03  0.40368988188E+03  0.00000000000E+00 0. -1.
         -4   -1    0    0    0  501 -0.00000000000E+00 -0.00000000000E+00 -0.38231522499E+02  0.38231522499E+02  0.00000000000E+00 0.  1.
         25    2    1    2    0    0  0.49591005501E+02  0.33393272290E+02  0.21471027713E+03  0.25558165291E+03  0.12508836772E+03 0.  0.
          5    1    3    3  502    0 -0.35533291726E+02  0.35533987614E+02  0.10639473262E+03  0.11773950325E+03  0.41800000000E+01 0.  1.
         -5    1    3    3    0  502  0.85124297227E+02 -0.21407153236E+01  0.10831554451E+03  0.13784214966E+03  0.41800000000E+01 0.  1.
        -11    1    1    2    0    0  0.66180091663E+01  0.23548888800E+02  0.63038685694E+02  0.67618223158E+02  0.00000000000E+00 0. -1.
         11    1    1    2    0    0 -0.56209014667E+02 -0.56942161090E+02  0.87709396557E+02  0.11872152831E+03  0.00000000000E+00 0.  1.
</event>
<event>
 7    1  0.4323826E-009  0.1837313E+03  0.7561462E-02  0.1164240E+00
          4   -1    0    0  501    0  0.00000000000E+00  0.00000000000E+00  0.23693955673E+03  0.23693955673E+03  0.00000000000E+00 0. -1.
         -4   -1    0    0    0  501 -0.00000000000E+00 -0.00000000000E+00 -0.17098136506E+03  0.17098136506E+03  0.00000000000E+00 0.  1.
         25    2    1    2    0    0  0.13742002171E+03  0.97821632064E+02  0.21380195907E+02  0.21108556221E+03  0.12508664089E+03 0.  0.
          5    1    3    3  502    0  0.15124400845E+03  0.77082692275E+02 -0.10822667353E+02  0.17015021031E+03  0.41800000000E+01 0.  1.
         -5    1    3    3    0  502 -0.13823986739E+02  0.20738939789E+02  0.32202863260E+02  0.40935351899E+02  0.41800000000E+01 0.  1.
        -11    1    1    2    0    0 -0.59247926791E+02 -0.63986860691E+02  0.65571055983E+02  0.10910636348E+03  0.00000000000E+00 0. -1.
         11    1    1    2    0    0 -0.78172094921E+02 -0.33834771373E+02 -0.20993060216E+02  0.87728996093E+02  0.00000000000E+00 0.  1.
</event>
<event>
 7    1  0.2626349E-009  0.1290418E+03  0.7561462E-02  0.1228885E+00
         -1   -1    0    0    0  501 -0.00000000000E+00  0.00000000000E+00  0.21842777145E+03  0.21842777145E+03  0.00000000000E+00 0.  1.
          1   -1    0    0  501    0  0.00000000000E+00 -0.00000000000E+00 -0.79392620659E+02  0.79392620659E+02  0.00000000000E+00 0. -1.
         25    2    1    2    0    0 -0.71211247067E+02  0.21633967839E+02  0.89749734331E+02  0.17099564896E+03  0.12508168082E+03 0.  0.
          5    1    3    3  502    0 -0.96500517568E+02 -0.14662620743E+02  0.43772633953E+02  0.10705539791E+03  0.41800000000E+01 0. -1.
         -5    1    3    3    0  502  0.25289270501E+02  0.36296588582E+02  0.45977100378E+02  0.63940251050E+02  0.41800000000E+01 0. -1.
        -11    1    1    2    0    0 -0.13403396296E+02 -0.28055813118E+02  0.63971198417E+01  0.31744335310E+02  0.00000000000E+00 0.  1.
         11    1    1    2    0    0  0.84614643363E+02  0.64218452791E+01  0.42888296617E+02  0.95080407840E+02  0.00000000000E+00 0. -1.
</event>
<event>
 7    1  0.2626349E-009  0.1055413E+03  0.7561462E-02  0.1269057E+00
         -1   -1    0    0    0  501 -0.00000000000E+00  0.00000000000E+00  0.48377972100E+03  0.48377972100E+03  0.00000000000E+00 0.  1.
          1   -1    0    0  501    0  0.00000000000E+00 -0.00000000000E+00 -0.34412709487E+02  0.34412709487E+02  0.00000000000E+00 0. -1.
         25    2    1    2    0    0  0.15194310984E+02 -0.49997985441E+02  0.28738720828E+03  0.31775727335E+03  0.12509041390E+03 0.  0.
          5    1    3    3  502    0 -0.22090925579E+02 -0.59892681813E+02  0.26572700871E+03  0.27331933317E+03  0.41800000000E+01 0. -1.
         -5    1    3    3    0  502  0.37285236563E+02  0.98946963721E+01  0.21660199574E+02  0.44437940180E+02  0.41800000000E+01 0. -1.
        -11    1    1    2    0    0  0.38645242260E+02  0.35677222466E+02  0.11888941022E+03  0.13000388769E+03  0.00000000000E+00 0.  1.
         11    1    1    2    0    0 -0.53839553244E+02  0.14320762975E+02  0.43090393010E+02  0.70431269444E+02  0.00000000000E+00 0. -1.
</event>
<event>
 7    1  0.2626349E-009  0.1083602E+03  0.7561462E-02  0.1263637E+00
         -1   -1    0    0    0  501 -0.00000000000E+00  0.00000000000E+00  0.39436533536E+03  0.39436533536E+03  0.00000000000E+00 0.  1.
          1   -1    0    0  501    0  0.00000000000E+00 -0.00000000000E+00 -0.66670115896E+02  0.66670115896E+02  0.00000000000E+00 0. -1.
         25    2    1    2    0    0 -0.72689989924E+01  0.87714049974E+02  0.29034504640E+03  0.32816781789E+03  0.12508907956E+03 0.  0.
          5    1    3    3  502    0  0.11400568303E+02 -0.64322408873E+01  0.18532816306E+03  0.18583688306E+03  0.41800000000E+01 0.  1.
         -5    1    3    3    0  502 -0.18669567296E+02  0.94146290861E+02  0.10501688333E+03  0.14233093483E+03  0.41800000000E+01 0.  1.
        -11    1    1    2    0    0  0.28686398173E+02 -0.17735757933E+02  0.48259524361E+02  0.58876550860E+02  0.00000000000E+00 0.  1.
         11    1    1    2    0    0 -0.21417399181E+02 -0.69978292041E+02 -0.10909351291E+02  0.73991082505E+02  0.00000000000E+00 0. -1.
</event>
<event>
 7    1  0.2626349E-009  0.2018497E+03  0.7561462E-02  0.1148188E+00
          2   -1    0    0  501    0  0.00000000000E+00  0.00000000000E+00  0.11390794925E+04  0.11390794925E+04  0.00000000000E+00 0. -1.
         -2   -1    0    0    0  501 -0.00000000000E+00 -0.00000000000E+00 -0.46616472403E+02  0.46616472403E+02  0.00000000000E+00 0.  1.
         25    2    1    2    0    0 -0.18023552521E+03  0.34656724155E+02  0.78323374179E+03  0.81411823500E+03  0.12508986054E+03 0.  0.
          5    1    3    3  502    0 -0.93672694992E+02  0.77882249520E+02  0.36488036781E+03  0.38470166856E+03  0.41800000000E+01 0. -1.
         -5    1    3    3    0  502 -0.86562830218E+02 -0.43225525366E+02  0.41835337397E+03  0.42941656644E+03  0.41800000000E+01 0. -1.
        -11    1    1    2    0    0  0.88350683224E+02 -0.28653949418E+02  0.73314842843E+02  0.11832987038E+03  0.00000000000E+00 0.  1.
         11    1    1    2    0    0  0.91884841986E+02 -0.60027747366E+01  0.23591443549E+03  0.25324785955E+03  0.00000000000E+00 0. -1.
</event>
<event>
 7    1  0.2626349E-009  0.2087282E+03  0.7561462E-02  0.1142577E+00
         -1   -1    0    0    0  501 -0.00000000000E+00  0.00000000000E+00  0.12332334455E+04  0.12332334455E+04  0.00000000000E+00 0.  1.
          1   -1    0    0  501    0  0.00000000000E+00 -0.00000000000E+00 -0.58496099161E+02  0.58496099161E+02  0.00000000000E+00 0. -1.
         25    2    1    2    0    0  0.41999744927E+02 -0.18553998067E+03  0.97366956718E+03  0.99993429932E+03  0.12508842429E+03 0.  0.
          5    1    3    3  502    0  0.85928760066E+02 -0.13330085431E+03  0.71374396491E+03  0.73116399625E+03  0.41800000000E+01 0.  1.
         -5    1    3    3    0  502 -0.43929015140E+02 -0.52239126362E+02  0.25992560227E+03  0.26877030307E+03  0.41800000000E+01 0.  1.
        -11    1    1    2    0    0 -0.23122872378E+02  0.12049571922E+03  0.18532862613E+03  0.22226242427E+03  0.00000000000E+00 0.  1.
         11    1    1    2    0    0 -0.18876872549E+02  0.65044261454E+02  0.15739152992E+02  0.69532821043E+02  0.00000000000E+00 0. -1.
</event>
<event>
 7    1  0.2626349E-009  0.9303196E+02  0.7561462E-02  0.1295671E+00
          3   -1    0    0  501    0  0.00000000000E+00  0.00000000000E+00  0.39210006532E+02  0.39210006532E+02  0.00000000000E+00 0. -1.
         -3   -1    0    0    0  501 -0.00000000000E+00 -0.00000000000E+00 -0.31596125184E+03  0.31596125184E+03  0.00000000000E+00 0.  1.
         25    2    1    2    0    0  0.11290898675E+02 -0.14760287974E+02 -0.12676145492E+03  0.17905457735E+03  0.12508686871E+03 0.  0.
          5    1    3    3  502    0  0.26092078583E+02  0.39832116371E+02 -0.94129348857E+01  0.48718269699E+02  0.41800000000E+01 0.  1.
         -5    1    3    3    0  502 -0.14801179908E+02 -0.54592404344E+02 -0.11734852003E+03  0.13033630765E+03  0.41800000000E+01 0.  1.
        -11    1    1    2    0    0  0.49107908513E+00 -0.32670350403E+02 -0.10398644429E+03  0.10899896124E+03  0.00000000000E+00 0.  1.
         11    1    1    2    0    0 -0.11781977760E+02  0.47430638377E+02 -0.46003346102E+02  0.67117719787E+02  0.00000000000E+00 0. -1.
</event>
<event>
 7    1  0.2626349E-009  0.9044684E+02  0.7561462E-02  0.1301773E+00
          1   -1    0    0  501    0  0.00000000000E+00  0.00000000000E+00  0.46738374638E+02  0.46738374638E+02  0.00000000000E+00 0. -1.
         -1   -1    0    0    0  501 -0.00000000000E+00 -0.00000000000E+00 -0.35134816778E+03  0.35134816778E+03  0.00000000000E+00 0.  1.
         25    2    1    2    0    0  0.51836445312E+02  0.18632301270E+02 -0.10621609743E+03  0.17310069382E+03  0.12509121125E+03 0.  0.
          5    1    3    3  502    0  0.65030268942E+02  0.29087778860E+02 -0.12721549058E+03  0.14586393729E+03  0.41800000000E+01 0.  1.
         -5    1    3    3    0  502 -0.13193823630E+02 -0.10455477590E+02  0.20999393148E+02  0.27236756529E+02  0.41800000000E+01 0.  1.
        -11    1    1    2    0    0  0.94490715269E+01  0.18326567892E+02 -0.89558285212E+01  0.22480100265E+02  0.00000000000E+00 0. -1.
         11    1    1    2    0    0 -0.61285516839E+02 -0.36958869162E+02 -0.18943786719E+03  0.20250574834E+03  0.00000000000E+00 0.  1.
</event>
<event>
 7    1  0.2626349E-009  0.1096441E+03  0.7561462E-02  0.1261230E+00
          2   -1    0    0  501    0  0.00000000000E+00  0.00000000000E+00  0.13182480896E+04  0.13182480896E+04  0.00000000000E+00 0. -1.
         -2   -1    0    0    0  501 -0.00000000000E+00 -0.00000000000E+00 -0.14591548916E+02  0.14591548916E+02  0.00000000000E+00 0.  1.
         25    2    1    2    0    0  0.12970493474E+02 -0.40281662491E+02  0.10471332698E+04  0.10554271985E+04  0.12509052911E+03 0.  0.
          5    1    3    3  502    0 -0.14698646540E+02 -0.79252446041E+02  0.76473579632E+03  0.76898329695E+03  0.41800000000E+01 0. -1.
         -5    1    3    3    0  502  0.27669140014E+02  0.38970783549E+02  0.28239747350E+03  0.28644390152E+03  0.41800000000E+01 0. -1.
        -11    1    1    2    0    0 -0.40477478587E+02 -0.15805994024E+01  0.18926184717E+03  0.19354836957E+03  0.00000000000E+00 0. -1.
         11    1    1    2    0    0  0.27506985113E+02  0.41862261894E+02  0.67261423711E+02  0.83864070498E+02  0.00000000000E+00 0.  1.
</event>
<event>
 7    1  0.2626349E-009  0.2107715E+03  0.7561462E-02  0.1140956E+00
          1   -1    0    0  501    0  0.00000000000E+00  0.00000000000E+00  0.77547962592E+02  0.77547962592E+02  0.00000000000E+00 0. -1.
         -1   -1    0    0    0  501 -0.00000000000E+00 -0.00000000000E+00 -0.84091215657E+03  0.84091215657E+03  0.00000000000E+00 0.  1.
         25    2    1    2    0    0  0.78617197872E+02 -0.19303707042E+03 -0.57103876732E+03  0.62062642554E+03  0.12509161418E+03 0.  0.
          5    1    3    3  502    0  0.18336738342E+01 -0.32040575509E+02 -0.26033502664E+03  0.26233901604E+03  0.41800000000E+01 0. -1.
         -5    1    3    3    0  502  0.76783524038E+02 -0.16099649491E+03 -0.31070374068E+03  0.35828740951E+03  0.41800000000E+01 0. -1.
        -11    1    1    2    0    0 -0.74975616682E+02  0.15122917756E+03 -0.19229291780E+03  0.25586749203E+03  0.00000000000E+00 0.  1.
         11    1    1    2    0    0 -0.36415811904E+01  0.41807892863E+02 -0.32508858289E-01  0.41966201591E+02  0.00000000000E+00 0. -1.
</event>
<event>
 7    1  0.2626349E-009  0.9987163E+02  0.7561462E-02  0.1280566E+00
         -2   -1    0    0    0  501 -0.00000000000E+00  0.00000000000E+00  0.17959518774E+03  0.17959518774E+03  0.00000000000E+00 0.  1.
          2   -1    0    0  501    0  0.00000000000E+00 -0.00000000000E+00 -0.76359786491E+02  0.76359786491E+02  0.00000000000E+00 0. -1.
         25    2    1    2    0    0 -0.36464051491E+02  0.36394980667E+01  0.33580352412E+02  0.13460349151E+03  0.12509031482E+03 0.  0.
          5    1    3    3  502    0 -0.58518627080E+02  0.41571797388E+02  0.49987783556E+02  0.87572227094E+02  0.41800000000E+01 0. -1.
         -5    1    3    3    0  502  0.22054575589E+02 -0.37932299322E+02 -0.16407431144E+02  0.47031264420E+02  0.41800000000E+01 0. -1.
        -11    1    1    2    0    0  0.53241162343E+02  0.18161980288E+02  0.74567664878E+02  0.93406721070E+02  0.00000000000E+00 0.  1.
         11    1    1    2    0    0 -0.16777110852E+02 -0.21801478355E+02 -0.49126160441E+01  0.27944761645E+02  0.00000000000E+00 0. -1.
</event>
<event>
 7    1  0.2626349E-009  0.8034259E+02  0.7561462E-02  0.1328082E+00
         -1   -1    0    0    0  501 -0.00000000000E+00  0.00000000000E+00  0.71536009077E+02  0.71536009077E+02  0.00000000000E+00 0.  1.
          1   -1    0    0  501    0  0.00000000000E+00 -0.00000000000E+00 -0.26957764148E+03  0.26957764148E+03  0.00000000000E+00 0. -1.
         25    2    1    2    0    0 -0.12959831601E+02 -0.55628004767E+02 -0.27585481854E+02  0.14025355107E+03  0.12509063765E+03 0.  0.
          5    1    3    3  502    0  0.64207671693E+01 -0.58642613226E+02 -0.71015656090E+02  0.92416871550E+02  0.41800000000E+01 0. -1.
         -5    1    3    3    0  502 -0.19380598771E+02  0.30146084593E+01  0.43430174236E+02  0.47836679516E+02  0.41800000000E+01 0. -1.
        -11    1    1    2    0    0 -0.22942716905E+02  0.27930912454E+02 -0.15364436637E+02  0.39275565466E+02  0.00000000000E+00 0.  1.
         11    1    1    2    0    0  0.35902548506E+02  0.27697092313E+02 -0.15509171392E+03  0.16158453403E+03  0.00000000000E+00 0. -1.
</event>
<event>
 7    1  0.2626349E-009  0.8957118E+02  0.7561462E-02  0.1303893E+00
          2   -1    0    0  501    0  0.00000000000E+00  0.00000000000E+00  0.63505065000E+03  0.63505065000E+03  0.00000000000E+00 0.  1.
         -2   -1    0    0    0  501 -0.00000000000E+00 -0.00000000000E+00 -0.36809556040E+02  0.36809556040E+02  0.00000000000E+00 0. -1.
         25    2    1    2    0    0  0.20183625893E+02 -0.24245015692E+02  0.54753818675E+03  0.56253035637E+03  0.12508851405E+03 0.  0.
          5    1    3    3  502    0 -0.35979512901E+02  0.24901414176E+02  0.32060090767E+03  0.32360009298E+03  0.41800000000E+01 0. -1.
         -5    1    3    3    0  502  0.56163138794E+02 -0.49146429868E+02  0.22693727908E+03  0.23893026339E+03  0.41800000000E+01 0. -1.
        -11    1    1    2    0    0  0.10403377309E+02 -0.10064914665E+02  0.60605960604E+02  0.62310634946E+02  0.00000000000E+00 0.  1.
         11    1    1    2    0    0 -0.30587003202E+02  0.34309930356E+02 -0.99030534028E+01  0.47019214717E+02  0.00000000000E+00 0. -1.
</event>
<event>
 7    1  0.2626349E-009  0.1038231E+03  0.7561462E-02  0.1272456E+00
         -2   -1    0    0    0  501 -0.00000000000E+00  0.00000000000E+00  0.23836653141E+03  0.23836653141E+03  0.00000000000E+00 0.  1.
          2   -1    0    0  501    0  0.00000000000E+00 -0.00000000000E+00 -0.63721156781E+02  0.63721156781E+02  0.00000000000E+00 0. -1.
         25    2    1    2    0    0  0.97535665196E+00 -0.36029516760E+01  0.25203739513E+02  0.12765719897E+03  0.12508876601E+03 0.  0.
          5    1    3    3  502    0  0.51672649760E+02  0.30704831005E+02  0.27556896377E+02  0.66254843734E+02  0.41800000000E+01 0.  1.
         -5    1    3    3    0  502 -0.50697293108E+02 -0.34307782681E+02 -0.23531568642E+01  0.61402355233E+02  0.41800000000E+01 0.  1.
        -11    1    1    2    0    0 -0.40400903367E+02  0.17779218538E+02  0.10197667902E+03  0.11111965024E+03  0.00000000000E+00 0. -1.
         11    1    1    2    0    0  0.39425546716E+02 -0.14176266862E+02  0.47464956095E+02  0.63310838986E+02  0.00000000000E+00 0.  1.
</event>
<event>
 7    1  0.2626349E-009  0.8627142E+02  0.7561462E-02  0.1312141E+00
         -1   -1    0    0    0  501 -0.00000000000E+00  0.00000000000E+00  0.29920011177E+02  0.29920011177E+02  0.00000000000E+00 0.  1.
          1   -1    0    0  501    0  0.00000000000E+00 -0.00000000000E+00 -0.44636571651E+03  0.44636571651E+03  0.00000000000E+00 0. -1.
         25    2    1    2    0    0  0.32568836157E+02  0.64822440669E+00 -0.27760723702E+03  0.30622561027E+03  0.12508875671E+03 0.  0.
          5    1    3    3  502    0  0.57755524580E+02 -0.15069319435E+02 -0.26821399053E+03  0.27480720901E+03  0.41800000000E+01 0.  1.
         -5    1    3    3    0  502 -0.25186688422E+02  0.15717543841E+02 -0.93932464912E+01  0.31418401260E+02  0.41800000000E+01 0.  1.
        -11    1    1    2    0    0  0.21439985159E+02  0.15383794672E+02 -0.79466489067E+01  0.27558725133E+02  0.00000000000E+00 0.  1.
         11    1    1    2    0    0 -0.54008821316E+02 -0.16032019079E+02 -0.13089181940E+03  0.14250139228E+03  0.00000000000E+00 0. -1.
</event>
<event>
 7    1  0.2626349E-009  0.1018083E+03  0.7561462E-02  0.1276539E+00
         -1   -1    0    0    0  501 -0.00000000000E+00  0.00000000000E+00  0.15706014547E+03  0.15706014547E+03  0.00000000000E+00 0.  1.
          1   -1    0    0  501    0  0.00000000000E+00 -0.00000000000E+00 -0.86534616050E+02  0.86534616050E+02  0.00000000000E+00 0. -1.
         25    2    1    2    0    0  0.12793735142E+02  0.38112970937E+02  0.74200135365E+02  0.15089888410E+03  0.12509410427E+03 0.  0.
          5    1    3    3  502    0 -0.20066342499E+02 -0.29398133564E+02 -0.10779228155E+02  0.37424223678E+02  0.41800000000E+01 0.  1.
         -5    1    3    3    0  502  0.32860077641E+02  0.67511104501E+02  0.84979363520E+02  0.11347466042E+03  0.41800000000E+01 0.  1.
        -11    1    1    2    0    0 -0.47954077421E+02 -0.29765165358E+02 -0.36419449741E+01  0.56558132689E+02  0.00000000000E+00 0.  1.
         11    1    1    2    0    0  0.35160342279E+02 -0.83478055787E+01 -0.32660975186E-01  0.36137744726E+02  0.00000000000E+00 0. -1.
</event>
<event>
 7    1  0.2626349E-009  0.1641985E+03  0.7561462E-02  0.1184037E+00
         -2   -1    0    0    0  501 -0.00000000000E+00  0.00000000000E+00  0.10888450893E+03  0.10888450893E+03  0.00000000000E+00 0. -1.
          2   -1    0    0  501    0  0.00000000000E+00 -0.00000000000E+00 -0.30301459107E+03  0.30301459107E+03  0.00000000000E+00 0.  1.
         25    2    1    2    0    0 -0.14075129160E+03  0.46797531840E+00 -0.14292197191E+03  0.23640802827E+03  0.12510363980E+03 0.  0.
          5    1    3    3  502    0 -0.24957116033E+02 -0.50948581098E+02 -0.69872394392E+02  0.90101273324E+02  0.41800000000E+01 0.  1.
         -5    1    3    3    0  502 -0.11579417556E+03  0.51416556416E+02 -0.73049577521E+02  0.14630675495E+03  0.41800000000E+01 0.  1.
        -11    1    1    2    0    0  0.86677426812E+02 -0.16733406719E+02  0.13836261890E+02  0.89355611812E+02  0.00000000000E+00 0. -1.
         11    1    1    2    0    0  0.54073864784E+02  0.16265431401E+02 -0.65044372117E+02  0.86135459919E+02  0.00000000000E+00 0.  1.
</event>
<event>
 7    1  0.2626349E-009  0.2296542E+03  0.7561462E-02  0.1126883E+00
          2   -1    0    0  501    0  0.00000000000E+00  0.00000000000E+00  0.17682771241E+04  0.17682771241E+04  0.00000000000E+00 0. -1.
         -2   -1    0    0    0  501 -0.00000000000E+00 -0.00000000000E+00 -0.66782115867E+02  0.66782115867E+02  0.00000000000E+00 0.  1.
         25    2    1    2    0    0  0.10991738484E+03 -0.18758564511E+03  0.15115075182E+04  0.15321803399E+04  0.12510559803E+03 0.  0.
          5    1    3    3  502    0  0.65347299336E+02 -0.15439730906E+03  0.13678522901E+04  0.13780951196E+04  0.41800000000E+01 0.  1.
         -5    1    3    3    0  502  0.44570085508E+02 -0.33188336052E+02  0.14365522809E+03  0.15408522035E+03  0.41800000000E+01 0.  1.
        -11    1    1    2    0    0 -0.12592443433E+03  0.17453899199E+03  0.17409468720E+03  0.27682085000E+03  0.00000000000E+00 0.  1.
         11    1    1    2    0    0  0.16007049487E+02  0.13046653126E+02  0.15892802824E+02  0.26058050054E+02  0.00000000000E+00 0. -1.
</event>
<event>
 7    1  0.2626349E-009  0.8481067E+02  0.7561462E-02  0.1315928E+00
         -1   -1    0    0    0  501 -0.00000000000E+00  0.00000000000E+00  0.63983243319E+02  0.63983243319E+02  0.00000000000E+00 0.  1.
          1   -1    0    0  501    0  0.00000000000E+00 -0.00000000000E+00 -0.24653638634E+03  0.24653638634E+03  0.00000000000E+00 0. -1.
         25    2    1    2    0    0 -0.82016952358E+01 -0.56973232206E+01 -0.17958735600E+03  0.21908615943E+03  0.12508956600E+03 0.  0.
          5    1    3    3  502    0  0.28850611832E+02  0.18057655855E+02 -0.17054656886E+03  0.17395988413E+03  0.41800000000E+01 0.  1.
         -5    1    3    3    0  502 -0.37052307067E+02 -0.23754979076E+02 -0.90407871429E+01  0.45126275296E+02  0.41800000000E+01 0.  1.
        -11    1    1    2    0    0  0.23009269861E+01 -0.42499499596E+02 -0.48699868427E+01  0.42839450309E+02  0.00000000000E+00 0.  1.
         11    1    1    2    0    0  0.59007682497E+01  0.48196822817E+02  0.19041998186E+01  0.48594019925E+02  0.00000000000E+00 0. -1.
</event>
<event>
 7    1  0.2626349E-009  0.1152578E+03  0.7561462E-02  0.1251132E+00
         -2   -1    0    0    0  501 -0.00000000000E+00  0.00000000000E+00  0.32580751203E+03  0.32580751203E+03  0.00000000000E+00 0.  1.
          2   -1    0    0  501    0  0.00000000000E+00 -0.00000000000E+00 -0.48775567267E+02  0.48775567267E+02  0.00000000000E+00 0. -1.
         25    2    1    2    0    0  0.62244475449E+02  0.10745065047E+02  0.13649975928E+03  0.19562639117E+03  0.12509064510E+03 0.  0.
          5    1    3    3  502    0 -0.32287575948E+02  0.28853263696E+02  0.36745392203E+02  0.56944662917E+02  0.41800000000E+01 0. -1.
         -5    1    3    3    0  502  0.94532051398E+02 -0.18108198649E+02  0.99754367080E+02  0.13868172825E+03  0.41800000000E+01 0. -1.
        -11    1    1    2    0    0 -0.29308476815E+02 -0.37952063695E+02  0.21613437922E+02  0.52597401559E+02  0.00000000000E+00 0. -1.
         11    1    1    2    0    0 -0.32935998634E+02  0.27206998648E+02  0.11891874755E+03  0.12635928656E+03  0.00000000000E+00 0.  1.
</event>
<event>
 7    1  0.2626349E-009  0.1497766E+03  0.7561462E-02  0.1200748E+00
          2   -1    0    0  501    0  0.00000000000E+00  0.00000000000E+00  0.10044581622E+04  0.10044581622E+04  0.00000000000E+00 0. -1.
         -2   -1    0    0    0  501 -0.00000000000E+00 -0.00000000000E+00 -0.24114563920E+02  0.24114563920E+02  0.00000000000E+00 0.  1.
         25    2    1    2    0    0  0.91571181389E+02 -0.55589041386E+02  0.62134656844E+03  0.64280197150E+03  0.12508954260E+03 0.  0.
          5    1    3    3  502    0 -0.55841118582E+01 -0.60625192463E+02  0.15891732257E+03  0.17023156017E+03  0.41800000000E+01 0. -1.
         -5    1    3    3    0  502  0.97155293247E+02  0.50361510764E+01  0.46242924587E+03  0.47257041133E+03  0.41800000000E+01 0. -1.
        -11    1    1    2    0    0  0.18254412828E+02  0.16415468506E+02  0.66694043263E+02  0.71068886306E+02  0.00000000000E+00 0.  1.
         11    1    1    2    0    0 -0.10982559422E+03  0.39173572880E+02  0.29230298653E+03  0.31470186827E+03  0.00000000000E+00 0. -1.
</event>
<event>
 7    1  0.2626349E-009  0.1374959E+03  0.7561462E-02  0.1216739E+00
         -2   -1    0    0    0  501 -0.00000000000E+00  0.00000000000E+00  0.10624386415E+03  0.10624386415E+03  0.00000000000E+00 0.  1.
          2   -1    0    0  501    0  0.00000000000E+00 -0.00000000000E+00 -0.30598332595E+03  0.30598332595E+03  0.00000000000E+00 0. -1.
         25    2    1    2    0    0 -0.51838637084E+02  0.70413021570E+02  0.24855293405E+02  0.15462680096E+03  0.12508566690E+03 0.  0.
          5    1    3    3  502    0 -0.20174914578E+01  0.93846402640E+02  0.31298332268E+02  0.99036738451E+02  0.41800000000E+01 0.  1.
         -5    1    3    3    0  502 -0.49821145626E+02 -0.23433381070E+02 -0.64430388624E+01  0.55590062508E+02  0.41800000000E+01 0.  1.
        -11    1    1    2    0    0  0.76049352350E+02 -0.37052800327E+02 -0.14193069531E+03  0.16522934448E+03  0.00000000000E+00 0.  1.
         11    1    1    2    0    0 -0.24210715266E+02 -0.33360221243E+02 -0.82664059889E+02  0.92371044665E+02  0.00000000000E+00 0. -1.
</event>
<event>
 7    1  0.2626349E-009  0.1217761E+03  0.7561462E-02  0.1240196E+00
         -2   -1    0    0    0  501 -0.00000000000E+00  0.00000000000E+00  0.13670769531E+03  0.13670769531E+03  0.00000000000E+00 0. -1.
          2   -1    0    0  501    0  0.00000000000E+00 -0.00000000000E+00 -0.13991567185E+03  0.13991567185E+03  0.00000000000E+00 0.  1.
         25    2    1    2    0    0  0.20259849849E+02  0.64941554911E+02  0.47220815590E+02  0.15002082121E+03  0.12509426167E+03 0.  0.
          5    1    3    3  502    0  0.18459046275E+02 -0.28420218975E+02 -0.15454860725E+02  0.37480266221E+02  0.41800000000E+01 0.  1.
         -5    1    3    3    0  502  0.18008035745E+01  0.93361773885E+02  0.62675676315E+02  0.11254055499E+03  0.41800000000E+01 0.  1.
        -11    1    1    2    0    0 -0.27659025363E+02  0.17780832275E+02 -0.17616747235E+02  0.37303209829E+02  0.00000000000E+00 0. -1.
         11    1    1    2    0    0  0.73991755135E+01 -0.82722387186E+02 -0.32812044898E+02  0.89299336114E+02  0.00000000000E+00 0.  1.
</event>
<event>
 7    1  0.2768423E-009  0.1270258E+03  0.7561462E-02  0.1231937E+00
         -1   -1    0    0    0  501 -0.00000000000E+00  0.00000000000E+00  0.67626614086E+02  0.67626614086E+02  0.00000000000E+00 0.  1.
          1   -1    0    0  501    0  0.00000000000E+00 -0.00000000000E+00 -0.32905021650E+03  0.32905021650E+03  0.00000000000E+00 0. -1.
         25    2    1    2    0    0  0.86618742487E+02  0.43939531006E+02 -0.99565709626E+02  0.18706987754E+03  0.12509324367E+03 0.  0.
          5    1    3    3  502    0  0.83927790296E+02  0.82561365593E+02 -0.62716906719E+02  0.13345836752E+03  0.41800000000E+01 0.  1.
         -5    1    3    3    0  502  0.26909521902E+01 -0.38621834587E+02 -0.36848802907E+02  0.53611510016E+02  0.41800000000E+01 0.  1.
        -11    1    1    2    0    0 -0.63444761208E+02 -0.35082995301E+02 -0.35291675584E+02  0.80632230836E+02  0.00000000000E+00 0.  1.
         11    1    1    2    0    0 -0.23173981278E+02 -0.88565357052E+01 -0.12656621720E+03  0.12897472221E+03  0.00000000000E+00 0. -1.
</event>
<event>
 7    1  0.2626349E-009  0.1715269E+03  0.7561462E-02  0.1176265E+00
         -4   -1    0    0    0  501 -0.00000000000E+00  0.00000000000E+00  0.10460136509E+03  0.10460136509E+03  0.00000000000E+00 0.  1.
          4   -1    0    0  501    0  0.00000000000E+00 -0.00000000000E+00 -0.41052223846E+03  0.41052223846E+03  0.00000000000E+00 0. -1.
         25    2    1    2    0    0 -0.47786967659E+02  0.14073299300E+03 -0.40625769827E+02  0.19846407149E+03  0.12509262529E+03 0.  0.
          5    1    3    3  502    0  0.41748269897E+02  0.61880000402E+02 -0.19007067997E+02  0.77141386577E+02  0.41800000000E+01 0. -1.
         -5    1    3    3    0  502 -0.89535237556E+02  0.78852992600E+02 -0.21618701830E+02  0.12132268492E+03  0.41800000000E+01 0. -1.
        -11    1    1    2    0    0  0.82811601471E+01 -0.36834040764E+02 -0.11302775305E+02  0.39409096691E+02  0.00000000000E+00 0.  1.
         11    1    1    2    0    0  0.39505807512E+02 -0.10389895224E+03 -0.25399232824E+03  0.27725043536E+03  0.00000000000E+00 0. -1.
</event>
<event>
 7    1  0.2626349E-009  0.1442677E+03  0.7561462E-02  0.1207699E+00
         -2   -1    0    0    0  501 -0.00000000000E+00  0.00000000000E+00  0.49593589627E+02  0.49593589627E+02  0.00000000000E+00 0.  1.
          2   -1    0    0  501    0  0.00000000000E+00 -0.00000000000E+00 -0.57010548743E+03  0.57010548743E+03  0.00000000000E+00 0. -1.
         25    2    1    2    0    0 -0.22223915933E+02 -0.12180592553E+03 -0.20890305991E+03  0.27316447648E+03  0.12509099423E+03 0.  0.
          5    1    3    3  502    0  0.21021730552E+02 -0.81644556302E+02 -0.19485648794E+03  0.21235411468E+03  0.41800000000E+01 0.  1.
         -5    1    3    3    0  502 -0.43245646486E+02 -0.40161369232E+02 -0.14046571970E+02  0.60810361804E+02  0.41800000000E+01 0.  1.
        -11    1    1    2    0    0 -0.30674220452E+01 -0.10148689999E+02 -0.48824788135E+01  0.11672342783E+02  0.00000000000E+00 0. -1.
         11    1    1    2    0    0  0.25291337979E+02  0.13195461553E+03 -0.30672635908E+03  0.33486225779E+03  0.00000000000E+00 0.  1.
</event>
<event>
 7    1  0.2626349E-009  0.9253832E+02  0.7561462E-02  0.1296819E+00
          2   -1    0    0  501    0  0.00000000000E+00  0.00000000000E+00  0.30833532497E+02  0.30833532497E+02  0.00000000000E+00 0. -1.
         -2   -1    0    0    0  501 -0.00000000000E+00 -0.00000000000E+00 -0.54668522885E+03  0.54668522885E+03  0.00000000000E+00 0.  1.
         25    2    1    2    0    0 -0.21584724203E+02 -0.64902294547E+02 -0.33365798935E+03  0.36284100417E+03  0.12509089612E+03 0.  0.
          5    1    3    3  502    0  0.70840678429E+01 -0.63780623214E+02 -0.60973226439E+02  0.88619177706E+02  0.41800000000E+01 0. -1.
         -5    1    3    3    0  502 -0.28668792046E+02 -0.11216713331E+01 -0.27268476291E+03  0.27422182646E+03  0.41800000000E+01 0. -1.
        -11    1    1    2    0    0 -0.20218428239E+02  0.34848231372E+02 -0.14672916075E+03  0.15215988527E+03  0.00000000000E+00 0.  1.
         11    1    1    2    0    0  0.41803152442E+02  0.30054063175E+02 -0.35464546251E+02  0.62517871910E+02  0.00000000000E+00 0. -1.
</event>
<event>
 7    1  0.2626349E-009  0.1024663E+03  0.7561462E-02  0.1275193E+00
          1   -1    0    0  501    0  0.00000000000E+00  0.00000000000E+00  0.95650688289E+03  0.95650688289E+03  0.00000000000E+00 0. -1.
         -1   -1    0    0    0  501 -0.00000000000E+00 -0.00000000000E+00 -0.13745820237E+02  0.13745820237E+02  0.00000000000E+00 0.  1.
         25    2    1    2    0    0  0.47563435109E+01 -0.31933732962E+01  0.71050387138E+03  0.72145512239E+03  0.12509565115E+03 0.  0.
          5    1    3    3  502    0 -0.55628823520E+02 -0.22866494467E+02  0.29420266496E+03  0.30031670457E+03  0.41800000000E+01 0. -1.
         -5    1    3    3    0  502  0.60385167030E+02  0.19673121171E+02  0.41630120642E+03  0.42113841782E+03  0.41800000000E+01 0. -1.
        -11    1    1    2    0    0  0.15716854727E+02 -0.34606224588E+02  0.58207786389E+02  0.69518031467E+02  0.00000000000E+00 0.  1.
         11    1    1    2    0    0 -0.20473198237E+02  0.37799597885E+02  0.17404940488E+03  0.17927954927E+03  0.00000000000E+00 0. -1.
</event>
<event>
 7    1  0.2626349E-009  0.1763954E+03  0.7561462E-02  0.1171338E+00
          1   -1    0    0  501    0  0.00000000000E+00  0.00000000000E+00  0.79506299740E+03  0.79506299740E+03  0.00000000000E+00 0. -1.
         -1   -1    0    0    0  501 -0.00000000000E+00 -0.00000000000E+00 -0.47189271428E+02  0.47189271428E+02  0.00000000000E+00 0.  1.
         25    2    1    2    0    0 -0.11596893401E+03  0.10715498657E+03  0.44063740854E+03  0.48449988238E+03  0.12509126838E+03 0.  0.
          5    1    3    3  502    0 -0.10925405685E+03  0.65473173351E+02  0.41677604390E+03  0.43582442398E+03  0.41800000000E+01 0.  1.
         -5    1    3    3    0  502 -0.67148771523E+01  0.41681813222E+02  0.23861364640E+02  0.48675458407E+02  0.41800000000E+01 0.  1.
        -11    1    1    2    0    0  0.85818747559E+02 -0.16501945823E+02  0.13566338913E+03  0.16137449241E+03  0.00000000000E+00 0.  1.
         11    1    1    2    0    0  0.30150186447E+02 -0.90653040751E+02  0.17157292830E+03  0.19637789403E+03  0.00000000000E+00 0. -1.
</event>
<event>
 7    1  0.2626349E-009  0.1256001E+03  0.7561462E-02  0.1234134E+00
          1   -1    0    0  501    0  0.00000000000E+00  0.00000000000E+00  0.57780137033E+03  0.57780137033E+03  0.00000000000E+00 0. -1.
         -1   -1    0    0    0  501 -0.00000000000E+00 -0.00000000000E+00 -0.29271651775E+02  0.29271651775E+02  0.00000000000E+00 0.  1.
         25    2    1    2    0    0  0.13209878458E+02  0.66472296309E+02  0.34374758147E+03  0.37202475876E+03  0.12508778636E+03 0.  0.
          5    1    3    3  502    0 -0.15484380269E+02 -0.31898269917E+02  0.54682724288E+02  0.65306495784E+02  0.41800000000E+01 0.  1.
         -5    1    3    3    0  502  0.28694258726E+02  0.98370566226E+02  0.28906485719E+03  0.30671826298E+03  0.41800000000E+01 0.  1.
        -11    1    1    2    0    0 -0.50170816082E+01  0.22773873125E+02  0.25134271037E+02  0.34286323593E+02  0.00000000000E+00 0.  1.
         11    1    1    2    0    0 -0.81927968494E+01 -0.89246169434E+02  0.17964786604E+03  0.20076193975E+03  0.00000000000E+00 0. -1.
</event>
<event>
 7    1  0.2626349E-009  0.1085181E+03  0.7561462E-02  0.1263339E+00
         -1   -1    0    0    0  501 -0.00000000000E+00  0.00000000000E+00  0.62449286406E+02  0.62449286406E+02  0.00000000000E+00 0.  1.
          1   -1    0    0  501    0  0.00000000000E+00 -0.00000000000E+00 -0.21983287539E+03  0.21983287539E+03  0.00000000000E+00 0. -1.
         25    2    1    2    0    0 -0.26893087112E+02 -0.77658829265E+01 -0.56190685404E+02  0.13996197686E+03  0.12509362402E+03 0.  0.
          5    1    3    3  502    0 -0.65578652500E+02 -0.38142521514E+02 -0.19459729204E+02  0.78431913606E+02  0.41800000000E+01 0. -1.
         -5    1    3    3    0  502  0.38685565388E+02  0.30376638588E+02 -0.36730956200E+02  0.61530063259E+02  0.41800000000E+01 0. -1.
        -11    1    1    2    0    0  0.47449508887E+02 -0.24526020588E+02 -0.85787678475E+02  0.10105695106E+03  0.00000000000E+00 0.  1.
         11    1    1    2    0    0 -0.20556421775E+02  0.32291903514E+02 -0.15405225101E+02  0.41263233867E+02  0.00000000000E+00 0. -1.
</event>
<event>
 7    1  0.3468107E-009  0.1113345E+03  0.7561462E-02  0.1258118E+00
         -1   -1    0    0    0  501 -0.00000000000E+00  0.00000000000E+00  0.44548100837E+02  0.44548100837E+02  0.00000000000E+00 0.  1.
          1   -1    0    0  501    0  0.00000000000E+00 -0.00000000000E+00 -0.36202434913E+03  0.36202434913E+03  0.00000000000E+00 0. -1.
         25    2    1    2    0    0 -0.46258161493E+02  0.15561607095E+02 -0.10537682090E+03  0.17068618615E+03  0.12509004214E+03 0.  0.
          5    1    3    3  502    0 -0.69889709644E+02 -0.28567037117E+02 -0.91240408015E+02  0.11850287582E+03  0.41800000000E+01 0.  1.
         -5    1    3    3    0  502  0.23631548151E+02  0.44128644212E+02 -0.14136412881E+02  0.52183310331E+02  0.41800000000E+01 0.  1.
        -11    1    1    2    0    0  0.35148662165E+02  0.32268906206E+02 -0.14562151717E+03  0.15323947606E+03  0.00000000000E+00 0. -1.
         11    1    1    2    0    0  0.11109499328E+02 -0.47830513302E+02 -0.66477910228E+02  0.82646787756E+02  0.00000000000E+00 0.  1.
</event>
<event>
 7    1  0.2626349E-009  0.1359046E+03  0.7561462E-02  0.1218948E+00
          1   -1    0    0  501    0  0.00000000000E+00  0.00000000000E+00  0.59265606055E+03  0.59265606055E+03  0.00000000000E+00 0. -1.
         -1   -1    0    0    0  501 -0.00000000000E+00 -0.00000000000E+00 -0.36978765715E+02  0.36978765715E+02  0.00000000000E+00 0.  1.
         25    2    1    2    0    0 -0.69651948963E+02 -0.69081651618E+02  0.34600941803E+03  0.38078059095E+03  0.12509065709E+03 0.  0.
          5    1    3    3  502    0  0.99770081236E+01  0.18560965986E+02  0.85466729506E+01  0.23120730264E+02  0.41800000000E+01 0. -1.
         -5    1    3    3    0  502 -0.79628957087E+02 -0.87642617604E+02  0.33746274508E+03  0.35765986068E+03  0.41800000000E+01 0. -1.
        -11    1    1    2    0    0 -0.20025926058E+02  0.24641092893E+02  0.71612629459E+02  0.78336389191E+02  0.00000000000E+00 0. -1.
         11    1    1    2    0    0  0.89677875021E+02  0.44440558725E+02  0.13805524735E+03  0.17051784613E+03  0.00000000000E+00 0.  1.
</event>
<event>
 7    1  0.2626349E-009  0.6658895E+02  0.7561462E-02  0.1372092E+00
         -2   -1    0    0    0  501 -0.00000000000E+00  0.00000000000E+00  0.41538698309E+02  0.41538698309E+02  0.00000000000E+00 0.  1.
          2   -1    0    0  501    0  0.00000000000E+00 -0.00000000000E+00 -0.37920806388E+03  0.37920806388E+03  0.00000000000E+00 0. -1.
         25    2    1    2    0    0  0.32468358255E+01  0.49829245885E+02 -0.25317770853E+03  0.28677558330E+03  0.12509111635E+03 0.  0.
          5    1    3    3  502    0  0.18965880828E+02  0.92174565472E+01 -0.24017652338E+03  0.24113668515E+03  0.41800000000E+01 0.  1.
         -5    1    3    3    0  502 -0.15719045002E+02  0.40611789338E+02 -0.13001185152E+02  0.45638898150E+02  0.41800000000E+01 0.  1.
        -11    1    1    2    0    0  0.20599971844E+02 -0.14051861616E+02 -0.87389133492E+02  0.90877248569E+02  0.00000000000E+00 0. -1.
         11    1    1    2    0    0 -0.23846807670E+02 -0.35777384269E+02  0.28974764500E+01  0.43093930326E+02  0.00000000000E+00 0.  1.
</event>
<event>
 7    1  0.2626349E-009  0.1047619E+03  0.7561462E-02  0.1270590E+00
         -2   -1    0    0    0  501 -0.00000000000E+00  0.00000000000E+00  0.89652717958E+02  0.89652717958E+02  0.00000000000E+00 0.  1.
          2   -1    0    0  501    0  0.00000000000E+00 -0.00000000000E+00 -0.23274331913E+03  0.23274331913E+03  0.00000000000E+00 0. -1.
         25    2    1    2    0    0 -0.40550462128E+02 -0.58916819939E+02 -0.14722901523E+03  0.20600754818E+03  0.12508874981E+03 0.  0.
          5    1    3    3  502    0  0.85046308178E+01 -0.61831289668E+02 -0.14219860129E+02  0.64149153926E+02  0.41800000000E+01 0.  1.
         -5    1    3    3    0  502 -0.49055092946E+02  0.29144697282E+01 -0.13300915511E+03  0.14185839425E+03  0.41800000000E+01 0.  1.
        -11    1    1    2    0    0  0.57214124013E+02  0.30826096045E+02 -0.27818698713E+02  0.70693593642E+02  0.00000000000E+00 0. -1.
         11    1    1    2    0    0 -0.16663661885E+02  0.28090723895E+02  0.31957112778E+02  0.45694895267E+02  0.00000000000E+00 0.  1.
</event>
<event>
 7    1  0.2626349E-009  0.1124512E+03  0.7561462E-02  0.1256097E+00
          2   -1    0    0  501    0  0.00000000000E+00  0.00000000000E+00  0.59354810357E+03  0.59354810357E+03  0.00000000000E+00 0. -1.
         -2   -1    0    0    0  501 -0.00000000000E+00 -0.00000000000E+00 -0.31600320550E+02  0.31600320550E+02  0.00000000000E+00 0.  1.
         25    2    1    2    0    0  0.21542200478E+02 -0.52420376261E+02  0.44397218155E+03  0.46472624707E+03  0.12508886632E+03 0.  0.
          5    1    3    3  502    0  0.55854347511E+02 -0.67773702158E+02  0.20917462622E+03  0.22690191602E+03  0.41800000000E+01 0.  1.
         -5    1    3    3    0  502 -0.34312147033E+02  0.15353325897E+02  0.23479755533E+03  0.23782433105E+03  0.41800000000E+01 0.  1.
        -11    1    1    2    0    0 -0.44518877865E+02  0.60223281846E+02  0.54955294194E+02  0.92891649370E+02  0.00000000000E+00 0.  1.
         11    1    1    2    0    0  0.22976677387E+02 -0.78029055855E+01  0.63020307274E+02  0.67530527676E+02  0.00000000000E+00 0. -1.
</event>
<event>
 7    1  0.2626349E-009  0.1455476E+03  0.7561462E-02  0.1206053E+00
          1   -1    0    0  501    0  0.00000000000E+00  0.00000000000E+00  0.16066501646E+03  0.16066501646E+03  0.00000000000E+00 0. -1.
         -1   -1    0    0    0  501 -0.00000000000E+00 -0.00000000000E+00 -0.17990407138E+03  0.17990407138E+03  0.00000000000E+00 0.  1.
         25    2    1    2    0    0 -0.13102222375E+03 -0.51864162592E+00 -0.18983446973E+02  0.18214065186E+03  0.12509098167E+03 0.  0.
          5    1    3    3  502    0 -0.11920630071E+03  0.47336746411E+01  0.36648882456E+02  0.12487258623E+03  0.41800000000E+01 0. -1.
         -5    1    3    3    0  502 -0.11815923033E+02 -0.52523162670E+01 -0.55632329429E+02  0.57268065630E+02  0.41800000000E+01 0. -1.
        -11    1    1    2    0    0  0.55948983139E+02  0.44176798713E+02  0.47021080138E+01  0.71442200964E+02  0.00000000000E+00 0. -1.
         11    1    1    2    0    0  0.75073240608E+02 -0.43658157088E+02 -0.49577159609E+01  0.86986235021E+02  0.00000000000E+00 0.  1.
</event>
<event>
 7    1  0.3918215E-009  0.9792281E+02  0.7561462E-02  0.1284726E+00
         -1   -1    0    0    0  501 -0.00000000000E+00  0.00000000000E+00  0.19842495402E+02  0.19842495402E+02  0.00000000000E+00 0.  1.
          1   -1    0    0  501    0  0.00000000000E+00 -0.00000000000E+00 -0.65889019893E+03  0.65889019893E+03  0.00000000000E+00 0. -1.
         25    2    1    2    0    0  0.50408274435E+01 -0.71104000580E+00 -0.25712293620E+03  0.28598145182E+03  0.12508905206E+03 0.  0.
          5    1    3    3  502    0 -0.39476934381E+02 -0.31976854797E+02 -0.48568454891E+02  0.70408201236E+02  0.41800000000E+01 0.  1.
         -5    1    3    3    0  502  0.44517761825E+02  0.31265814791E+02 -0.20855448131E+03  0.21557325058E+03  0.41800000000E+01 0.  1.
        -11    1    1    2    0    0  0.34891336259E+02  0.25583337055E+02 -0.21575764244E+03  0.22005288626E+03  0.00000000000E+00 0. -1.
         11    1    1    2    0    0 -0.39932163703E+02 -0.24872297050E+02 -0.16616712489E+03  0.17269835625E+03  0.00000000000E+00 0.  1.
</event>
<event>
 7    1  0.2626349E-009  0.7690422E+02  0.7561462E-02  0.1338074E+00
          2   -1    0    0  501    0  0.00000000000E+00  0.00000000000E+00  0.44700078513E+02  0.44700078513E+02  0.00000000000E+00 0.  1.
         -2   -1    0    0    0  501 -0.00000000000E+00 -0.00000000000E+00 -0.34785729907E+03  0.34785729907E+03  0.00000000000E+00 0. -1.
         25    2    1    2    0    0 -0.30134756436E+02 -0.19646093943E+02 -0.89082244522E+02  0.15772325642E+03  0.12508759640E+03 0.  0.
          5    1    3    3  502    0 -0.24284161379E+02 -0.34883908663E+02  0.20132470338E+02  0.47216483768E+02  0.41800000000E+01 0.  1.
         -5    1    3    3    0  502 -0.58505950569E+01  0.15237814720E+02 -0.10921471486E+03  0.11050677265E+03  0.41800000000E+01 0.  1.
        -11    1    1    2    0    0  0.68252404196E+01 -0.34569047522E+02 -0.56685273178E+02  0.66744461557E+02  0.00000000000E+00 0.  1.
         11    1    1    2    0    0  0.23309516016E+02  0.54215141465E+02 -0.15738970286E+03  0.16808965961E+03  0.00000000000E+00 0. -1.
</event>
<event>
 7    1  0.2626349E-009  0.1831659E+03  0.7561462E-02  0.1164774E+00
          1   -1    0    0  501    0  0.00000000000E+00  0.00000000000E+00  0.17320524112E+04  0.17320524112E+04  0.00000000000E+00 0. -1.
         -1   -1    0    0    0  501 -0.00000000000E+00 -0.00000000000E+00 -0.23924297662E+02  0.23924297662E+02  0.00000000000E+00 0.  1.
         25    2    1    2    0    0 -0.13555551742E+03  0.96070631726E+02  0.10918054510E+04  0.11114366583E+04  0.12508971936E+03 0.  0.
          5    1    3    3  502    0 -0.37710337285E+02  0.70730332911E+02  0.76836390012E+03  0.77254475919E+03  0.41800000000E+01 0. -1.
         -5    1    3    3    0  502 -0.97845180132E+02  0.25340298815E+02  0.32344155088E+03  0.33889189907E+03  0.41800000000E+01 0. -1.
        -11    1    1    2    0    0  0.40075097830E+02  0.10892205485E+02  0.91477778407E+02  0.10046311536E+03  0.00000000000E+00 0.  1.
         11    1    1    2    0    0  0.95480419587E+02 -0.10696283721E+03  0.52484488412E+03  0.54407693524E+03  0.00000000000E+00 0. -1.
</event>
<event>
 7    1  0.2626349E-009  0.1285613E+03  0.7561462E-02  0.1229606E+00
         -2   -1    0    0    0  501 -0.00000000000E+00  0.00000000000E+00  0.83886409021E+02  0.83886409021E+02  0.00000000000E+00 0.  1.
          2   -1    0    0  501    0  0.00000000000E+00 -0.00000000000E+00 -0.20423904044E+03  0.20423904044E+03  0.00000000000E+00 0. -1.
         25    2    1    2    0    0 -0.73055861475E+02 -0.18247360370E+01 -0.70456502643E+02  0.16111112535E+03  0.12510870229E+03 0.  0.
          5    1    3    3  502    0 -0.10619929148E+03  0.43337977013E+01 -0.69627789245E+02  0.12713210746E+03  0.41800000000E+01 0. -1.
         -5    1    3    3    0  502  0.33143430004E+02 -0.61585337383E+01 -0.82871339794E+00  0.33979017881E+02  0.41800000000E+01 0. -1.
        -11    1    1    2    0    0  0.10924613332E+02  0.41600648533E+02 -0.19495802360E+02  0.47223378156E+02  0.00000000000E+00 0.  1.
         11    1    1    2    0    0  0.62131248143E+02 -0.39775912496E+02 -0.30400326414E+02  0.79790945957E+02  0.00000000000E+00 0. -1.
</event>
<event>
 7    1  0.2626349E-009  0.8315451E+02  0.7561462E-02  0.1320330E+00
          1   -1    0    0  501    0  0.00000000000E+00  0.00000000000E+00  0.18096873000E+03  0.18096873000E+03  0.00000000000E+00 0. -1.
         -1   -1    0    0    0  501 -0.00000000000E+00 -0.00000000000E+00 -0.10225001064E+03  0.10225001064E+03  0.00000000000E+00 0.  1.
         25    2    1    2    0    0 -0.14568953013E+02 -0.55054963145E+02 -0.17221837543E+02  0.13852386117E+03  0.12509582353E+03 0.  0.
          5    1    3    3  502    0 -0.99499203707E+01 -0.44309218597E+02 -0.70418677699E+02  0.83896187857E+02  0.41800000000E+01 0. -1.
         -5    1    3    3    0  502 -0.46190326421E+01 -0.10745744548E+02  0.53196840157E+02  0.54627673308E+02  0.41800000000E+01 0. -1.
        -11    1    1    2    0    0  0.53644762605E+02  0.37457813268E+02  0.59655242244E+02  0.88541494549E+02  0.00000000000E+00 0.  1.
         11    1    1    2    0    0 -0.39075809593E+02  0.17597149877E+02  0.36285314656E+02  0.56153384928E+02  0.00000000000E+00 0. -1.
</event>
<event>
 7    1  0.2626349E-009  0.1079456E+03  0.7561462E-02  0.1264422E+00
          2   -1    0    0  501    0  0.00000000000E+00  0.00000000000E+00  0.51921004962E+03  0.51921004962E+03  0.00000000000E+00 0. -1.
         -2   -1    0    0    0  501 -0.00000000000E+00 -0.00000000000E+00 -0.36039859131E+02  0.36039859131E+02  0.00000000000E+00 0.  1.
         25    2    1    2    0    0 -0.72971544617E+01  0.82809330808E+02  0.26211131557E+03  0.30209179622E+03  0.12508588195E+03 0.  0.
          5    1    3    3  502    0 -0.24455407555E+02 -0.17696772984E+02  0.13459448059E+02  0.33314739603E+02  0.41800000000E+01 0. -1.
         -5    1    3    3    0  502  0.17158253094E+02  0.10050610379E+03  0.24865186751E+03  0.26877705662E+03  0.41800000000E+01 0. -1.
        -11    1    1    2    0    0  0.54636543850E+01 -0.27866799220E+02  0.33246234452E+01  0.28591312301E+02  0.00000000000E+00 0.  1.
         11    1    1    2    0    0  0.18335000768E+01 -0.54942531588E+02  0.21773425147E+03  0.22456680022E+03  0.00000000000E+00 0. -1.
</event>
<event>
 7    1  0.2626349E-009  0.1662330E+03  0.7561462E-02  0.1181834E+00
         -2   -1    0    0    0  501 -0.00000000000E+00  0.00000000000E+00  0.24843745698E+02  0.24843745698E+02  0.00000000000E+00 0.  1.
          2   -1    0    0  501    0  0.00000000000E+00 -0.00000000000E+00 -0.11730915221E+04  0.11730915221E+04  0.00000000000E+00 0. -1.
         25    2    1    2    0    0  0.26730391023E+02  0.12630093927E+03 -0.52225470029E+03  0.55232619498E+03  0.12509121721E+03 0.  0.
          5    1    3    3  502    0  0.49274911923E+02  0.32608513412E+01 -0.21332898156E+03  0.21900999262E+03  0.41800000000E+01 0. -1.
         -5    1    3    3    0  502 -0.22544520900E+02  0.12304008793E+03 -0.30892571873E+03  0.33331620236E+03  0.41800000000E+01 0. -1.
        -11    1    1    2    0    0 -0.50450505808E+02 -0.30277531936E+02 -0.24888917821E+03  0.25574949757E+03  0.00000000000E+00 0. -1.
         11    1    1    2    0    0  0.23720114785E+02 -0.96023407332E+02 -0.37710389794E+03  0.38985957528E+03  0.00000000000E+00 0.  1.
</event>
<event>
 7    1  0.2626349E-009  0.1609962E+03  0.7561462E-02  0.1187577E+00
          1   -1    0    0  501    0  0.00000000000E+00  0.00000000000E+00  0.14353957833E+02  0.14353957833E+02  0.00000000000E+00 0. -1.
         -1   -1    0    0    0  501 -0.00000000000E+00 -0.00000000000E+00 -0.19302769584E+04  0.19302769584E+04  0.00000000000E+00 0.  1.
         25    2    1    2    0    0  0.12647014569E+02  0.12879551060E+03 -0.11101006081E+04  0.11245982176E+04  0.12509820321E+03 0.  0.
          5    1    3    3  502    0  0.53013391390E+02  0.24686405213E+02 -0.57337798565E+03  0.57636761281E+03  0.41800000000E+01 0.  1.
         -5    1    3    3    0  502 -0.40366376822E+02  0.10410910539E+03 -0.53672262248E+03  0.54823060484E+03  0.41800000000E+01 0.  1.
        -11    1    1    2    0    0  0.24348364096E+02 -0.10465445644E+03 -0.59639023074E+03  0.60599233115E+03  0.00000000000E+00 0.  1.
         11    1    1    2    0    0 -0.36995378665E+02 -0.24141054160E+02 -0.20943216173E+03  0.21404036747E+03  0.00000000000E+00 0. -1.
</event>
<event>
 7    1  0.2978720E-009  0.2289185E+03  0.7561462E-02  0.1127403E+00
          2   -1    0    0  501    0  0.00000000000E+00  0.00000000000E+00  0.20775701405E+04  0.20775701405E+04  0.00000000000E+00 0. -1.
         -2   -1    0    0    0  501 -0.00000000000E+00 -0.00000000000E+00 -0.28844565722E+02  0.28844565722E+02  0.00000000000E+00 0.  1.
         25    2    1    2    0    0 -0.16543638304E+03 -0.13638703100E+03  0.12458963287E+04  0.12703839338E+04  0.12508820202E+03 0.  0.
          5    1    3    3  502    0 -0.16684393524E+03 -0.14715148842E+03  0.10107920649E+04  0.10349920435E+04  0.41800000000E+01 0. -1.
         -5    1    3    3    0  502  0.14075522056E+01  0.10764457423E+02  0.23510426382E+03  0.23539189029E+03  0.41800000000E+01 0. -1.
        -11    1    1    2    0    0  0.12141636061E+03  0.59753457980E+02  0.59494062569E+03  0.61013667031E+03  0.00000000000E+00 0.  1.
         11    1    1    2    0    0  0.44020022430E+02  0.76633573017E+02  0.20788862035E+03  0.22589410209E+03  0.00000000000E+00 0. -1.
</event>
<event>
 7    1  0.2626349E-009  0.9072789E+02  0.7561462E-02  0.1301099E+00
          2   -1    0    0  501    0  0.00000000000E+00  0.00000000000E+00  0.30625976736E+03  0.30625976736E+03  0.00000000000E+00 0. -1.
         -2   -1    0    0    0  501 -0.00000000000E+00 -0.00000000000E+00 -0.45325749012E+02  0.45325749012E+02  0.00000000000E+00 0.  1.
         25    2    1    2    0    0 -0.80771769819E+01 -0.36560588520E+02  0.17253304948E+03  0.21637225350E+03  0.12508949397E+03 0.  0.
          5    1    3    3  502    0 -0.32618548744E+02  0.56594561699E+01 -0.35855003154E+01  0.33560801224E+02  0.41800000000E+01 0.  1.
         -5    1    3    3    0  502  0.24541371762E+02 -0.42220044690E+02  0.17611854980E+03  0.18281145228E+03  0.41800000000E+01 0.  1.
        -11    1    1    2    0    0  0.49879717625E+02  0.15287531864E+02  0.63256782508E+02  0.81994605884E+02  0.00000000000E+00 0. -1.
         11    1    1    2    0    0 -0.41802540643E+02  0.21273056656E+02  0.25144186358E+02  0.53218656985E+02  0.00000000000E+00 0.  1.
</event>
<event>
 7    1  0.2626349E-009  0.6701542E+02  0.7561462E-02  0.1370547E+00
          1   -1    0    0  501    0  0.00000000000E+00  0.00000000000E+00  0.66641511966E+03  0.66641511966E+03  0.00000000000E+00 0. -1.
         -1   -1    0    0    0  501 -0.00000000000E+00 -0.00000000000E+00 -0.22251608661E+02  0.22251608661E+02  0.00000000000E+00 0.  1.
         25    2    1    2    0    0  0.41258201485E+02  0.57572456627E+00  0.52299352069E+03  0.53932418241E+03  0.12508309401E+03 0.  0.
          5    1    3    3  502    0  0.17681319000E+01  0.33938608055E+02  0.36398261135E+02  0.49972604703E+02  0.41800000000E+01 0. -1.
         -5    1    3    3    0  502  0.39490069585E+02 -0.33362883489E+02  0.48659525955E+03  0.48935157771E+03  0.41800000000E+01 0. -1.
        -11    1    1    2    0    0 -0.15181892688E+02  0.11638380660E+02 -0.51268561661E+01  0.19804707121E+02  0.00000000000E+00 0.  1.
         11    1    1    2    0    0 -0.26076308797E+02 -0.12214105227E+02  0.12629684648E+03  0.12953783879E+03  0.00000000000E+00 0. -1.
</event>
<event>
 7    1  0.2626349E-009  0.1195422E+03  0.7561462E-02  0.1243854E+00
         -2   -1    0    0    0  501 -0.00000000000E+00  0.00000000000E+00  0.14644267180E+03  0.14644267180E+03  0.00000000000E+00 0.  1.
          2   -1    0    0  501    0  0.00000000000E+00 -0.00000000000E+00 -0.11830077602E+03  0.11830077602E+03  0.00000000000E+00 0. -1.
         25    2    1    2    0    0  0.16671257828E+02 -0.52445040114E+02  0.66169034458E+02  0.15184145418E+03  0.12509625500E+03 0.  0.
          5    1    3    3  502    0 -0.52629266936E+02 -0.39749831446E+02  0.31592436238E+02  0.73249186110E+02  0.41800000000E+01 0.  1.
         -5    1    3    3    0  502  0.69300524764E+02 -0.12695208668E+02  0.34576598220E+02  0.78592268068E+02  0.41800000000E+01 0.  1.
        -11    1    1    2    0    0  0.24178198486E+02 -0.11316969315E+02  0.28518483321E+01  0.26847571872E+02  0.00000000000E+00 0. -1.
         11    1    1    2    0    0 -0.40849456314E+02  0.63762009429E+02 -0.40878987009E+02  0.86054421772E+02  0.00000000000E+00 0.  1.
</event>
<event>
 7    1  0.2626349E-009  0.1311563E+03  0.7561462E-02  0.1225750E+00
          2   -1    0    0  501    0  0.00000000000E+00  0.00000000000E+00  0.84700594163E+03  0.84700594163E+03  0.00000000000E+00 0.  1.
         -2   -1    0    0    0  501 -0.00000000000E+00 -0.00000000000E+00 -0.31487907644E+02  0.31487907644E+02  0.00000000000E+00 0. -1.
         25    2    1    2    0    0 -0.22418016714E+02 -0.94466809407E+02  0.31262085103E+03  0.35043522103E+03  0.12508597876E+03 0.  0.
          5    1    3    3  502    0 -0.94579030074E+01 -0.22335721709E+01 -0.10033780224E+02  0.14580463625E+02  0.41800000000E+01 0.  1.
         -5    1    3    3    0  502 -0.12960113707E+02 -0.92233237237E+02  0.32265463126E+03  0.33585475740E+03  0.41800000000E+01 0.  1.
        -11    1    1    2    0    0 -0.47115041775E+02  0.70812506436E+02  0.31604291313E+03  0.32728788729E+03  0.00000000000E+00 0.  1.
         11    1    1    2    0    0  0.69533058489E+02  0.23654302971E+02  0.18685426982E+03  0.20077074095E+03  0.00000000000E+00 0. -1.
</event>
<event>
 7    1  0.2626349E-009  0.1060836E+03  0.7561462E-02  0.1267999E+00
          2   -1    0    0  501    0  0.00000000000E+00  0.00000000000E+00  0.11604123797E+03  0.11604123797E+03  0.00000000000E+00 0. -1.
         -2   -1    0    0    0  501 -0.00000000000E+00 -0.00000000000E+00 -0.11432487941E+03  0.11432487941E+03  0.00000000000E+00 0.  1.
         25    2    1    2    0    0  0.33226017333E+02 -0.48307846665E+02 -0.18837676224E+02  0.13942800477E+03  0.12509074383E+03 0.  0.
          5    1    3    3  502    0  0.33155703467E+02  0.38261611492E+02 -0.13649109340E+02  0.52602492071E+02  0.41800000000E+01 0. -1.
         -5    1    3    3    0  502  0.70313865363E-01 -0.86569458156E+02 -0.51885668835E+01  0.86825512701E+02  0.41800000000E+01 0. -1.
        -11    1    1    2    0    0 -0.37454332324E+02  0.13777788607E+02  0.35180119768E+02  0.53200519693E+02  0.00000000000E+00 0. -1.
         11    1    1    2    0    0  0.42283149912E+01  0.34530058058E+02 -0.14626084986E+02  0.37737592917E+02  0.00000000000E+00 0.  1.
</event>
<event>
 7    1  0.2626349E-009  0.9622724E+02  0.7561462E-02  0.1288436E+00
         -2   -1    0    0    0  501 -0.00000000000E+00  0.00000000000E+00  0.29848044137E+02  0.29848044137E+02  0.00000000000E+00 0. -1.
          2   -1    0    0  501    0  0.00000000000E+00 -0.00000000000E+00 -0.51778669149E+03  0.51778669149E+03  0.00000000000E+00 0.  1.
         25    2    1    2    0    0 -0.27640442970E+02 -0.30584517329E+02 -0.33131385251E+03  0.35653531807E+03  0.12509659220E+03 0.  0.
          5    1    3    3  502    0  0.25539637854E+02 -0.29737237247E+02 -0.27482653986E+02  0.48055645359E+02  0.41800000000E+01 0.  1.
         -5    1    3    3    0  502 -0.53180080823E+02 -0.84728008149E+00 -0.30383119852E+03  0.30847967271E+03  0.41800000000E+01 0.  1.
        -11    1    1    2    0    0  0.19397890206E+02 -0.31532186913E+02 -0.23190931490E+02  0.43684966056E+02  0.00000000000E+00 0. -1.
         11    1    1    2    0    0  0.82425527638E+01  0.62116704242E+02 -0.13343386336E+03  0.14741445151E+03  0.00000000000E+00 0.  1.
</event>
<event>
 7    1  0.2626349E-009  0.1144467E+03  0.7561462E-02  0.1252550E+00
         -1   -1    0    0    0  501 -0.00000000000E+00  0.00000000000E+00  0.49036276827E+02  0.49036276827E+02  0.00000000000E+00 0.  1.
          1   -1    0    0  501    0  0.00000000000E+00 -0.00000000000E+00 -0.41210759662E+03  0.41210759662E+03  0.00000000000E+00 0. -1.
         25    2    1    2    0    0 -0.37040395871E+02  0.60783399224E+02 -0.31379319903E+03  0.34522562731E+03  0.12509176409E+03 0.  0.
          5    1    3    3  502    0 -0.73405706361E+02  0.11704526788E+02 -0.11313244317E+03  0.13543195993E+03  0.41800000000E+01 0. -1.
         -5    1    3    3    0  502  0.36365310490E+02  0.49078872436E+02 -0.20066075586E+03  0.20979366737E+03  0.41800000000E+01 0. -1.
        -11    1    1    2    0    0  0.43557262015E+02 -0.13665836771E+02  0.23593574446E+01  0.45711669587E+02  0.00000000000E+00 0.  1.
         11    1    1    2    0    0 -0.65168661436E+01 -0.47117562453E+02 -0.51637478201E+02  0.70206576550E+02  0.00000000000E+00 0. -1.
</event>
<event>
 7    1  0.2626349E-009  0.7647728E+02  0.7561462E-02  0.1339356E+00
          1   -1    0    0  501    0  0.00000000000E+00  0.00000000000E+00  0.67713579483E+03  0.67713579483E+03  0.00000000000E+00 0. -1.
         -1   -1    0    0    0  501 -0.00000000000E+00 -0.00000000000E+00 -0.21926152246E+02  0.21926152246E+02  0.00000000000E+00 0.  1.
         25    2    1    2    0    0  0.11184642468E+02 -0.20397960798E+02  0.51458594448E+03  0.53008140530E+03  0.12508568645E+03 0.  0.
          5    1    3    3  502    0 -0.20050237419E+02 -0.31446174513E+02  0.48188041828E+03  0.48333951197E+03  0.41800000000E+01 0.  1.
         -5    1    3    3    0  502  0.31234879887E+02  0.11048213715E+02  0.32705526208E+02  0.46741893333E+02  0.41800000000E+01 0.  1.
        -11    1    1    2    0    0  0.33138768943E+02 -0.24102830631E+00  0.19715701903E+02  0.38560925861E+02  0.00000000000E+00 0.  1.
         11    1    1    2    0    0 -0.44323411412E+02  0.20638989104E+02  0.12090799620E+03  0.13041961591E+03  0.00000000000E+00 0. -1.
</event>
<event>
 7    1  0.2626349E-009  0.1151770E+03  0.7561462E-02  0.1251273E+00
         -2   -1    0    0    0  501 -0.00000000000E+00  0.00000000000E+00  0.40386909019E+02  0.40386909019E+02  0.00000000000E+00 0.  1.
          2   -1    0    0  501    0  0.00000000000E+00 -0.00000000000E+00 -0.38319815246E+03  0.38319815246E+03  0.00000000000E+00 0. -1.
         25    2    1    2    0    0 -0.48707536183E+01  0.49425533336E+02 -0.12910567402E+03  0.18650044362E+03  0.12509009880E+03 0.  0.
          5    1    3    3  502    0 -0.21879824162E+02  0.85346839346E+02 -0.60023917539E+02  0.10669185896E+03  0.41800000000E+01 0. -1.
         -5    1    3    3    0  502  0.17009070543E+02 -0.35921306010E+02 -0.69081756481E+02  0.79808584656E+02  0.41800000000E+01 0. -1.
        -11    1    1    2    0    0 -0.41918665377E+02 -0.29870735828E+02 -0.11904159259E+03  0.12969323857E+03  0.00000000000E+00 0. -1.
         11    1    1    2    0    0  0.46789418996E+02 -0.19554797508E+02 -0.94663976833E+02  0.10739137929E+03  0.00000000000E+00 0.  1.
</event>
<event>
 7    1  0.3007533E-009  0.1255760E+03  0.7561462E-02  0.1234172E+00
          1   -1    0    0  501    0  0.00000000000E+00  0.00000000000E+00  0.15792516421E+03  0.15792516421E+03  0.00000000000E+00 0. -1.
         -1   -1    0    0    0  501 -0.00000000000E+00 -0.00000000000E+00 -0.11526349429E+03  0.11526349429E+03  0.00000000000E+00 0.  1.
         25    2    1    2    0    0  0.36976160596E+01  0.63097387904E+02  0.72449304595E+02  0.15777116893E+03  0.12509151563E+03 0.  0.
          5    1    3    3  502    0 -0.45944948973E+02  0.75464981565E+02  0.51336579199E+02  0.10226836531E+03  0.41800000000E+01 0. -1.
         -5    1    3    3    0  502  0.49642565032E+02 -0.12367593661E+02  0.21112725396E+02  0.55502803619E+02  0.41800000000E+01 0. -1.
        -11    1    1    2    0    0 -0.28231722611E+02  0.13244681350E+02 -0.10913306120E+02  0.33038643981E+02  0.00000000000E+00 0.  1.
         11    1    1    2    0    0  0.24534106552E+02 -0.76342069254E+02 -0.18874328553E+02  0.82378845589E+02  0.00000000000E+00 0. -1.
</event>
<event>
 7    1  0.2626349E-009  0.8018060E+02  0.7561462E-02  0.1328540E+00
         -2   -1    0    0    0  501 -0.00000000000E+00  0.00000000000E+00  0.34385865010E+02  0.34385865010E+02  0.00000000000E+00 0.  1.
          2   -1    0    0  501    0  0.00000000000E+00 -0.00000000000E+00 -0.54776825607E+03  0.54776825607E+03  0.00000000000E+00 0. -1.
         25    2    1    2    0    0 -0.15614175507E+02 -0.51125560329E+01 -0.46182258758E+03  0.47874649667E+03  0.12509262558E+03 0.  0.
          5    1    3    3  502    0 -0.56838832038E+02 -0.22845165468E+01 -0.10480022660E+03  0.11931651913E+03  0.41800000000E+01 0.  1.
         -5    1    3    3    0  502  0.41224656532E+02 -0.28280394861E+01 -0.35702236098E+03  0.35942997754E+03  0.41800000000E+01 0.  1.
        -11    1    1    2    0    0  0.57655708265E+01 -0.27306569168E+02  0.12777017715E+02  0.30694343263E+02  0.00000000000E+00 0.  1.
         11    1    1    2    0    0  0.98486046804E+01  0.32419125201E+02 -0.64336821195E+02  0.72713281142E+02  0.00000000000E+00 0. -1.
</event>
<event>
 7    1  0.2626349E-009  0.1249741E+03  0.7561462E-02  0.1235110E+00
          1   -1    0    0  501    0  0.00000000000E+00  0.00000000000E+00  0.15505845944E+03  0.15505845944E+03  0.00000000000E+00 0.  1.
         -1   -1    0    0    0  501 -0.00000000000E+00 -0.00000000000E+00 -0.16608181650E+03  0.16608181650E+03  0.00000000000E+00 0. -1.
         25    2    1    2    0    0  0.11124772584E+03  0.36691813865E+02  0.10343924740E+01  0.17137998206E+03  0.12509069739E+03 0.  0.
          5    1    3    3  502    0  0.99875678104E+02  0.14537015131E+02 -0.51283506705E+02  0.11328700872E+03  0.41800000000E+01 0. -1.
         -5    1    3    3    0  502  0.11372047735E+02  0.22154798734E+02  0.52317899179E+02  0.58092973337E+02  0.41800000000E+01 0. -1.
        -11    1    1    2    0    0 -0.70965507544E+02 -0.42899464655E+02 -0.47658128574E+02  0.95643946739E+02  0.00000000000E+00 0. -1.
         11    1    1    2    0    0 -0.40282218294E+02  0.62076507896E+01  0.35600379044E+02  0.54116347134E+02  0.00000000000E+00 0.  1.
</event>
<event>
 7    1  0.2626349E-009  0.1270534E+03  0.7561462E-02  0.1231895E+00
          3   -1    0    0  501    0  0.00000000000E+00  0.00000000000E+00  0.26444419749E+03  0.26444419749E+03  0.00000000000E+00 0. -1.
         -3   -1    0    0    0  501 -0.00000000000E+00 -0.00000000000E+00 -0.85532779182E+02  0.85532779182E+02  0.00000000000E+00 0.  1.
         25    2    1    2    0    0  0.46622164108E+02 -0.82966708040E+02  0.14314232217E+03  0.21258930263E+03  0.12508951342E+03 0.  0.
          5    1    3    3  502    0  0.67048700763E+02 -0.97628774184E+02  0.14471998294E+03  0.18705146801E+03  0.41800000000E+01 0. -1.
         -5    1    3    3    0  502 -0.20426536655E+02  0.14662066144E+02 -0.15776607740E+01  0.25537834615E+02  0.41800000000E+01 0. -1.
        -11    1    1    2    0    0  0.33236074158E+01  0.50342385615E+02 -0.21360875153E+02  0.54787673276E+02  0.00000000000E+00 0.  1.
         11    1    1    2    0    0 -0.49945771524E+02  0.32624322425E+02  0.57129971291E+02  0.82600000766E+02  0.00000000000E+00 0. -1.
</event>
<event>
 7    1  0.2626349E-009  0.8671968E+02  0.7561462E-02  0.1310996E+00
         -1   -1    0    0    0  501 -0.00000000000E+00  0.00000000000E+00  0.81040653766E+02  0.81040653766E+02  0.00000000000E+00 0.  1.
          1   -1    0    0  501    0  0.00000000000E+00 -0.00000000000E+00 -0.16553017866E+03  0.16553017866E+03  0.00000000000E+00 0. -1.
         25    2    1    2    0    0  0.20398528366E+02  0.22297365546E+02 -0.59888920067E+02  0.14194228588E+03  0.12509059639E+03 0.  0.
          5    1    3    3  502    0  0.31125289840E+02 -0.35266010557E+02  0.12396836091E+02  0.48822424287E+02  0.41800000000E+01 0.  1.
         -5    1    3    3    0  502 -0.10726761474E+02  0.57563376103E+02 -0.72285756159E+02  0.93119861595E+02  0.41800000000E+01 0.  1.
        -11    1    1    2    0    0 -0.39842705062E+02 -0.27422617331E+01  0.25539711841E+02  0.47405042211E+02  0.00000000000E+00 0.  1.
         11    1    1    2    0    0  0.19444176697E+02 -0.19555103813E+02 -0.50140316672E+02  0.57223504336E+02  0.00000000000E+00 0. -1.
</event>
<event>
 7    1  0.2626349E-009  0.1399572E+03  0.7561462E-02  0.1213387E+00
         -1   -1    0    0    0  501 -0.00000000000E+00  0.00000000000E+00  0.97045002208E+03  0.97045002208E+03  0.00000000000E+00 0.  1.
          1   -1    0    0  501    0  0.00000000000E+00 -0.00000000000E+00 -0.21908865104E+02  0.21908865104E+02  0.00000000000E+00 0. -1.
         25    2    1    2    0    0  0.86043096805E+02  0.43742259840E+02  0.53386419784E+03  0.55675356421E+03  0.12508696862E+03 0.  0.
          5    1    3    3  502    0  0.17679063252E+00 -0.38570024079E+02  0.12004207610E+03  0.12615565959E+03  0.41800000000E+01 0. -1.
         -5    1    3    3    0  502  0.85866306173E+02  0.82312283919E+02  0.41382212174E+03  0.43059790462E+03  0.41800000000E+01 0. -1.
        -11    1    1    2    0    0 -0.65168631828E+02  0.86124504957E+01  0.30818449053E+03  0.31511712915E+03  0.00000000000E+00 0.  1.
         11    1    1    2    0    0 -0.20874464977E+02 -0.52354710336E+02  0.10649246860E+03  0.12048819383E+03  0.00000000000E+00 0. -1.
</event>
<event>
 7    1  0.2626349E-009  0.7512107E+02  0.7561462E-02  0.1343497E+00
          2   -1    0    0  501    0  0.00000000000E+00  0.00000000000E+00  0.32720603285E+03  0.32720603285E+03  0.00000000000E+00 0. -1.
         -2   -1    0    0    0  501 -0.00000000000E+00 -0.00000000000E+00 -0.40582150939E+02  0.40582150939E+02  0.00000000000E+00 0.  1.
         25    2    1    2    0    0  0.14097345961E+01  0.32922878393E+02  0.88694709979E+02  0.15684375587E+03  0.12508920379E+03 0.  0.
          5    1    3    3  502    0  0.23659892187E+02 -0.12778622640E+02 -0.21981199913E+02  0.34981841639E+02  0.41800000000E+01 0. -1.
         -5    1    3    3    0  502 -0.22250157590E+02  0.45701501034E+02  0.11067590989E+03  0.12186191423E+03  0.41800000000E+01 0. -1.
        -11    1    1    2    0    0 -0.32413551000E+02 -0.11722679577E+02  0.11152482141E+03  0.11672979609E+03  0.00000000000E+00 0. -1.
         11    1    1    2    0    0  0.31003816404E+02 -0.21200198817E+02  0.86404350523E+02  0.94214631830E+02  0.00000000000E+00 0.  1.
</event>
<event>
 7    1  0.2626349E-009  0.1041263E+03  0.7561462E-02  0.1271851E+00
          3   -1    0    0  501    0  0.00000000000E+00  0.00000000000E+00  0.91466003145E+02  0.91466003145E+02  0.00000000000E+00 0. -1.
         -3   -1    0    0    0  501 -0.00000000000E+00 -0.00000000000E+00 -0.13976599178E+03  0.13976599178E+03  0.00000000000E+00 0.  1.
         25    2    1    2    0    0 -0.33893619002E+01 -0.24004538558E+02 -0.20291279943E+02  0.12902701866E+03  0.12509408402E+03 0.  0.
          5    1    3    3  502    0 -0.56992433094E+02 -0.12240062509E+02 -0.39718513389E+02  0.70661087354E+02  0.41800000000E+01 0. -1.
         -5    1    3    3    0  502  0.53603071194E+02 -0.11764476049E+02  0.19427233445E+02  0.58365931308E+02  0.41800000000E+01 0. -1.
        -11    1    1    2    0    0  0.43382921482E+02 -0.72895484559E+01 -0.26590965213E+02  0.51403256939E+02  0.00000000000E+00 0.  1.
         11    1    1    2    0    0 -0.39993559582E+02  0.31294087014E+02 -0.14177434832E+01  0.50801719328E+02  0.00000000000E+00 0. -1.
</event>
<event>
 7    1  0.2626349E-009  0.1035546E+03  0.7561462E-02  0.1272994E+00
         -3   -1    0    0    0  501 -0.00000000000E+00  0.00000000000E+00  0.52480545226E+02  0.52480545226E+02  0.00000000000E+00 0.  1.
          3   -1    0    0  501    0  0.00000000000E+00 -0.00000000000E+00 -0.25958848460E+03  0.25958848460E+03  0.00000000000E+00 0. -1.
         25    2    1    2    0    0  0.30076234205E+02 -0.33162717752E+02 -0.11886971851E+03  0.17827524649E+03  0.12509079830E+03 0.  0.
          5    1    3    3  502    0 -0.45109915078E+02 -0.16572243978E+02 -0.18405611849E+02  0.51631217847E+02  0.41800000000E+01 0. -1.
         -5    1    3    3    0  502  0.75186149283E+02 -0.16590473774E+02 -0.10046410666E+03  0.12664402864E+03  0.41800000000E+01 0. -1.
        -11    1    1    2    0    0  0.61785859177E+01 -0.18014166119E+02  0.65464733638E+01  0.20138058954E+02  0.00000000000E+00 0.  1.
         11    1    1    2    0    0 -0.36254820123E+02  0.51176883871E+02 -0.94784694229E+02  0.11365572438E+03  0.00000000000E+00 0. -1.
</event>
<event>
 7    1  0.2626349E-009  0.5421295E+02  0.7561462E-02  0.1423858E+00
          1   -1    0    0  501    0  0.00000000000E+00  0.00000000000E+00  0.58105175836E+03  0.58105175836E+03  0.00000000000E+00 0. -1.
         -1   -1    0    0    0  501 -0.00000000000E+00 -0.00000000000E+00 -0.21592776141E+02  0.21592776141E+02  0.00000000000E+00 0.  1.
         25    2    1    2    0    0 -0.14874948499E+02 -0.16611756461E+02  0.28085031550E+03  0.30825464196E+03  0.12508720969E+03 0.  0.
          5    1    3    3  502    0 -0.10023857525E+02 -0.95284873008E+01 -0.97932750474E+01  0.17454238055E+02  0.41800000000E+01 0.  1.
         -5    1    3    3    0  502 -0.48510909743E+01 -0.70832691603E+01  0.29064359054E+03  0.29080040390E+03  0.41800000000E+01 0.  1.
        -11    1    1    2    0    0  0.42654503636E+02  0.31393414085E+02  0.10128835625E+03  0.11429909991E+03  0.00000000000E+00 0. -1.
         11    1    1    2    0    0 -0.27779555136E+02 -0.14781657624E+02  0.17732031048E+03  0.18009079264E+03  0.00000000000E+00 0.  1.
</event>
<event>
 7    1  0.2626349E-009  0.1161781E+03  0.7561462E-02  0.1249539E+00
          1   -1    0    0  501    0  0.00000000000E+00  0.00000000000E+00  0.18044202423E+03  0.18044202423E+03  0.00000000000E+00 0. -1.
         -1   -1    0    0    0  501 -0.00000000000E+00 -0.00000000000E+00 -0.94326044940E+02  0.94326044940E+02  0.00000000000E+00 0.  1.
         25    2    1    2    0    0  0.59591408545E+02 -0.33603861298E+02  0.72089828921E+02  0.15976409537E+03  0.12508903737E+03 0.  0.
          5    1    3    3  502    0 -0.97965269594E+01 -0.50825890192E+02 -0.77570702753E+01  0.52506071969E+02  0.41800000000E+01 0.  1.
         -5    1    3    3    0  502  0.69387935505E+02  0.17222028895E+02  0.79846899196E+02  0.10725802340E+03  0.41800000000E+01 0.  1.
        -11    1    1    2    0    0 -0.97299669416E+01  0.54051057813E+02 -0.10299204117E+02  0.55877211033E+02  0.00000000000E+00 0.  1.
         11    1    1    2    0    0 -0.49861441604E+02 -0.20447196515E+02  0.24325354483E+02  0.59126762763E+02  0.00000000000E+00 0. -1.
</event>
<event>
 7    1  0.2626349E-009  0.1072618E+03  0.7561462E-02  0.1265726E+00
         -1   -1    0    0    0  501 -0.00000000000E+00  0.00000000000E+00  0.39367112844E+02  0.39367112844E+02  0.00000000000E+00 0.  1.
          1   -1    0    0  501    0  0.00000000000E+00 -0.00000000000E+00 -0.39675049531E+03  0.39675049531E+03  0.00000000000E+00 0. -1.
         25    2    1    2    0    0 -0.33595885701E+02  0.44927070756E+01 -0.28749630373E+03  0.31535645685E+03  0.12508677894E+03 0.  0.
          5    1    3    3  502    0 -0.24247356902E+02  0.63372094872E+02 -0.12621532811E+03  0.14335877433E+03  0.41800000000E+01 0.  1.
         -5    1    3    3    0  502 -0.93485287987E+01 -0.58879387796E+02 -0.16128097561E+03  0.17199768252E+03  0.41800000000E+01 0.  1.
        -11    1    1    2    0    0  0.42174599610E+02 -0.35176430934E+02 -0.14396381681E+02  0.56774412819E+02  0.00000000000E+00 0.  1.
         11    1    1    2    0    0 -0.85787139091E+01  0.30683723858E+02 -0.55490697054E+02  0.63986738483E+02  0.00000000000E+00 0. -1.
</event>
<event>
 7    1  0.2626349E-009  0.2678642E+03  0.7561462E-02  0.1102508E+00
          2   -1    0    0  501    0  0.00000000000E+00  0.00000000000E+00  0.77566628706E+03  0.77566628706E+03  0.00000000000E+00 0. -1.
         -2   -1    0    0    0  501 -0.00000000000E+00 -0.00000000000E+00 -0.10112965083E+03  0.10112965083E+03  0.00000000000E+00 0.  1.
         25    2    1    2    0    0  0.26581690658E+02  0.25531242952E+03  0.30184234154E+03  0.41550659828E+03  0.12508361651E+03 0.  0.
          5    1    3    3  502    0 -0.31947379394E+02  0.17678155525E+03  0.23917447142E+03  0.29915590167E+03  0.41800000000E+01 0.  1.
         -5    1    3    3    0  502  0.58529070052E+02  0.78530874277E+02  0.62667870124E+02  0.11635069661E+03  0.41800000000E+01 0.  1.
        -11    1    1    2    0    0  0.20102678107E+01 -0.10361826243E+03  0.82011479705E+02  0.13216152348E+03  0.00000000000E+00 0.  1.
         11    1    1    2    0    0 -0.28591958469E+02 -0.15169416709E+03  0.29068281499E+03  0.32912781613E+03  0.00000000000E+00 0. -1.
</event>
<event>
 7    1  0.2626349E-009  0.9235786E+02  0.7561462E-02  0.1297240E+00
         -1   -1    0    0    0  501 -0.00000000000E+00  0.00000000000E+00  0.53087424628E+03  0.53087424628E+03  0.00000000000E+00 0.  1.
          1   -1    0    0  501    0  0.00000000000E+00 -0.00000000000E+00 -0.26028828397E+02  0.26028828397E+02  0.00000000000E+00 0. -1.
         25    2    1    2    0    0 -0.44296109830E+02 -0.64241705200E+01  0.27180886166E+03  0.30253930841E+03  0.12508621244E+03 0.  0.
          5    1    3    3  502    0 -0.74480443202E+02  0.24336395238E+02  0.11053801277E+03  0.13555707735E+03  0.41800000000E+01 0. -1.
         -5    1    3    3    0  502  0.30184333372E+02 -0.30760565759E+02  0.16127084889E+03  0.16698223106E+03  0.41800000000E+01 0. -1.
        -11    1    1    2    0    0  0.44058532065E+02 -0.11091121435E+02  0.23243800634E+03  0.23683663993E+03  0.00000000000E+00 0.  1.
         11    1    1    2    0    0  0.23757776499E+00  0.17515291955E+02  0.59854987480E+00  0.17527126331E+02  0.00000000000E+00 0. -1.
</event>
<event>
 7    1  0.2626349E-009  0.1280040E+03  0.7561462E-02  0.1230448E+00
          3   -1    0    0  501    0  0.00000000000E+00  0.00000000000E+00  0.41066396563E+03  0.41066396563E+03  0.00000000000E+00 0. -1.
         -3   -1    0    0    0  501 -0.00000000000E+00 -0.00000000000E+00 -0.65958673769E+02  0.65958673769E+02  0.00000000000E+00 0.  1.
         25    2    1    2    0    0  0.98705902332E+02 -0.48231144186E+02  0.26293441865E+03  0.31120942342E+03  0.12509076021E+03 0.  0.
          5    1    3    3  502    0  0.64164753076E+02 -0.66692222159E+01  0.28602972530E+02  0.70690851600E+02  0.41800000000E+01 0. -1.
         -5    1    3    3    0  502  0.34541149256E+02 -0.41561921970E+02  0.23433144612E+03  0.24051857182E+03  0.41800000000E+01 0. -1.
        -11    1    1    2    0    0 -0.24578248342E+02 -0.23502025063E+02  0.36648295985E+00  0.34008378135E+02  0.00000000000E+00 0.  1.
         11    1    1    2    0    0 -0.74127653990E+02  0.71733169249E+02  0.81404390252E+02  0.13140483784E+03  0.00000000000E+00 0. -1.
</event>
<event>
 7    1  0.2626349E-009  0.1914363E+03  0.7561462E-02  0.1157172E+00
         -3   -1    0    0    0  501 -0.00000000000E+00  0.00000000000E+00  0.57865834058E+02  0.57865834058E+02  0.00000000000E+00 0.  1.
          3   -1    0    0  501    0  0.00000000000E+00 -0.00000000000E+00 -0.78947246883E+03  0.78947246883E+03  0.00000000000E+00 0. -1.
         25    2    1    2    0    0 -0.14288744680E+03 -0.76176520790E+02 -0.20952659268E+03  0.29286273447E+03  0.12508998133E+03 0.  0.
          5    1    3    3  502    0 -0.12152658017E+03 -0.48165627714E+01 -0.16810385062E+03  0.20752900028E+03  0.41800000000E+01 0. -1.
         -5    1    3    3    0  502 -0.21360866634E+02 -0.71359958018E+02 -0.41422742064E+02  0.85333734196E+02  0.41800000000E+01 0. -1.
        -11    1    1    2    0    0  0.61144766926E+02  0.84615924193E+02 -0.30404407116E+03  0.32146747014E+03  0.00000000000E+00 0. -1.
         11    1    1    2    0    0  0.81742679873E+02 -0.84394034028E+01 -0.21803597093E+03  0.23300809828E+03  0.00000000000E+00 0.  1.
</event>
<event>
 7    1  0.2626349E-009  0.2970497E+03  0.7561462E-02  0.1086725E+00
          1   -1    0    0  501    0  0.00000000000E+00  0.00000000000E+00  0.23379716707E+04  0.23379716707E+04  0.00000000000E+00 0. -1.
         -1   -1    0    0    0  501 -0.00000000000E+00 -0.00000000000E+00 -0.40164323134E+02  0.40164323134E+02  0.00000000000E+00 0.  1.
         25    2    1    2    0    0 -0.26560464630E+03 -0.76071680171E+02  0.14607719939E+04  0.14919234309E+04  0.12509187367E+03 0.  0.
          5    1    3    3  502    0 -0.23744470016E+03 -0.10744183148E+03  0.12339550087E+04  0.12611844309E+04  0.41800000000E+01 0.  1.
         -5    1    3    3    0  502 -0.28159946143E+02  0.31370151307E+02  0.22681698513E+03  0.23073899997E+03  0.41800000000E+01 0.  1.
        -11    1    1    2    0    0  0.18679375864E+03  0.95673778793E+02  0.59803832214E+03  0.63379430020E+03  0.00000000000E+00 0.  1.
         11    1    1    2    0    0  0.78810887660E+02 -0.19602098621E+02  0.23899703159E+03  0.25241826279E+03  0.00000000000E+00 0. -1.
</event>
<event>
 7    1  0.2626349E-009  0.8000929E+02  0.7561462E-02  0.1329025E+00
         -1   -1    0    0    0  501 -0.00000000000E+00  0.00000000000E+00  0.20407933746E+03  0.20407933746E+03  0.00000000000E+00 0.  1.
          1   -1    0    0  501    0  0.00000000000E+00 -0.00000000000E+00 -0.70996417275E+02  0.70996417275E+02  0.00000000000E+00 0. -1.
         25    2    1    2    0    0 -0.31606783395E+02  0.42842347589E+02  0.85803500931E+02  0.16076454668E+03  0.12509413732E+03 0.  0.
          5    1    3    3  502    0 -0.56038942459E+02  0.52600757260E+02  0.10335166963E+03  0.12886521157E+03  0.41800000000E+01 0.  1.
         -5    1    3    3    0  502  0.24432159064E+02 -0.97584096712E+01 -0.17548168700E+02  0.31899335112E+02  0.41800000000E+01 0.  1.
        -11    1    1    2    0    0  0.19164216716E+02 -0.10717516989E+02 -0.25583683373E+02  0.33714347504E+02  0.00000000000E+00 0. -1.
         11    1    1    2    0    0  0.12442566679E+02 -0.32124830601E+02  0.72863102627E+02  0.80596860554E+02  0.00000000000E+00 0.  1.
</event>
<event>
 7    1  0.2626349E-009  0.2587453E+03  0.7561462E-02  0.1107899E+00
          2   -1    0    0  501    0  0.00000000000E+00  0.00000000000E+00  0.17190038761E+04  0.17190038761E+04  0.00000000000E+00 0. -1.
         -2   -1    0    0    0  501 -0.00000000000E+00 -0.00000000000E+00 -0.43458958384E+02  0.43458958384E+02  0.00000000000E+00 0.  1.
         25    2    1    2    0    0 -0.15868586388E+03  0.19450326019E+03  0.88797553249E+03  0.93121465739E+03  0.12508984858E+03 0.  0.
          5    1    3    3  502    0 -0.10363532202E+03  0.11461359105E+03  0.72670644758E+03  0.74296452714E+03  0.41800000000E+01 0. -1.
         -5    1    3    3    0  502 -0.55050541861E+02  0.79889669134E+02  0.16126908490E+03  0.18825013025E+03  0.41800000000E+01 0. -1.
        -11    1    1    2    0    0  0.72184950259E+02 -0.15443641500E+03  0.49374684818E+03  0.52234779928E+03  0.00000000000E+00 0.  1.
         11    1    1    2    0    0  0.86500913619E+02 -0.40066845190E+02  0.29382253707E+03  0.30890037784E+03  0.00000000000E+00 0. -1.
</event>
<event>
 7    1  0.2626349E-009  0.1917548E+03  0.7561462E-02  0.1156888E+00
         -2   -1    0    0    0  501 -0.00000000000E+00  0.00000000000E+00  0.40958844428E+02  0.40958844428E+02  0.00000000000E+00 0. -1.
          2   -1    0    0  501    0  0.00000000000E+00 -0.00000000000E+00 -0.10498224768E+04  0.10498224768E+04  0.00000000000E+00 0.  1.
         25    2    1    2    0    0  0.94256065795E+02 -0.14137761418E+03 -0.40193296630E+03  0.45394894969E+03  0.12509078223E+03 0.  0.
          5    1    3    3  502    0  0.10234562834E+03 -0.15855297166E+03 -0.38207240236E+03  0.42615779414E+03  0.41800000000E+01 0.  1.
         -5    1    3    3    0  502 -0.80895625477E+01  0.17175357482E+02 -0.19860563941E+02  0.27791155552E+02  0.41800000000E+01 0.  1.
        -11    1    1    2    0    0 -0.76349295808E+02  0.76800460287E+02 -0.23290438342E+03  0.25685010704E+03  0.00000000000E+00 0. -1.
         11    1    1    2    0    0 -0.17906769987E+02  0.64577153889E+02 -0.37402628262E+03  0.37998226447E+03  0.00000000000E+00 0.  1.
</event>
<event>
 7    1  0.2626349E-009  0.1181371E+03  0.7561462E-02  0.1246202E+00
          2   -1    0    0  501    0  0.00000000000E+00  0.00000000000E+00  0.36060874484E+03  0.36060874484E+03  0.00000000000E+00 0. -1.
         -2   -1    0    0    0  501 -0.00000000000E+00 -0.00000000000E+00 -0.53112699495E+02  0.53112699495E+02  0.00000000000E+00 0.  1.
         25    2    1    2    0    0  0.17664126948E+02 -0.81232699573E+02  0.13780143569E+03  0.20382826826E+03  0.12508378953E+03 0.  0.
          5    1    3    3  502    0  0.36405953669E+02  0.43802639731E+01 -0.39529594533E+01  0.37117091259E+02  0.41800000000E+01 0. -1.
         -5    1    3    3    0  502 -0.18741826721E+02 -0.85612963546E+02  0.14175439514E+03  0.16671117700E+03  0.41800000000E+01 0. -1.
        -11    1    1    2    0    0 -0.42920564669E+02  0.24246012759E+02  0.12144391940E+03  0.13106742374E+03  0.00000000000E+00 0. -1.
         11    1    1    2    0    0  0.25256437720E+02  0.56986686814E+02  0.48250690251E+02  0.78825752328E+02  0.00000000000E+00 0.  1.
</event>
<event>
 7    1  0.2626349E-009  0.1026943E+03  0.7561462E-02  0.1274730E+00
         -2   -1    0    0    0  501 -0.00000000000E+00  0.00000000000E+00  0.17694262390E+02  0.17694262390E+02  0.00000000000E+00 0.  1.
          2   -1    0    0  501    0  0.00000000000E+00 -0.00000000000E+00 -0.93871703194E+03  0.93871703194E+03  0.00000000000E+00 0. -1.
         25    2    1    2    0    0  0.63189432282E+02 -0.35404262923E+01 -0.61797374927E+03  0.63367519493E+03  0.12508900397E+03 0.  0.
          5    1    3    3  502    0 -0.26691758424E+02  0.12382713432E+02 -0.48237552894E+02  0.56657880907E+02  0.41800000000E+01 0.  1.
         -5    1    3    3    0  502  0.89881190706E+02 -0.15923139725E+02 -0.56973619637E+03  0.57701731402E+03  0.41800000000E+01 0.  1.
        -11    1    1    2    0    0 -0.65283833119E+02 -0.13883038098E+02 -0.29663617640E+03  0.30405219743E+03  0.00000000000E+00 0. -1.
         11    1    1    2    0    0  0.20944008375E+01  0.17423464391E+02 -0.64128438835E+01  0.18683901972E+02  0.00000000000E+00 0.  1.
</event>
<event>
 7    1  0.2626349E-009  0.8931288E+02  0.7561462E-02  0.1304524E+00
         -2   -1    0    0    0  501 -0.00000000000E+00  0.00000000000E+00  0.77634265542E+02  0.77634265542E+02  0.00000000000E+00 0.  1.
          2   -1    0    0  501    0  0.00000000000E+00 -0.00000000000E+00 -0.15622032832E+03  0.15622032832E+03  0.00000000000E+00 0. -1.
         25    2    1    2    0    0 -0.82711070736E+01 -0.15639819948E+02 -0.59297013236E+02  0.13957036065E+03  0.12510289610E+03 0.  0.
          5    1    3    3  502    0  0.38370027781E+02  0.14292307803E+02 -0.71656507289E+02  0.82635685579E+02  0.41800000000E+01 0.  1.
         -5    1    3    3    0  502 -0.46641134855E+02 -0.29932127751E+02  0.12359494052E+02  0.56934675071E+02  0.41800000000E+01 0.  1.
        -11    1    1    2    0    0  0.44269494906E+02  0.10804080415E+02  0.11128649732E+02  0.46908028926E+02  0.00000000000E+00 0.  1.
         11    1    1    2    0    0 -0.35998387832E+02  0.48357395332E+01 -0.30417699271E+02  0.47376204283E+02  0.00000000000E+00 0. -1.
</event>
<event>
 7    1  0.2626349E-009  0.1081865E+03  0.7561462E-02  0.1263966E+00
          3   -1    0    0  501    0  0.00000000000E+00  0.00000000000E+00  0.17012728043E+03  0.17012728043E+03  0.00000000000E+00 0. -1.
         -3   -1    0    0    0  501 -0.00000000000E+00 -0.00000000000E+00 -0.10002631451E+03  0.10002631451E+03  0.00000000000E+00 0.  1.
         25    2    1    2    0    0  0.67286107377E+02 -0.23670241816E+02  0.34157482219E+02  0.14799254908E+03  0.12508940961E+03 0.  0.
          5    1    3    3  502    0  0.14316456651E+02  0.33186800410E+02  0.56344927505E+02  0.67071215197E+02  0.41800000000E+01 0. -1.
         -5    1    3    3    0  502  0.52969650726E+02 -0.56857042226E+02 -0.22187445286E+02  0.80921333880E+02  0.41800000000E+01 0. -1.
        -11    1    1    2    0    0 -0.35024194440E+02  0.49640629732E+02  0.49729714628E+02  0.78510705215E+02  0.00000000000E+00 0. -1.
         11    1    1    2    0    0 -0.32261912937E+02 -0.25970387917E+02 -0.13786230931E+02  0.43650340642E+02  0.00000000000E+00 0.  1.
</event>
<event>
 7    1  0.2626349E-009  0.1369768E+03  0.7561462E-02  0.1217456E+00
          2   -1    0    0  501    0  0.00000000000E+00  0.00000000000E+00  0.76609420758E+03  0.76609420758E+03  0.00000000000E+00 0. -1.
         -2   -1    0    0    0  501 -0.00000000000E+00 -0.00000000000E+00 -0.50624466514E+02  0.50624466514E+02  0.00000000000E+00 0.  1.
         25    2    1    2    0    0 -0.10753729676E+03 -0.52712130570E+02  0.61252661851E+03  0.63653679098E+03  0.12508952389E+03 0.  0.
          5    1    3    3  502    0 -0.25270017562E+02  0.27033587613E+02  0.32294180893E+03  0.32508194813E+03  0.41800000000E+01 0. -1.
         -5    1    3    3    0  502 -0.82267279197E+02 -0.79745718184E+02  0.28958480958E+03  0.31145484285E+03  0.41800000000E+01 0. -1.
        -11    1    1    2    0    0  0.14653497109E+02  0.17263496944E+02  0.72881206549E+02  0.76317911216E+02  0.00000000000E+00 0.  1.
         11    1    1    2    0    0  0.92883799651E+02  0.35448633626E+02  0.30061916005E+02  0.10386397189E+03  0.00000000000E+00 0. -1.
</event>
<event>
 7    1  0.2626349E-009  0.1348085E+03  0.7561462E-02  0.1220490E+00
          2   -1    0    0  501    0  0.00000000000E+00  0.00000000000E+00  0.70619206095E+02  0.70619206095E+02  0.00000000000E+00 0. -1.
         -2   -1    0    0    0  501 -0.00000000000E+00 -0.00000000000E+00 -0.45528460984E+03  0.45528460984E+03  0.00000000000E+00 0.  1.
         25    2    1    2    0    0  0.88152093119E+02 -0.23756720908E+02 -0.36320201014E+03  0.39483873955E+03  0.12508699682E+03 0.  0.
          5    1    3    3  502    0  0.87257347757E+02  0.34476968861E+02 -0.25733883522E+03  0.27394023916E+03  0.41800000000E+01 0.  1.
         -5    1    3    3    0  502  0.89474536185E+00 -0.58233689769E+02 -0.10586317492E+03  0.12089850040E+03  0.41800000000E+01 0.  1.
        -11    1    1    2    0    0 -0.98000094710E+02  0.74766616533E+01  0.50690428241E+01  0.98415518227E+02  0.00000000000E+00 0.  1.
         11    1    1    2    0    0  0.98480015914E+01  0.16280059255E+02 -0.26532436432E+02  0.32649558155E+02  0.00000000000E+00 0. -1.
</event>
<event>
 7    1  0.2626349E-009  0.2448197E+03  0.7561462E-02  0.1116623E+00
          2   -1    0    0  501    0  0.00000000000E+00  0.00000000000E+00  0.15102324659E+04  0.15102324659E+04  0.00000000000E+00 0. -1.
         -2   -1    0    0    0  501 -0.00000000000E+00 -0.00000000000E+00 -0.47689379139E+02  0.47689379139E+02  0.00000000000E+00 0.  1.
         25    2    1    2    0    0 -0.52816952207E+02  0.22583759878E+03  0.97984200533E+03  0.10146576519E+04  0.12509014204E+03 0.  0.
          5    1    3    3  502    0 -0.60496507669E+02  0.94881629886E+02  0.64965681230E+03  0.65934345929E+03  0.41800000000E+01 0.  1.
         -5    1    3    3    0  502  0.76795554621E+01  0.13095596890E+03  0.33018519303E+03  0.35531419259E+03  0.41800000000E+01 0.  1.
        -11    1    1    2    0    0 -0.17166906218E+02 -0.10292904289E+03  0.16119866835E+03  0.19202630345E+03  0.00000000000E+00 0. -1.
         11    1    1    2    0    0  0.69983858424E+02 -0.12290855590E+03  0.32150241305E+03  0.35123788969E+03  0.00000000000E+00 0.  1.
</event>
<event>
 7    1  0.2626349E-009  0.1133391E+03  0.7561462E-02  0.1254508E+00
         -1   -1    0    0    0  501 -0.00000000000E+00  0.00000000000E+00  0.24477283728E+02  0.24477283728E+02  0.00000000000E+00 0.  1.
          1   -1    0    0  501    0  0.00000000000E+00 -0.00000000000E+00 -0.74349290609E+03  0.74349290609E+03  0.00000000000E+00 0. -1.
         25    2    1    2    0    0 -0.52295493602E+01  0.43899856852E+02 -0.20672957487E+03  0.24564057159E+03  0.12509047792E+03 0.  0.
          5    1    3    3  502    0 -0.84663592870E+01 -0.39907083276E+02 -0.32843327184E+02  0.52539614347E+02  0.41800000000E+01 0. -1.
         -5    1    3    3    0  502  0.32368099268E+01  0.83806940129E+02 -0.17388624769E+03  0.19310095724E+03  0.41800000000E+01 0. -1.
        -11    1    1    2    0    0  0.41159891410E+02  0.45129759646E+01 -0.19114846896E+03  0.19558180079E+03  0.00000000000E+00 0. -1.
         11    1    1    2    0    0 -0.35930342050E+02 -0.48412832817E+02 -0.32113757852E+03  0.32674781744E+03  0.00000000000E+00 0.  1.
</event>
<event>
 7    1  0.2626349E-009  0.1116594E+03  0.7561462E-02  0.1257527E+00
         -2   -1    0    0    0  501 -0.00000000000E+00  0.00000000000E+00  0.37457398040E+02  0.37457398040E+02  0.00000000000E+00 0.  1.
          2   -1    0    0  501    0  0.00000000000E+00 -0.00000000000E+00 -0.58126359547E+03  0.58126359547E+03  0.00000000000E+00 0. -1.
         25    2    1    2    0    0 -0.82627703695E+02 -0.35356139799E+02 -0.38957677059E+03  0.41892110551E+03  0.12508972147E+03 0.  0.
          5    1    3    3  502    0 -0.23833555806E+02 -0.28429957566E+02 -0.33869763410E+03  0.34074897009E+03  0.41800000000E+01 0. -1.
         -5    1    3    3    0  502 -0.58794147890E+02 -0.69261822328E+01 -0.50879136488E+02  0.78172135420E+02  0.41800000000E+01 0. -1.
        -11    1    1    2    0    0  0.16032185506E+02 -0.29565933666E+02 -0.47997359204E+02  0.58608206730E+02  0.00000000000E+00 0. -1.
         11    1    1    2    0    0  0.66595518190E+02  0.64922073464E+02 -0.10623206763E+03  0.14119168127E+03  0.00000000000E+00 0.  1.
</event>
<event>
 7    1  0.2626349E-009  0.1568739E+03  0.7561462E-02  0.1192272E+00
          2   -1    0    0  501    0  0.00000000000E+00  0.00000000000E+00  0.54881535641E+03  0.54881535641E+03  0.00000000000E+00 0. -1.
         -2   -1    0    0    0  501 -0.00000000000E+00 -0.00000000000E+00 -0.50987459053E+02  0.50987459053E+02  0.00000000000E+00 0.  1.
         25    2    1    2    0    0  0.96790732480E+02 -0.74353141667E+02  0.26327325978E+03  0.31600174441E+03  0.12508979807E+03 0.  0.
          5    1    3    3  502    0  0.90926069013E+02 -0.10748809908E+03  0.21079716490E+03  0.25352348727E+03  0.41800000000E+01 0.  1.
         -5    1    3    3    0  502  0.58646634670E+01  0.33134957412E+02  0.52476094884E+02  0.62478257134E+02  0.41800000000E+01 0.  1.
        -11    1    1    2    0    0 -0.23016188430E+02  0.59415315362E+02  0.40098576544E+02  0.75284928573E+02  0.00000000000E+00 0.  1.
         11    1    1    2    0    0 -0.73774544050E+02  0.14937826305E+02  0.19445606104E+03  0.20851614249E+03  0.00000000000E+00 0. -1.
</event>
<event>
 7    1  0.2626349E-009  0.1083813E+03  0.7561462E-02  0.1263597E+00
         -1   -1    0    0    0  501 -0.00000000000E+00  0.00000000000E+00  0.23136592027E+02  0.23136592027E+02  0.00000000000E+00 0.  1.
          1   -1    0    0  501    0  0.00000000000E+00 -0.00000000000E+00 -0.67528007448E+03  0.67528007448E+03  0.00000000000E+00 0. -1.
         25    2    1    2    0    0  0.23606200551E+02  0.84216386820E+02 -0.33484368157E+03  0.36799142272E+03  0.12509094131E+03 0.  0.
          5    1    3    3  502    0 -0.12836536495E+02  0.86745254064E+02 -0.11286300106E+03  0.14298617129E+03  0.41800000000E+01 0. -1.
         -5    1    3    3    0  502  0.36442737046E+02 -0.25288672444E+01 -0.22198068051E+03  0.22500525143E+03  0.41800000000E+01 0. -1.
        -11    1    1    2    0    0 -0.30204898188E+02 -0.75132674237E+02 -0.27887173403E+03  0.29039059670E+03  0.00000000000E+00 0.  1.
         11    1    1    2    0    0  0.65986976367E+01 -0.90837125833E+01 -0.38428066859E+02  0.40034647086E+02  0.00000000000E+00 0. -1.
</event>
<event>
 7    1  0.2626349E-009  0.1130805E+03  0.7561462E-02  0.1254969E+00
          2   -1    0    0  501    0  0.00000000000E+00  0.00000000000E+00  0.33848746278E+03  0.33848746278E+03  0.00000000000E+00 0. -1.
         -2   -1    0    0    0  501 -0.00000000000E+00 -0.00000000000E+00 -0.44141008937E+02  0.44141008937E+02  0.00000000000E+00 0.  1.
         25    2    1    2    0    0 -0.49539877976E+02 -0.23036172922E+02  0.16495246004E+03  0.21410707087E+03  0.12509060296E+03 0.  0.
          5    1    3    3  502    0 -0.22465005285E+02  0.44000175628E+02  0.22799915156E+02  0.54571058711E+02  0.41800000000E+01 0.  1.
         -5    1    3    3    0  502 -0.27074872691E+02 -0.67036348550E+02  0.14215254489E+03  0.15953601216E+03  0.41800000000E+01 0.  1.
        -11    1    1    2    0    0 -0.21920023678E+02  0.24255226646E+02  0.62966531963E+02  0.70947780833E+02  0.00000000000E+00 0.  1.
         11    1    1    2    0    0  0.71459901654E+02 -0.12190537243E+01  0.66427461836E+02  0.97573620013E+02  0.00000000000E+00 0. -1.
</event>
<event>
 7    1  0.2626349E-009  0.9254565E+02  0.7561462E-02  0.1296802E+00
         -2   -1    0    0    0  501 -0.00000000000E+00  0.00000000000E+00  0.28894761279E+02  0.28894761279E+02  0.00000000000E+00 0.  1.
          2   -1    0    0  501    0  0.00000000000E+00 -0.00000000000E+00 -0.46632840521E+03  0.46632840521E+03  0.00000000000E+00 0. -1.
         25    2    1    2    0    0  0.55623395539E+01  0.25625776324E+02 -0.17951332712E+03  0.22036339011E+03  0.12508944421E+03 0.  0.
          5    1    3    3  502    0 -0.51182716575E+02 -0.78743526728E+01 -0.12274251910E+03  0.13328493651E+03  0.41800000000E+01 0. -1.
         -5    1    3    3    0  502  0.56745056129E+02  0.33500128997E+02 -0.56770808024E+02  0.87078453601E+02  0.41800000000E+01 0. -1.
        -11    1    1    2    0    0  0.12151233570E+02  0.17030886736E+02 -0.10961886058E+02  0.23619198255E+02  0.00000000000E+00 0.  1.
         11    1    1    2    0    0 -0.17713573124E+02 -0.42656663060E+02 -0.24695843075E+03  0.25124057812E+03  0.00000000000E+00 0. -1.
</event>
<event>
 7    1  0.2626349E-009  0.7144742E+02  0.7561462E-02  0.1355239E+00
          2   -1    0    0  501    0  0.00000000000E+00  0.00000000000E+00  0.28168667189E+03  0.28168667189E+03  0.00000000000E+00 0.  1.
         -2   -1    0    0    0  501 -0.00000000000E+00 -0.00000000000E+00 -0.50254978024E+02  0.50254978024E+02  0.00000000000E+00 0. -1.
         25    2    1    2    0    0  0.24237782694E+02 -0.29264040504E+02  0.81502686022E+02  0.15405795712E+03  0.12508921675E+03 0.  0.
          5    1    3    3  502    0  0.12642401488E+02  0.17942468373E+02 -0.27026446525E+02  0.35066560973E+02  0.41800000000E+01 0. -1.
         -5    1    3    3    0  502  0.11595381206E+02 -0.47206508876E+02  0.10852913255E+03  0.11899139615E+03  0.41800000000E+01 0. -1.
        -11    1    1    2    0    0 -0.20049164275E+01 -0.18746606983E+02 -0.41857995663E-01  0.18853559753E+02  0.00000000000E+00 0. -1.
         11    1    1    2    0    0 -0.22232866267E+02  0.48010647487E+02  0.14997086584E+03  0.15903013304E+03  0.00000000000E+00 0.  1.
</event>
<event>
 7    1  0.2626349E-009  0.8896842E+02  0.7561462E-02  0.1305369E+00
          1   -1    0    0  501    0  0.00000000000E+00  0.00000000000E+00  0.84216978630E+02  0.84216978630E+02  0.00000000000E+00 0. -1.
         -1   -1    0    0    0  501 -0.00000000000E+00 -0.00000000000E+00 -0.26615785077E+03  0.26615785077E+03  0.00000000000E+00 0.  1.
         25    2    1    2    0    0  0.71955025944E+02  0.41708830388E+02 -0.25864353695E+02  0.15243039705E+03  0.12509559888E+03 0.  0.
          5    1    3    3  502    0  0.38092566974E+02  0.26293706410E+02  0.49734083378E+02  0.68068745434E+02  0.41800000000E+01 0. -1.
         -5    1    3    3    0  502  0.33862458970E+02  0.15415123977E+02 -0.75598437073E+02  0.84361651611E+02  0.41800000000E+01 0. -1.
        -11    1    1    2    0    0 -0.60487435684E+02 -0.11314518629E+02 -0.31360293914E+02  0.69066752072E+02  0.00000000000E+00 0.  1.
         11    1    1    2    0    0 -0.11467590261E+02 -0.30394311758E+02 -0.12471622453E+03  0.12887768028E+03  0.00000000000E+00 0. -1.
</event>
<event>
 7    1  0.2626349E-009  0.3210134E+03  0.7561462E-02  0.1075184E+00
         -2   -1    0    0    0  501 -0.00000000000E+00  0.00000000000E+00  0.10917687649E+03  0.10917687649E+03  0.00000000000E+00 0.  1.
          2   -1    0    0  501    0  0.00000000000E+00 -0.00000000000E+00 -0.10402580874E+04  0.10402580874E+04  0.00000000000E+00 0. -1.
         25    2    1    2    0    0 -0.65024215789E+02  0.31081307240E+03 -0.51817142412E+03  0.62046888519E+03  0.12508836114E+03 0.  0.
          5    1    3    3  502    0 -0.11461375748E+02  0.42184007390E+02 -0.12996967052E+02  0.45795711219E+02  0.41800000000E+01 0. -1.
         -5    1    3    3    0  502 -0.53562840041E+02  0.26862906501E+03 -0.50517445707E+03  0.57467317397E+03  0.41800000000E+01 0. -1.
        -11    1    1    2    0    0  0.59854769604E+02 -0.12825941242E+03 -0.12968822373E+03  0.19196902274E+03  0.00000000000E+00 0. -1.
         11    1    1    2    0    0  0.51694461847E+01 -0.18255365998E+03 -0.28322156308E+03  0.33699705598E+03  0.00000000000E+00 0.  1.
</event>
<event>
 7    1  0.2626349E-009  0.1832565E+03  0.7561462E-02  0.1164688E+00
         -2   -1    0    0    0  501 -0.00000000000E+00  0.00000000000E+00  0.42726872736E+02  0.42726872736E+02  0.00000000000E+00 0.  1.
          2   -1    0    0  501    0  0.00000000000E+00 -0.00000000000E+00 -0.91950112044E+03  0.91950112044E+03  0.00000000000E+00 0. -1.
         25    2    1    2    0    0 -0.71340229410E+02 -0.14166636631E+03 -0.57632088804E+03  0.61069751898E+03  0.12508759342E+03 0.  0.
          5    1    3    3  502    0 -0.24806595043E+02  0.96061102185E+01 -0.20874622223E+03  0.21047589459E+03  0.41800000000E+01 0.  1.
         -5    1    3    3    0  502 -0.46533634367E+02 -0.15127247653E+03 -0.36757466581E+03  0.40022162439E+03  0.41800000000E+01 0.  1.
        -11    1    1    2    0    0  0.44600628961E+02  0.14732670272E+03 -0.23910161290E+03  0.28436588180E+03  0.00000000000E+00 0.  1.
         11    1    1    2    0    0  0.26739600449E+02 -0.56603364108E+01 -0.61351746761E+02  0.67164592391E+02  0.00000000000E+00 0. -1.
</event>
<event>
 7    1  0.2626349E-009  0.9410044E+02  0.7561462E-02  0.1293215E+00
         -1   -1    0    0    0  501 -0.00000000000E+00  0.00000000000E+00  0.42691638169E+03  0.42691638169E+03  0.00000000000E+00 0.  1.
          1   -1    0    0  501    0  0.00000000000E+00 -0.00000000000E+00 -0.61274833448E+02  0.61274833448E+02  0.00000000000E+00 0. -1.
         25    2    1    2    0    0  0.42097476896E+01  0.26014933012E+02  0.37373022799E+03  0.39498844111E+03  0.12508831513E+03 0.  0.
          5    1    3    3  502    0  0.98421929623E+01  0.72118710252E+02  0.15429857551E+03  0.17065608672E+03  0.41800000000E+01 0.  1.
         -5    1    3    3    0  502 -0.56324452727E+01 -0.46103777240E+02  0.21943165248E+03  0.22433235439E+03  0.41800000000E+01 0.  1.
        -11    1    1    2    0    0 -0.26102293891E+02 -0.36106118718E+02 -0.35304989054E+02  0.56845613792E+02  0.00000000000E+00 0. -1.
         11    1    1    2    0    0  0.21892546201E+02  0.10091185706E+02  0.27216309308E+02  0.36357160236E+02  0.00000000000E+00 0.  1.
</event>
<event>
 7    1  0.2626349E-009  0.2628473E+03  0.7561462E-02  0.1105444E+00
          2   -1    0    0  501    0  0.00000000000E+00  0.00000000000E+00  0.27621839910E+04  0.27621839910E+04  0.00000000000E+00 0. -1.
         -2   -1    0    0    0  501 -0.00000000000E+00 -0.00000000000E+00 -0.32898146954E+02  0.32898146954E+02  0.00000000000E+00 0.  1.
         25    2    1    2    0    0 -0.24360369505E+03  0.64334994629E+02  0.19890839614E+04  0.20088761592E+04  0.12508663260E+03 0.  0.
          5    1    3    3  502    0 -0.23298982205E+03  0.38097278823E+02  0.19142824878E+04  0.19287899251E+04  0.41800000000E+01 0. -1.
         -5    1    3    3    0  502 -0.10613872999E+02  0.26237715807E+02  0.74801473694E+02  0.80086234133E+02  0.41800000000E+01 0. -1.
        -11    1    1    2    0    0  0.11852473005E+03 -0.66420826220E+02  0.31668198773E+03  0.34459732898E+03  0.00000000000E+00 0.  1.
         11    1    1    2    0    0  0.12507896500E+03  0.20858315902E+01  0.42351989491E+03  0.44160864978E+03  0.00000000000E+00 0. -1.
</event>
<event>
 7    1  0.2626349E-009  0.1011918E+03  0.7561462E-02  0.1277810E+00
         -1   -1    0    0    0  501 -0.00000000000E+00  0.00000000000E+00  0.46066602142E+03  0.46066602142E+03  0.00000000000E+00 0. -1.
          1   -1    0    0  501    0  0.00000000000E+00 -0.00000000000E+00 -0.30630920427E+02  0.30630920427E+02  0.00000000000E+00 0.  1.
         25    2    1    2    0    0  0.20594519830E+02  0.38523161047E+02  0.21845169770E+03  0.25548967533E+03  0.12508261986E+03 0.  0.
          5    1    3    3  502    0 -0.17667376308E+02 -0.26030149281E+02  0.90383044554E+01  0.32998003040E+02  0.41800000000E+01 0.  1.
         -5    1    3    3    0  502  0.38261896138E+02  0.64553310328E+02  0.20941339324E+03  0.22249167229E+03  0.41800000000E+01 0.  1.
        -11    1    1    2    0    0 -0.32040804815E+02 -0.61766082554E+02  0.18912762480E+03  0.20152151396E+03  0.00000000000E+00 0.  1.
         11    1    1    2    0    0  0.11446284985E+02  0.23242921508E+02  0.22455778499E+02  0.34285752554E+02  0.00000000000E+00 0. -1.
</event>
<event>
 7    1  0.2626349E-009  0.2309732E+03  0.7561462E-02  0.1125957E+00
          1   -1    0    0  501    0  0.00000000000E+00  0.00000000000E+00  0.77251774568E+03  0.77251774568E+03  0.00000000000E+00 0. -1.
         -1   -1    0    0    0  501 -0.00000000000E+00 -0.00000000000E+00 -0.72790537860E+02  0.72790537860E+02  0.00000000000E+00 0.  1.
         25    2    1    2    0    0  0.46244998648E+01  0.20522868441E+03  0.27553642510E+03  0.36566649621E+03  0.12510581916E+03 0.  0.
          5    1    3    3  502    0  0.44626015423E+02  0.19315616651E+03  0.23165603375E+03  0.30493077294E+03  0.41800000000E+01 0.  1.
         -5    1    3    3    0  502 -0.40001515559E+02  0.12072517896E+02  0.43880391357E+02  0.60735723269E+02  0.41800000000E+01 0.  1.
        -11    1    1    2    0    0  0.36731331886E+02 -0.13738973584E+03  0.30320639592E+03  0.33490184948E+03  0.00000000000E+00 0.  1.
         11    1    1    2    0    0 -0.41355831751E+02 -0.67838948570E+02  0.12098438680E+03  0.14473993786E+03  0.00000000000E+00 0. -1.
</event>
<event>
 7    1  0.2626349E-009  0.1084516E+03  0.7561462E-02  0.1263464E+00
          2   -1    0    0  501    0  0.00000000000E+00  0.00000000000E+00  0.19256379539E+03  0.19256379539E+03  0.00000000000E+00 0. -1.
         -2   -1    0    0    0  501 -0.00000000000E+00 -0.00000000000E+00 -0.77158062207E+02  0.77158062207E+02  0.00000000000E+00 0.  1.
         25    2    1    2    0    0 -0.52194771204E+02  0.17245345843E+02  0.27580956362E+02  0.13939195068E+03  0.12509080968E+03 0.  0.
          5    1    3    3  502    0  0.21341173902E+02  0.45630709476E+02  0.32844976087E+02  0.60281607518E+02  0.41800000000E+01 0. -1.
         -5    1    3    3    0  502 -0.73535945106E+02 -0.28385363633E+02 -0.52640197252E+01  0.79110343160E+02  0.41800000000E+01 0. -1.
        -11    1    1    2    0    0  0.63723821667E+02  0.33563338764E+01  0.35727403454E+02  0.73133014313E+02  0.00000000000E+00 0.  1.
         11    1    1    2    0    0 -0.11529050463E+02 -0.20601679719E+02  0.52097373363E+02  0.57196892600E+02  0.00000000000E+00 0. -1.
</event>
<event>
 7    1  0.2626349E-009  0.1609301E+03  0.7561462E-02  0.1187651E+00
         -2   -1    0    0    0  501 -0.00000000000E+00  0.00000000000E+00  0.20369207937E+03  0.20369207937E+03  0.00000000000E+00 0.  1.
          2   -1    0    0  501    0  0.00000000000E+00 -0.00000000000E+00 -0.15170532350E+03  0.15170532350E+03  0.00000000000E+00 0. -1.
         25    2    1    2    0    0 -0.63162792505E+02  0.11497148446E+03  0.85624081116E+02  0.20046438087E+03  0.12508598696E+03 0.  0.
          5    1    3    3  502    0 -0.66835215453E+02  0.14008434281E+03  0.77179343431E+02  0.17339173158E+03  0.41800000000E+01 0. -1.
         -5    1    3    3    0  502  0.36724229471E+01 -0.25112858357E+02  0.84447376842E+01  0.27072649293E+02  0.41800000000E+01 0. -1.
        -11    1    1    2    0    0  0.65730141957E+02 -0.70736838030E+02 -0.48682322468E+02  0.10813935610E+03  0.00000000000E+00 0. -1.
         11    1    1    2    0    0 -0.25673494514E+01 -0.44234646427E+02  0.15044997225E+02  0.46793665910E+02  0.00000000000E+00 0.  1.
</event>
<event>
 7    1  0.2626349E-009  0.1028509E+03  0.7561462E-02  0.1274413E+00
         -1   -1    0    0    0  501 -0.00000000000E+00  0.00000000000E+00  0.35624679162E+02  0.35624679162E+02  0.00000000000E+00 0.  1.
          1   -1    0    0  501    0  0.00000000000E+00 -0.00000000000E+00 -0.35518496649E+03  0.35518496649E+03  0.00000000000E+00 0. -1.
         25    2    1    2    0    0 -0.17195874144E+02 -0.15114924305E+02 -0.14471414731E+03  0.19264806002E+03  0.12508769554E+03 0.  0.
          5    1    3    3  502    0 -0.66318395937E+02 -0.27234920617E+02 -0.58627899853E+02  0.92706923053E+02  0.41800000000E+01 0.  1.
         -5    1    3    3    0  502  0.49122521793E+02  0.12119996312E+02 -0.86086247457E+02  0.99941136972E+02  0.41800000000E+01 0.  1.
        -11    1    1    2    0    0  0.41150377787E+02 -0.15739293699E+02 -0.46736085021E+02  0.64228814416E+02  0.00000000000E+00 0.  1.
         11    1    1    2    0    0 -0.23954503643E+02  0.30854218004E+02 -0.12811005499E+03  0.13393277121E+03  0.00000000000E+00 0. -1.
</event>
<event>
 7    1  0.2626349E-009  0.1251113E+03  0.7561462E-02  0.1234895E+00
         -3   -1    0    0    0  501 -0.00000000000E+00  0.00000000000E+00  0.40581136502E+02  0.40581136502E+02  0.00000000000E+00 0.  1.
          3   -1    0    0  501    0  0.00000000000E+00 -0.00000000000E+00 -0.57099483282E+03  0.57099483282E+03  0.00000000000E+00 0. -1.
         25    2    1    2    0    0  0.88115810090E+02  0.43934711979E+02 -0.36859317242E+03  0.40150026862E+03  0.12508750554E+03 0.  0.
          5    1    3    3  502    0  0.11242214858E+03  0.49228905231E+02 -0.23097786064E+03  0.26159218090E+03  0.41800000000E+01 0. -1.
         -5    1    3    3    0  502 -0.24306338492E+02 -0.52941932523E+01 -0.13761531178E+03  0.13990808772E+03  0.41800000000E+01 0. -1.
        -11    1    1    2    0    0 -0.26772430256E+02 -0.48126665388E-01 -0.12176556490E+03  0.12467404755E+03  0.00000000000E+00 0. -1.
         11    1    1    2    0    0 -0.61343379835E+02 -0.43886585313E+02 -0.40054958996E+02  0.85401653147E+02  0.00000000000E+00 0.  1.
</event>
<event>
 7    1  0.2626349E-009  0.9267736E+02  0.7561462E-02  0.1296495E+00
          1   -1    0    0  501    0  0.00000000000E+00  0.00000000000E+00  0.37136970989E+03  0.37136970989E+03  0.00000000000E+00 0. -1.
         -1   -1    0    0    0  501 -0.00000000000E+00 -0.00000000000E+00 -0.47901395593E+02  0.47901395593E+02  0.00000000000E+00 0.  1.
         25    2    1    2    0    0 -0.33368062036E+02  0.63644251634E+02  0.13672586446E+03  0.19876094028E+03  0.12509169052E+03 0.  0.
          5    1    3    3  502    0 -0.41739488628E+02  0.69516974169E+02  0.15638757232E+03  0.17620822849E+03  0.41800000000E+01 0.  1.
         -5    1    3    3    0  502  0.83714265920E+01 -0.58727225347E+01 -0.19661707860E+02  0.22552711791E+02  0.41800000000E+01 0.  1.
        -11    1    1    2    0    0  0.48351580916E+02 -0.31659963346E+02  0.17335983692E+03  0.18273987445E+03  0.00000000000E+00 0. -1.
         11    1    1    2    0    0 -0.14983518880E+02 -0.31984288288E+02  0.13382612907E+02  0.37770290752E+02  0.00000000000E+00 0.  1.
</event>
<event>
 7    1  0.2626349E-009  0.1114669E+03  0.7561462E-02  0.1257877E+00
         -2   -1    0    0    0  501 -0.00000000000E+00  0.00000000000E+00  0.60064703301E+02  0.60064703301E+02  0.00000000000E+00 0.  1.
          2   -1    0    0  501    0  0.00000000000E+00 -0.00000000000E+00 -0.38203388349E+03  0.38203388349E+03  0.00000000000E+00 0. -1.
         25    2    1    2    0    0  0.48776309723E+02 -0.80128443421E+02 -0.24586773055E+03  0.29137275093E+03  0.12508974067E+03 0.  0.
          5    1    3    3  502    0 -0.15486704076E+02  0.81869976306E+01  0.41725282587E+01  0.18486409208E+02  0.41800000000E+01 0. -1.
         -5    1    3    3    0  502  0.64263013799E+02 -0.88315441052E+02 -0.25004025881E+03  0.27288634172E+03  0.41800000000E+01 0. -1.
        -11    1    1    2    0    0 -0.24269493137E+02  0.56888060210E+02  0.58135251191E+01  0.62121306860E+02  0.00000000000E+00 0.  1.
         11    1    1    2    0    0 -0.24506816586E+02  0.23240383211E+02 -0.81914974759E+02  0.88604529008E+02  0.00000000000E+00 0. -1.
</event>
<event>
 7    1  0.2626349E-009  0.1054860E+03  0.7561462E-02  0.1269165E+00
         -4   -1    0    0    0  501 -0.00000000000E+00  0.00000000000E+00  0.36558515450E+02  0.36558515450E+02  0.00000000000E+00 0.  1.
          4   -1    0    0  501    0  0.00000000000E+00 -0.00000000000E+00 -0.44816987127E+03  0.44816987127E+03  0.00000000000E+00 0. -1.
         25    2    1    2    0    0 -0.69121971076E+02 -0.76438136801E+01 -0.23399616764E+03  0.27429827932E+03  0.12509622214E+03 0.  0.
          5    1    3    3  502    0 -0.81145001008E+02  0.23264482280E+02 -0.78835809107E+02  0.11557813168E+03  0.41800000000E+01 0. -1.
         -5    1    3    3    0  502  0.12023029932E+02 -0.30908295960E+02 -0.15516035853E+03  0.15872014764E+03  0.41800000000E+01 0. -1.
        -11    1    1    2    0    0 -0.10134695178E+02 -0.71488896065E+01  0.28920766751E+01  0.12735100175E+02  0.00000000000E+00 0.  1.
         11    1    1    2    0    0  0.79256666254E+02  0.14792703287E+02 -0.18050726485E+03  0.19769500722E+03  0.00000000000E+00 0. -1.
</event>
<event>
 7    1  0.3038009E-009  0.1219961E+03  0.7561462E-02  0.1239840E+00
         -1   -1    0    0    0  501 -0.00000000000E+00  0.00000000000E+00  0.12149583007E+02  0.12149583007E+02  0.00000000000E+00 0.  1.
          1   -1    0    0  501    0  0.00000000000E+00 -0.00000000000E+00 -0.15546926403E+04  0.15546926403E+04  0.00000000000E+00 0. -1.
         25    2    1    2    0    0  0.16852887793E+02 -0.74240601756E+02 -0.10546373418E+04  0.10647549013E+04  0.12508952926E+03 0.  0.
          5    1    3    3  502    0  0.59150020078E+02 -0.55822354278E+02 -0.89020443048E+03  0.89392184254E+03  0.41800000000E+01 0.  1.
         -5    1    3    3    0  502 -0.42297132285E+02 -0.18418247479E+02 -0.16443291132E+03  0.17083305876E+03  0.41800000000E+01 0.  1.
        -11    1    1    2    0    0  0.31029926654E+02  0.57802730514E+02 -0.22581523273E+03  0.23515214508E+03  0.00000000000E+00 0.  1.
         11    1    1    2    0    0 -0.47882814447E+02  0.16437871242E+02 -0.26209048275E+03  0.26693517692E+03  0.00000000000E+00 0. -1.
</event>
<event>
 7    1  0.2626349E-009  0.1310133E+03  0.7561462E-02  0.1225960E+00
          1   -1    0    0  501    0  0.00000000000E+00  0.00000000000E+00  0.18598477142E+04  0.18598477142E+04  0.00000000000E+00 0. -1.
         -1   -1    0    0    0  501 -0.00000000000E+00 -0.00000000000E+00 -0.13708013531E+02  0.13708013531E+02  0.00000000000E+00 0.  1.
         25    2    1    2    0    0 -0.84137313900E+02  0.72785362738E+02  0.11889906084E+04  0.12007178166E+04  0.12509121346E+03 0.  0.
          5    1    3    3  502    0 -0.45038029706E+02  0.64662940454E+02  0.28183808910E+03  0.29267712732E+03  0.41800000000E+01 0.  1.
         -5    1    3    3    0  502 -0.39099284194E+02  0.81224222841E+01  0.90715251927E+03  0.90804068928E+03  0.41800000000E+01 0.  1.
        -11    1    1    2    0    0  0.89764175649E+02 -0.22738116217E+02  0.37759131422E+03  0.38877992455E+03  0.00000000000E+00 0.  1.
         11    1    1    2    0    0 -0.56268617491E+01 -0.50047246521E+02  0.27955777811E+03  0.28405798661E+03  0.00000000000E+00 0. -1.
</event>
<event>
 7    1  0.2626349E-009  0.9976225E+02  0.7561462E-02  0.1280797E+00
         -2   -1    0    0    0  501 -0.00000000000E+00  0.00000000000E+00  0.26266452422E+02  0.26266452422E+02  0.00000000000E+00 0.  1.
          2   -1    0    0  501    0  0.00000000000E+00 -0.00000000000E+00 -0.66719731239E+03  0.66719731239E+03  0.00000000000E+00 0. -1.
         25    2    1    2    0    0  0.71287492617E+02 -0.23688744675E+02 -0.32728378056E+03  0.35833710080E+03  0.12509093316E+03 0.  0.
          5    1    3    3  502    0  0.72333898408E+02 -0.12651957923E+02 -0.72494215833E+02  0.10327220646E+03  0.41800000000E+01 0. -1.
         -5    1    3    3    0  502 -0.10464057909E+01 -0.11036786752E+02 -0.25478956473E+03  0.25506489434E+03  0.41800000000E+01 0. -1.
        -11    1    1    2    0    0 -0.73716370278E+02  0.49117342167E+02 -0.27400183633E+03  0.28796462085E+03  0.00000000000E+00 0. -1.
         11    1    1    2    0    0  0.24288776608E+01 -0.25428597492E+02 -0.39645243077E+02  0.47162043167E+02  0.00000000000E+00 0.  1.
</event>
<event>
 7    1  0.2626349E-009  0.1091249E+03  0.7561462E-02  0.1262199E+00
          1   -1    0    0  501    0  0.00000000000E+00  0.00000000000E+00  0.72618615092E+02  0.72618615092E+02  0.00000000000E+00 0. -1.
         -1   -1    0    0    0  501 -0.00000000000E+00 -0.00000000000E+00 -0.20593297415E+03  0.20593297415E+03  0.00000000000E+00 0.  1.
         25    2    1    2    0    0  0.16600734144E+02  0.54678817916E+02 -0.61750286618E+02  0.15074892430E+03  0.12508710077E+03 0.  0.
          5    1    3    3  502    0 -0.34182499644E+02  0.54684080855E+02  0.71887332802E+01  0.65022628885E+02  0.41800000000E+01 0. -1.
         -5    1    3    3    0  502  0.50783233789E+02 -0.52629397110E-02 -0.68939019898E+02  0.85726295419E+02  0.41800000000E+01 0. -1.
        -11    1    1    2    0    0  0.30456264013E+02 -0.45460038275E+02 -0.22401210985E+02  0.59127094899E+02  0.00000000000E+00 0. -1.
         11    1    1    2    0    0 -0.47056998157E+02 -0.92187796406E+01 -0.49162861454E+02  0.68675570037E+02  0.00000000000E+00 0.  1.
</event>
<event>
 7    1  0.2626349E-009  0.1463470E+03  0.7561462E-02  0.1205035E+00
          1   -1    0    0  501    0  0.00000000000E+00  0.00000000000E+00  0.10881654489E+03  0.10881654489E+03  0.00000000000E+00 0. -1.
         -1   -1    0    0    0  501 -0.00000000000E+00 -0.00000000000E+00 -0.26529314846E+03  0.26529314846E+03  0.00000000000E+00 0.  1.
         25    2    1    2    0    0 -0.81643288497E+02 -0.10023531107E+03 -0.10451339802E+03  0.20804734132E+03  0.12509157336E+03 0.  0.
          5    1    3    3  502    0  0.35990406914E+01  0.75800937472E+01  0.20288896712E+02  0.22350003241E+02  0.41800000000E+01 0. -1.
         -5    1    3    3    0  502 -0.85242329188E+02 -0.10781540481E+03 -0.12480229473E+03  0.18569733808E+03  0.41800000000E+01 0. -1.
        -11    1    1    2    0    0 -0.12096577286E+02  0.13087991313E+02 -0.31854148483E+02  0.36500814706E+02  0.00000000000E+00 0.  1.
         11    1    1    2    0    0  0.93739865783E+02  0.87147319754E+02 -0.20109057067E+02  0.12956153732E+03  0.00000000000E+00 0. -1.
</event>
<event>
 7    1  0.2626349E-009  0.1455559E+03  0.7561462E-02  0.1206043E+00
          1   -1    0    0  501    0  0.00000000000E+00  0.00000000000E+00  0.33339798364E+03  0.33339798364E+03  0.00000000000E+00 0. -1.
         -1   -1    0    0    0  501 -0.00000000000E+00 -0.00000000000E+00 -0.12991915372E+03  0.12991915372E+03  0.00000000000E+00 0.  1.
         25    2    1    2    0    0 -0.38171497026E+02  0.13712294285E+03  0.22464062771E+03  0.29389022534E+03  0.12509311847E+03 0.  0.
          5    1    3    3  502    0 -0.46329531951E+02  0.96520091150E+02  0.57408360103E+02  0.12155552532E+03  0.41800000000E+01 0.  1.
         -5    1    3    3    0  502  0.81580349243E+01  0.40602851704E+02  0.16723226761E+03  0.17233470001E+03  0.41800000000E+01 0.  1.
        -11    1    1    2    0    0  0.17832073361E+02 -0.61760212416E+02 -0.54759135299E+02  0.84444476295E+02  0.00000000000E+00 0.  1.
         11    1    1    2    0    0  0.20339423665E+02 -0.75362730438E+02  0.33597337517E+02  0.84982435729E+02  0.00000000000E+00 0. -1.
</event>
<event>
 7    1  0.3896804E-009  0.1981541E+03  0.7561462E-02  0.1151306E+00
          1   -1    0    0  501    0  0.00000000000E+00  0.00000000000E+00  0.13316745711E+04  0.13316745711E+04  0.00000000000E+00 0. -1.
         -1   -1    0    0    0  501 -0.00000000000E+00 -0.00000000000E+00 -0.34983266967E+02  0.34983266967E+02  0.00000000000E+00 0.  1.
         25    2    1    2    0    0  0.18230413832E+03  0.37828077277E+02  0.65291737008E+03  0.69037127980E+03  0.12508257089E+03 0.  0.
          5    1    3    3  502    0  0.52813905028E+02  0.28182813505E+02  0.65810782104E+02  0.89062399376E+02  0.41800000000E+01 0. -1.
         -5    1    3    3    0  502  0.12949023329E+03  0.96452637711E+01  0.58710658798E+03  0.60130888043E+03  0.41800000000E+01 0. -1.
        -11    1    1    2    0    0 -0.10372207528E+03  0.23918571575E+02  0.36135046887E+03  0.37670217456E+03  0.00000000000E+00 0. -1.
         11    1    1    2    0    0 -0.78582063039E+02 -0.61746648851E+02  0.28242346523E+03  0.29958438375E+03  0.00000000000E+00 0.  1.
</event>
<event>
 7    1  0.2626349E-009  0.1016466E+03  0.7561462E-02  0.1276871E+00
          2   -1    0    0  501    0  0.00000000000E+00  0.00000000000E+00  0.18380831363E+03  0.18380831363E+03  0.00000000000E+00 0. -1.
         -2   -1    0    0    0  501 -0.00000000000E+00 -0.00000000000E+00 -0.68618332573E+02  0.68618332573E+02  0.00000000000E+00 0.  1.
         25    2    1    2    0    0 -0.33487764149E+02  0.22893345902E+01  0.65584791215E+02  0.14516792558E+03  0.12508273413E+03 0.  0.
          5    1    3    3  502    0  0.34980472740E+02  0.35168159896E+02  0.95437504605E+01  0.50685190307E+02  0.41800000000E+01 0. -1.
         -5    1    3    3    0  502 -0.68468236889E+02 -0.32878825306E+02  0.56041040755E+02  0.94482735275E+02  0.41800000000E+01 0. -1.
        -11    1    1    2    0    0  0.13285274275E+02  0.33672344104E+02 -0.73489905507E+01  0.36936877671E+02  0.00000000000E+00 0.  1.
         11    1    1    2    0    0  0.20202489874E+02 -0.35961678694E+02  0.56954180389E+02  0.70321842946E+02  0.00000000000E+00 0. -1.
</event>
<event>
 7    1  0.2626349E-009  0.1154532E+03  0.7561462E-02  0.1250792E+00
          2   -1    0    0  501    0  0.00000000000E+00  0.00000000000E+00  0.50563374995E+03  0.50563374995E+03  0.00000000000E+00 0. -1.
         -2   -1    0    0    0  501 -0.00000000000E+00 -0.00000000000E+00 -0.32469423314E+02  0.32469423314E+02  0.00000000000E+00 0.  1.
         25    2    1    2    0    0  0.52426674098E+01  0.50672196568E+02  0.36170221310E+03  0.38609819062E+03  0.12509262478E+03 0.  0.
          5    1    3    3  502    0 -0.36700032494E+02  0.76797412445E+02  0.23999191802E+03  0.25467298259E+03  0.41800000000E+01 0. -1.
         -5    1    3    3    0  502  0.41942699904E+02 -0.26125215877E+02  0.12171029507E+03  0.13142520804E+03  0.41800000000E+01 0. -1.
        -11    1    1    2    0    0 -0.33160775940E+02 -0.58375089887E+02  0.10086600197E+03  0.12116616085E+03  0.00000000000E+00 0. -1.
         11    1    1    2    0    0  0.27918108530E+02  0.77028933192E+01  0.10596111565E+02  0.30838821795E+02  0.00000000000E+00 0.  1.
</event>
<event>
 7    1  0.2626349E-009  0.1243826E+03  0.7561462E-02  0.1236037E+00
         -2   -1    0    0    0  501 -0.00000000000E+00  0.00000000000E+00  0.82918610663E+02  0.82918610663E+02  0.00000000000E+00 0.  1.
          2   -1    0    0  501    0  0.00000000000E+00 -0.00000000000E+00 -0.24203774508E+03  0.24203774508E+03  0.00000000000E+00 0. -1.
         25    2    1    2    0    0 -0.71529742767E+02  0.57224964241E+02 -0.89973871813E+02  0.17925838051E+03  0.12508824381E+03 0.  0.
          5    1    3    3  502    0  0.11469473654E+02 -0.22680457897E+02  0.90305746534E+01  0.27294242523E+02  0.41800000000E+01 0.  1.
         -5    1    3    3    0  502 -0.82999216420E+02  0.79905422138E+02 -0.99004446466E+02  0.15196413799E+03  0.41800000000E+01 0.  1.
        -11    1    1    2    0    0 -0.92673540418E+01 -0.11886274112E+02  0.14472405021E+02  0.20895403090E+02  0.00000000000E+00 0.  1.
         11    1    1    2    0    0  0.80797096809E+02 -0.45338690129E+02 -0.83617667628E+02  0.12480257215E+03  0.00000000000E+00 0. -1.
</event>
<event>
 7    1  0.2626349E-009  0.1312961E+03  0.7561462E-02  0.1225545E+00
         -1   -1    0    0    0  501 -0.00000000000E+00  0.00000000000E+00  0.29079951489E+02  0.29079951489E+02  0.00000000000E+00 0.  1.
          1   -1    0    0  501    0  0.00000000000E+00 -0.00000000000E+00 -0.81722852741E+03  0.81722852741E+03  0.00000000000E+00 0. -1.
         25    2    1    2    0    0  0.10844057655E+03 -0.13273019956E+01 -0.40013008827E+03  0.43302838255E+03  0.12509345379E+03 0.  0.
          5    1    3    3  502    0  0.88799683387E+00  0.12863477251E+02 -0.23509855276E+03  0.23548897957E+03  0.41800000000E+01 0. -1.
         -5    1    3    3    0  502  0.10755257972E+03 -0.14190779247E+02 -0.16503153550E+03  0.19753940298E+03  0.41800000000E+01 0. -1.
        -11    1    1    2    0    0 -0.58710775593E+02 -0.43855497008E+02 -0.23496791304E+03  0.24613041248E+03  0.00000000000E+00 0.  1.
         11    1    1    2    0    0 -0.49729800958E+02  0.45182799003E+02 -0.15305057461E+03  0.16714968387E+03  0.00000000000E+00 0. -1.
</event>
<event>
 7    1  0.2626349E-009  0.1416313E+03  0.7561462E-02  0.1211151E+00
         -4   -1    0    0    0  501 -0.00000000000E+00  0.00000000000E+00  0.10029943720E+03  0.10029943720E+03  0.00000000000E+00 0.  1.
          4   -1    0    0  501    0  0.00000000000E+00 -0.00000000000E+00 -0.30111933499E+03  0.30111933499E+03  0.00000000000E+00 0. -1.
         25    2    1    2    0    0 -0.80139980928E+02  0.83810575727E+02 -0.26633799348E+02  0.17263842711E+03  0.12509211845E+03 0.  0.
          5    1    3    3  502    0  0.12708611929E+02  0.10086530056E+02 -0.49115761200E+02  0.51894867800E+02  0.41800000000E+01 0.  1.
         -5    1    3    3    0  502 -0.92848592856E+02  0.73724045671E+02  0.22481961852E+02  0.12074355931E+03  0.41800000000E+01 0.  1.
        -11    1    1    2    0    0  0.97924459002E+02 -0.50651897840E+02 -0.12186956728E+03  0.16433808401E+03  0.00000000000E+00 0.  1.
         11    1    1    2    0    0 -0.17784478074E+02 -0.33158677887E+02 -0.52316531162E+02  0.64442261074E+02  0.00000000000E+00 0. -1.
</event>
<event>
 7    1  0.2626349E-009  0.1120465E+03  0.7561462E-02  0.1256826E+00
         -1   -1    0    0    0  501 -0.00000000000E+00  0.00000000000E+00  0.86932472254E+02  0.86932472254E+02  0.00000000000E+00 0.  1.
          1   -1    0    0  501    0  0.00000000000E+00 -0.00000000000E+00 -0.22951927185E+03  0.22951927185E+03  0.00000000000E+00 0. -1.
         25    2    1    2    0    0 -0.62975253277E+02  0.33083928589E+02 -0.14011486129E+03  0.20084851613E+03  0.12509006045E+03 0.  0.
          5    1    3    3  502    0 -0.58039355444E+02 -0.39629731198E+02 -0.77151630506E+02  0.10444581784E+03  0.41800000000E+01 0. -1.
         -5    1    3    3    0  502 -0.49358978323E+01  0.72713659787E+02 -0.62963230780E+02  0.96402698288E+02  0.41800000000E+01 0. -1.
        -11    1    1    2    0    0  0.42196722259E+02 -0.68786580648E+00 -0.42625752321E+02  0.59983258411E+02  0.00000000000E+00 0. -1.
         11    1    1    2    0    0  0.20778531018E+02 -0.32396062783E+02  0.40153814006E+02  0.55619969565E+02  0.00000000000E+00 0.  1.
</event>
<event>
 7    1  0.2626349E-009  0.2145444E+03  0.7561462E-02  0.1138017E+00
         -2   -1    0    0    0  501 -0.00000000000E+00  0.00000000000E+00  0.24996642237E+03  0.24996642237E+03  0.00000000000E+00 0.  1.
          2   -1    0    0  501    0  0.00000000000E+00 -0.00000000000E+00 -0.28087015282E+03  0.28087015282E+03  0.00000000000E+00 0. -1.
         25    2    1    2    0    0 -0.17821421038E+03 -0.75352286809E+02 -0.15748371200E+03  0.27907936631E+03  0.12508357705E+03 0.  0.
          5    1    3    3  502    0 -0.19266068639E+03 -0.72449097739E+02 -0.16321708213E+03  0.26272476119E+03  0.41800000000E+01 0. -1.
         -5    1    3    3    0  502  0.14446476005E+02 -0.29031890706E+01  0.57333701297E+01  0.16354605125E+02  0.41800000000E+01 0. -1.
        -11    1    1    2    0    0  0.81332917676E+02  0.75560670063E+02  0.30086680309E+02  0.11502028817E+03  0.00000000000E+00 0.  1.
         11    1    1    2    0    0  0.96881292708E+02 -0.20838325390E+00  0.96493301237E+02  0.13673692071E+03  0.00000000000E+00 0. -1.
</event>
<event>
 7    1  0.2626349E-009  0.9873682E+02  0.7561462E-02  0.1282975E+00
         -1   -1    0    0    0  501 -0.00000000000E+00  0.00000000000E+00  0.10993535894E+03  0.10993535894E+03  0.00000000000E+00 0.  1.
          1   -1    0    0  501    0  0.00000000000E+00 -0.00000000000E+00 -0.23558714806E+03  0.23558714806E+03  0.00000000000E+00 0. -1.
         25    2    1    2    0    0 -0.42896027496E+02 -0.39496588357E+02 -0.17982081979E+03  0.22667865127E+03  0.12509050343E+03 0.  0.
          5    1    3    3  502    0  0.10137007949E+02  0.40483964297E+02 -0.53166964226E+02  0.67719338304E+02  0.41800000000E+01 0.  1.
         -5    1    3    3    0  502 -0.53033035446E+02 -0.79980552653E+02 -0.12665385556E+03  0.15895931297E+03  0.41800000000E+01 0.  1.
        -11    1    1    2    0    0  0.99401784042E+01  0.16588972913E+02  0.72271999786E+02  0.74814725303E+02  0.00000000000E+00 0.  1.
         11    1    1    2    0    0  0.32955849092E+02  0.22907615444E+02 -0.18102969122E+02  0.44029130422E+02  0.00000000000E+00 0. -1.
</event>
<event>
 7    1  0.2626349E-009  0.1031657E+03  0.7561462E-02  0.1273776E+00
         -4   -1    0    0    0  501 -0.00000000000E+00  0.00000000000E+00  0.13091331915E+03  0.13091331915E+03  0.00000000000E+00 0.  1.
          4   -1    0    0  501    0  0.00000000000E+00 -0.00000000000E+00 -0.10221037676E+03  0.10221037676E+03  0.00000000000E+00 0. -1.
         25    2    1    2    0    0 -0.18386831377E+02 -0.19447786477E+02 -0.15272149459E+02  0.12883583195E+03  0.12509652705E+03 0.  0.
          5    1    3    3  502    0  0.26175269768E+02  0.42633974540E+02 -0.14662615170E+02  0.52299763060E+02  0.41800000000E+01 0.  1.
         -5    1    3    3    0  502 -0.44562101146E+02 -0.62081761017E+02 -0.60953428977E+00  0.76536068893E+02  0.41800000000E+01 0.  1.
        -11    1    1    2    0    0  0.46689458361E+02  0.28307312458E+01  0.52563857560E+02  0.70362473543E+02  0.00000000000E+00 0.  1.
         11    1    1    2    0    0 -0.28302626984E+02  0.16617055231E+02 -0.85887657059E+01  0.33925390419E+02  0.00000000000E+00 0. -1.
</event>
<event>
 7    1  0.2881990E-009  0.1101851E+03  0.7561462E-02  0.1260228E+00
         -1   -1    0    0    0  501 -0.00000000000E+00  0.00000000000E+00  0.41719729100E+03  0.41719729100E+03  0.00000000000E+00 0. -1.
          1   -1    0    0  501    0  0.00000000000E+00 -0.00000000000E+00 -0.37287139513E+02  0.37287139513E+02  0.00000000000E+00 0.  1.
         25    2    1    2    0    0 -0.61504105270E+02  0.53940487235E+00  0.21906482820E+03  0.25964640035E+03  0.12507521072E+03 0.  0.
          5    1    3    3  502    0 -0.90011041793E+02 -0.29463526448E+02  0.17513299253E+03  0.19914598793E+03  0.41800000000E+01 0.  1.
         -5    1    3    3    0  502  0.28506936522E+02  0.30002931320E+02  0.43931835668E+02  0.60500412419E+02  0.41800000000E+01 0.  1.
        -11    1    1    2    0    0  0.21832909187E+02 -0.28159180445E+02  0.13579865791E+03  0.14039548018E+03  0.00000000000E+00 0. -1.
         11    1    1    2    0    0  0.39671196084E+02  0.27619775573E+02  0.25046665375E+02  0.54442549975E+02  0.00000000000E+00 0.  1.
</event>
<event>
 7    1  0.2626349E-009  0.9786653E+02  0.7561462E-02  0.1284847E+00
          2   -1    0    0  501    0  0.00000000000E+00  0.00000000000E+00  0.76226448224E+03  0.76226448224E+03  0.00000000000E+00 0. -1.
         -2   -1    0    0    0  501 -0.00000000000E+00 -0.00000000000E+00 -0.24844398159E+02  0.24844398159E+02  0.00000000000E+00 0.  1.
         25    2    1    2    0    0  0.40351028864E+02 -0.63956989575E+02  0.30869431164E+03  0.34155301757E+03  0.12509030227E+03 0.  0.
          5    1    3    3  502    0  0.63827656281E+01  0.72378828087E+01  0.22934924961E+03  0.22959023790E+03  0.41800000000E+01 0.  1.
         -5    1    3    3    0  502  0.33968263236E+02 -0.71194872383E+02  0.79345062035E+02  0.11196277966E+03  0.41800000000E+01 0.  1.
        -11    1    1    2    0    0 -0.18949007569E+02  0.78233666410E+02  0.39510351850E+03  0.40321999179E+03  0.00000000000E+00 0. -1.
         11    1    1    2    0    0 -0.21402021295E+02 -0.14276676836E+02  0.33622253939E+02  0.42335871042E+02  0.00000000000E+00 0.  1.
</event>
<event>
 7    1  0.2626349E-009  0.1670914E+03  0.7561462E-02  0.1180915E+00
         -1   -1    0    0    0  501 -0.00000000000E+00  0.00000000000E+00  0.88563167972E+02  0.88563167972E+02  0.00000000000E+00 0.  1.
          1   -1    0    0  501    0  0.00000000000E+00 -0.00000000000E+00 -0.34779036929E+03  0.34779036929E+03  0.00000000000E+00 0. -1.
         25    2    1    2    0    0  0.10696080426E+03  0.86651017847E+02 -0.14392010907E+03  0.23517887332E+03  0.12508833726E+03 0.  0.
          5    1    3    3  502    0  0.11366909509E+03  0.10430828047E+03 -0.14967992334E+03  0.21499402876E+03  0.41800000000E+01 0. -1.
         -5    1    3    3    0  502 -0.67082908325E+01 -0.17657262622E+02  0.57598142683E+01  0.20184844552E+02  0.41800000000E+01 0. -1.
        -11    1    1    2    0    0 -0.33574162763E+02 -0.80069938396E+02 -0.84997161256E+02  0.12150282656E+03  0.00000000000E+00 0.  1.
         11    1    1    2    0    0 -0.73386641494E+02 -0.65810794507E+01 -0.30309930992E+02  0.79671837391E+02  0.00000000000E+00 0. -1.
</event>
<event>
 7    1  0.2626349E-009  0.1048301E+03  0.7561462E-02  0.1270455E+00
         -4   -1    0    0    0  501 -0.00000000000E+00  0.00000000000E+00  0.43444343685E+02  0.43444343685E+02  0.00000000000E+00 0.  1.
          4   -1    0    0  501    0  0.00000000000E+00 -0.00000000000E+00 -0.41808706546E+03  0.41808706546E+03  0.00000000000E+00 0. -1.
         25    2    1    2    0    0 -0.11612762692E+02  0.21391298806E+01 -0.70732740619E+02  0.14419516554E+03  0.12509873315E+03 0.  0.
          5    1    3    3  502    0 -0.65996768404E+02 -0.15339812374E+02 -0.44700171213E+02  0.81280138963E+02  0.41800000000E+01 0. -1.
         -5    1    3    3    0  502  0.54384005712E+02  0.17478942254E+02 -0.26032569407E+02  0.62915026579E+02  0.41800000000E+01 0. -1.
        -11    1    1    2    0    0 -0.66408455097E+01  0.38963392609E+02 -0.83468199003E+02  0.92353597859E+02  0.00000000000E+00 0.  1.
         11    1    1    2    0    0  0.18253608202E+02 -0.41102522490E+02 -0.22044178215E+03  0.22498264574E+03  0.00000000000E+00 0. -1.
</event>
<event>
 7    1  0.2626349E-009  0.9228915E+02  0.7561462E-02  0.1297401E+00
         -1   -1    0    0    0  501 -0.00000000000E+00  0.00000000000E+00  0.31167938181E+02  0.31167938181E+02  0.00000000000E+00 0.  1.
          1   -1    0    0  501    0  0.00000000000E+00 -0.00000000000E+00 -0.55132389733E+03  0.55132389733E+03  0.00000000000E+00 0. -1.
         25    2    1    2    0    0  0.39856377782E+02 -0.57931807979E+02 -0.33549046060E+03  0.36488605021E+03  0.12507339947E+03 0.  0.
          5    1    3    3  502    0 -0.51878535704E+01 -0.79650366234E+01 -0.27228967273E+03  0.27248760322E+03  0.41800000000E+01 0. -1.
         -5    1    3    3    0  502  0.45044231352E+02 -0.49966771355E+02 -0.63200787868E+02  0.92398446983E+02  0.41800000000E+01 0. -1.
        -11    1    1    2    0    0  0.16478114450E+02 -0.94240914674E+01 -0.85612844992E+01  0.20823960913E+02  0.00000000000E+00 0.  1.
         11    1    1    2    0    0 -0.56334492232E+02  0.67355899446E+02 -0.17610421405E+03  0.19678182439E+03  0.00000000000E+00 0. -1.
</event>
<event>
 7    1  0.2626349E-009  0.1025905E+03  0.7561462E-02  0.1274941E+00
          1   -1    0    0  501    0  0.00000000000E+00  0.00000000000E+00  0.36636631976E+03  0.36636631976E+03  0.00000000000E+00 0. -1.
         -1   -1    0    0    0  501 -0.00000000000E+00 -0.00000000000E+00 -0.43971861842E+02  0.43971861842E+02  0.00000000000E+00 0.  1.
         25    2    1    2    0    0  0.30553139106E+02  0.51965613966E+02  0.22170469890E+03  0.26160196585E+03  0.12509474681E+03 0.  0.
          5    1    3    3  502    0 -0.31869566064E+02  0.30257092751E+02  0.18471838907E+02  0.47852294986E+02  0.41800000000E+01 0. -1.
         -5    1    3    3    0  502  0.62422705170E+02  0.21708521215E+02  0.20323286000E+03  0.21374967087E+03  0.41800000000E+01 0. -1.
        -11    1    1    2    0    0 -0.35292767981E+02  0.67303686073E+01  0.77545062085E+02  0.85464109351E+02  0.00000000000E+00 0. -1.
         11    1    1    2    0    0  0.47396288749E+01 -0.58695982573E+02  0.23144696932E+02  0.63272106399E+02  0.00000000000E+00 0.  1.
</event>
<event>
 7    1  0.2814879E-009  0.1185209E+03  0.7561462E-02  0.1245557E+00
         -4   -1    0    0    0  501 -0.00000000000E+00  0.00000000000E+00  0.12820849184E+03  0.12820849184E+03  0.00000000000E+00 0.  1.
          4   -1    0    0  501    0  0.00000000000E+00 -0.00000000000E+00 -0.21305186898E+03  0.21305186898E+03  0.00000000000E+00 0. -1.
         25    2    1    2    0    0 -0.48181857476E+02 -0.10632362173E+03 -0.14337267445E+01  0.17110075255E+03  0.12508880055E+03 0.  0.
          5    1    3    3  502    0 -0.11582023780E+02 -0.21141178031E+02  0.56587365304E+02  0.61649776929E+02  0.41800000000E+01 0. -1.
         -5    1    3    3    0  502 -0.36599833696E+02 -0.85182443703E+02 -0.58021092048E+02  0.10945097562E+03  0.41800000000E+01 0. -1.
        -11    1    1    2    0    0  0.18591952869E+02  0.72424830283E+02  0.69315694697E+00  0.74776314562E+02  0.00000000000E+00 0.  1.
         11    1    1    2    0    0  0.29589904608E+02  0.33898791451E+02 -0.84102807340E+02  0.95383293711E+02  0.00000000000E+00 0. -1.
</event>
<event>
 7    1  0.2626349E-009  0.1677525E+03  0.7561462E-02  0.1180212E+00
         -3   -1    0    0    0  501 -0.00000000000E+00  0.00000000000E+00  0.44501150364E+03  0.44501150364E+03  0.00000000000E+00 0.  1.
          3   -1    0    0  501    0  0.00000000000E+00 -0.00000000000E+00 -0.93826709977E+02  0.93826709977E+02  0.00000000000E+00 0. -1.
         25    2    1    2    0    0 -0.83358966065E+02 -0.11358652950E+03  0.31588685354E+03  0.36781206539E+03  0.12510233529E+03 0.  0.
          5    1    3    3  502    0 -0.10055618130E+02  0.27349728316E+02  0.45937449392E+02  0.54560468762E+02  0.41800000000E+01 0. -1.
         -5    1    3    3    0  502 -0.73303347935E+02 -0.14093625781E+03  0.26994940415E+03  0.31325159662E+03  0.41800000000E+01 0. -1.
        -11    1    1    2    0    0  0.61261059940E+02  0.47648292006E+02  0.59070526407E+02  0.97532580639E+02  0.00000000000E+00 0.  1.
         11    1    1    2    0    0  0.22097906125E+02  0.65938237490E+02 -0.23772586290E+02  0.73493567591E+02  0.00000000000E+00 0. -1.
</event>
<event>
 7    1  0.2626349E-009  0.1048627E+03  0.7561462E-02  0.1270390E+00
          1   -1    0    0  501    0  0.00000000000E+00  0.00000000000E+00  0.50372110507E+02  0.50372110507E+02  0.00000000000E+00 0. -1.
         -1   -1    0    0    0  501 -0.00000000000E+00 -0.00000000000E+00 -0.33908517493E+03  0.33908517493E+03  0.00000000000E+00 0.  1.
         25    2    1    2    0    0  0.66384555050E+02 -0.90025414691E+01 -0.11513252200E+03  0.18272901905E+03  0.12508573811E+03 0.  0.
          5    1    3    3  502    0 -0.34527334948E+02  0.11421759211E+02 -0.45347162745E+02  0.58278907086E+02  0.41800000000E+01 0.  1.
         -5    1    3    3    0  502  0.10091189000E+03 -0.20424300680E+02 -0.69785359260E+02  0.12445011197E+03  0.41800000000E+01 0.  1.
        -11    1    1    2    0    0 -0.10299694378E+02 -0.61290810809E+01  0.90907040116E+01  0.15042946473E+02  0.00000000000E+00 0. -1.
         11    1    1    2    0    0 -0.56084860672E+02  0.15131622550E+02 -0.18267124643E+03  0.19168531991E+03  0.00000000000E+00 0.  1.
</event>
<event>
 7    1  0.2626349E-009  0.3378570E+03  0.7561462E-02  0.1067712E+00
          1   -1    0    0  501    0  0.00000000000E+00  0.00000000000E+00  0.62113699346E+03  0.62113699346E+03  0.00000000000E+00 0. -1.
         -1   -1    0    0    0  501 -0.00000000000E+00 -0.00000000000E+00 -0.33991286955E+03  0.33991286955E+03  0.00000000000E+00 0.  1.
         25    2    1    2    0    0  0.30405859735E+03  0.10648688143E+03 -0.18114133882E+03  0.39019439186E+03  0.12509353410E+03 0.  0.
          5    1    3    3  502    0  0.29161887416E+03  0.64655951422E+02 -0.17418961851E+03  0.34580551675E+03  0.41800000000E+01 0. -1.
         -5    1    3    3    0  502  0.12439723189E+02  0.41830930008E+02 -0.69517203094E+01  0.44388875111E+02  0.41800000000E+01 0. -1.
        -11    1    1    2    0    0 -0.13851864416E+03 -0.93443589319E+02  0.20349516930E+03  0.26330477225E+03  0.00000000000E+00 0. -1.
         11    1    1    2    0    0 -0.16553995319E+03 -0.13043292112E+02  0.25887029343E+03  0.30755069889E+03  0.00000000000E+00 0.  1.
</event>
<event>
 7    1  0.2626349E-009  0.9606459E+02  0.7561462E-02  0.1288796E+00
         -2   -1    0    0    0  501 -0.00000000000E+00  0.00000000000E+00  0.38670075979E+03  0.38670075979E+03  0.00000000000E+00 0. -1.
          2   -1    0    0  501    0  0.00000000000E+00 -0.00000000000E+00 -0.31410702150E+02  0.31410702150E+02  0.00000000000E+00 0.  1.
         25    2    1    2    0    0 -0.10932570164E+02 -0.14234471635E+02  0.19337455723E+03  0.23100700068E+03  0.12509345989E+03 0.  0.
          5    1    3    3  502    0 -0.55764303032E+02  0.29778614860E+02  0.10038882760E+03  0.11870894028E+03  0.41800000000E+01 0.  1.
         -5    1    3    3    0  502  0.44831732868E+02 -0.44013086495E+02  0.92985729630E+02  0.11229806040E+03  0.41800000000E+01 0.  1.
        -11    1    1    2    0    0 -0.26392570431E+02  0.17448222963E+01  0.13913741646E+03  0.14162920898E+03  0.00000000000E+00 0. -1.
         11    1    1    2    0    0  0.37325140595E+02  0.12489649338E+02  0.22778083952E+02  0.45475252276E+02  0.00000000000E+00 0.  1.
</event>
<event>
 7    1  0.2626349E-009  0.2008163E+03  0.7561462E-02  0.1149052E+00
          2   -1    0    0  501    0  0.00000000000E+00  0.00000000000E+00  0.90455730242E+03  0.90455730242E+03  0.00000000000E+00 0. -1.
         -2   -1    0    0    0  501 -0.00000000000E+00 -0.00000000000E+00 -0.54077947957E+02  0.54077947957E+02  0.00000000000E+00 0.  1.
         25    2    1    2    0    0  0.49547279051E+02 -0.16630878283E+03  0.62041588614E+03  0.65625991665E+03  0.12509061641E+03 0.  0.
          5    1    3    3  502    0  0.68300657559E+01 -0.16969432812E+03  0.51855801126E+03  0.54567636767E+03  0.41800000000E+01 0.  1.
         -5    1    3    3    0  502  0.42717213295E+02  0.33855452863E+01  0.10185787488E+03  0.11058354898E+03  0.41800000000E+01 0.  1.
        -11    1    1    2    0    0  0.16253331125E+02  0.99561525350E+01  0.35569844793E+01  0.19389375559E+02  0.00000000000E+00 0.  1.
         11    1    1    2    0    0 -0.65800610176E+02  0.15635263030E+03  0.22650648385E+03  0.28298595818E+03  0.00000000000E+00 0. -1.
</event>
<event>
 7    1  0.2839475E-009  0.9501698E+02  0.7561462E-02  0.1291138E+00
         -1   -1    0    0    0  501 -0.00000000000E+00  0.00000000000E+00  0.11457039124E+03  0.11457039124E+03  0.00000000000E+00 0.  1.
          1   -1    0    0  501    0  0.00000000000E+00 -0.00000000000E+00 -0.16665417478E+03  0.16665417478E+03  0.00000000000E+00 0. -1.
         25    2    1    2    0    0  0.27583643068E+02 -0.69036753976E+02  0.14461427626E+02  0.14622893267E+03  0.12508731789E+03 0.  0.
          5    1    3    3  502    0  0.46645088778E+02 -0.41374565529E+01 -0.38060498520E+02  0.60489311464E+02  0.41800000000E+01 0.  1.
         -5    1    3    3    0  502 -0.19061445710E+02 -0.64899297423E+02  0.52521926146E+02  0.85739621207E+02  0.41800000000E+01 0.  1.
        -11    1    1    2    0    0 -0.21583552178E+02  0.38574133772E+02  0.15839808074E+02  0.46954371902E+02  0.00000000000E+00 0.  1.
         11    1    1    2    0    0 -0.60000908900E+01  0.30462620204E+02 -0.82385019245E+02  0.88041261443E+02  0.00000000000E+00 0. -1.
</event>
<event>
 7    1  0.2626349E-009  0.2203052E+03  0.7561462E-02  0.1133656E+00
          1   -1    0    0  501    0  0.00000000000E+00  0.00000000000E+00  0.29299738851E+03  0.29299738851E+03  0.00000000000E+00 0. -1.
         -1   -1    0    0    0  501 -0.00000000000E+00 -0.00000000000E+00 -0.20284586690E+03  0.20284586690E+03  0.00000000000E+00 0.  1.
         25    2    1    2    0    0  0.85557628496E+02 -0.19501037902E+03 -0.16358175222E+01  0.24697905285E+03  0.12508725326E+03 0.  0.
          5    1    3    3  502    0  0.55600325602E+02 -0.48390223363E+02  0.49378250053E+02  0.88818319634E+02  0.41800000000E+01 0.  1.
         -5    1    3    3    0  502  0.29957302894E+02 -0.14662015566E+03 -0.51014067576E+02  0.15816073322E+03  0.41800000000E+01 0.  1.
        -11    1    1    2    0    0 -0.79659352994E+02  0.13480851684E+03  0.10288934662E+03  0.18736372749E+03  0.00000000000E+00 0. -1.
         11    1    1    2    0    0 -0.58982755019E+01  0.60201862177E+02 -0.11102007485E+02  0.61500475069E+02  0.00000000000E+00 0.  1.
</event>
<event>
 7    1  0.2626349E-009  0.1025302E+03  0.7561462E-02  0.1275064E+00
         -1   -1    0    0    0  501 -0.00000000000E+00  0.00000000000E+00  0.15799611398E+02  0.15799611398E+02  0.00000000000E+00 0.  1.
          1   -1    0    0  501    0  0.00000000000E+00 -0.00000000000E+00 -0.77931409609E+03  0.77931409609E+03  0.00000000000E+00 0. -1.
         25    2    1    2    0    0  0.17078548508E+02  0.92393027567E+01 -0.47656572769E+03  0.49309081131E+03  0.12508642553E+03 0.  0.
          5    1    3    3  502    0  0.35067752775E+01 -0.51977506049E+02 -0.11794450127E+03  0.12900517969E+03  0.41800000000E+01 0. -1.
         -5    1    3    3    0  502  0.13571773231E+02  0.61216808806E+02 -0.35862122643E+03  0.36408563162E+03  0.41800000000E+01 0. -1.
        -11    1    1    2    0    0  0.99573677295E+01  0.35945574768E+02 -0.76809240667E+02  0.85386725955E+02  0.00000000000E+00 0.  1.
         11    1    1    2    0    0 -0.27035916238E+02 -0.45184877525E+02 -0.21013951634E+03  0.21663617023E+03  0.00000000000E+00 0. -1.
</event>
<event>
 7    1  0.2634571E-009  0.1663231E+03  0.7561462E-02  0.1181737E+00
         -2   -1    0    0    0  501 -0.00000000000E+00  0.00000000000E+00  0.10045015572E+03  0.10045015572E+03  0.00000000000E+00 0.  1.
          2   -1    0    0  501    0  0.00000000000E+00 -0.00000000000E+00 -0.42999400379E+03  0.42999400379E+03  0.00000000000E+00 0. -1.
         25    2    1    2    0    0 -0.10690132232E+03  0.11467199635E+03 -0.67442993437E+02  0.21159744618E+03  0.12508941764E+03 0.  0.
          5    1    3    3  502    0 -0.40128752177E+02  0.84938627524E+02  0.21436967875E+02  0.96446374679E+02  0.41800000000E+01 0. -1.
         -5    1    3    3    0  502 -0.66772570144E+02  0.29733368826E+02 -0.88879961313E+02  0.11515107150E+03  0.41800000000E+01 0. -1.
        -11    1    1    2    0    0  0.35394853447E+02 -0.68974874534E+01 -0.13299149857E+02  0.38434858796E+02  0.00000000000E+00 0.  1.
         11    1    1    2    0    0  0.71506468874E+02 -0.10777450890E+03 -0.24880170478E+03  0.28041185453E+03  0.00000000000E+00 0. -1.
</event>
<event>
 7    1  0.2626349E-009  0.1421178E+03  0.7561462E-02  0.1210507E+00
          2   -1    0    0  501    0  0.00000000000E+00  0.00000000000E+00  0.28004952495E+03  0.28004952495E+03  0.00000000000E+00 0.  1.
         -2   -1    0    0    0  501 -0.00000000000E+00 -0.00000000000E+00 -0.76356144737E+02  0.76356144737E+02  0.00000000000E+00 0. -1.
         25    2    1    2    0    0 -0.35772213982E+02 -0.84457785006E+02  0.14978278254E+03  0.21562744685E+03  0.12509014808E+03 0.  0.
          5    1    3    3  502    0  0.54783561080E+01  0.30886662936E+02  0.40630223137E+02  0.51500347233E+02  0.41800000000E+01 0. -1.
         -5    1    3    3    0  502 -0.41250570090E+02 -0.11534444794E+03  0.10915255940E+03  0.16412709961E+03  0.41800000000E+01 0. -1.
        -11    1    1    2    0    0  0.41955911332E+02 -0.32616207166E+01  0.18798756968E+02  0.46090453773E+02  0.00000000000E+00 0. -1.
         11    1    1    2    0    0 -0.61836973501E+01  0.87719405722E+02  0.35111840707E+02  0.94687769068E+02  0.00000000000E+00 0.  1.
</event>
<event>
 7    1  0.6131054E-009  0.1191952E+03  0.7561462E-02  0.1244431E+00
         -2   -1    0    0    0  501 -0.00000000000E+00  0.00000000000E+00  0.73317861997E+02  0.73317861997E+02  0.00000000000E+00 0.  1.
          2   -1    0    0  501    0  0.00000000000E+00 -0.00000000000E+00 -0.24332980935E+03  0.24332980935E+03  0.00000000000E+00 0. -1.
         25    2    1    2    0    0  0.67982894871E+02  0.35147851052E+02 -0.80253663091E+02  0.16716671033E+03  0.12508802171E+03 0.  0.
          5    1    3    3  502    0 -0.31266493579E+02  0.33718613062E+02 -0.16073476783E+02  0.48891385166E+02  0.41800000000E+01 0.  1.
         -5    1    3    3    0  502  0.99249388450E+02  0.14292379897E+01 -0.64180186309E+02  0.11827532517E+03  0.41800000000E+01 0.  1.
        -11    1    1    2    0    0 -0.28661776222E+01 -0.27106503709E+02  0.10875943580E+02  0.29347294019E+02  0.00000000000E+00 0.  1.
         11    1    1    2    0    0 -0.65116717249E+02 -0.80413473434E+01 -0.10063422785E+03  0.12013366700E+03  0.00000000000E+00 0. -1.
</event>
<event>
 7    1  0.2626349E-009  0.1651698E+03  0.7561462E-02  0.1182981E+00
         -2   -1    0    0    0  501 -0.00000000000E+00  0.00000000000E+00  0.37138467931E+02  0.37138467931E+02  0.00000000000E+00 0.  1.
          2   -1    0    0  501    0  0.00000000000E+00 -0.00000000000E+00 -0.86458938625E+03  0.86458938625E+03  0.00000000000E+00 0. -1.
         25    2    1    2    0    0  0.23644894957E+02 -0.13608848934E+03 -0.53008930777E+03  0.56189103863E+03  0.12509079540E+03 0.  0.
          5    1    3    3  502    0  0.24829464282E+01 -0.14893046601E+03 -0.35491017874E+03  0.38492227281E+03  0.41800000000E+01 0. -1.
         -5    1    3    3    0  502  0.21161948529E+02  0.12841976669E+02 -0.17517912902E+03  0.17696876582E+03  0.41800000000E+01 0. -1.
        -11    1    1    2    0    0  0.25097295048E+02  0.68043133946E+02 -0.19222055893E+03  0.20544703836E+03  0.00000000000E+00 0. -1.
         11    1    1    2    0    0 -0.48742190006E+02  0.68045355395E+02 -0.10514105162E+03  0.13438977719E+03  0.00000000000E+00 0.  1.
</event>
<event>
 7    1  0.4418843E-009  0.1329744E+03  0.7561462E-02  0.1223108E+00
          1   -1    0    0  501    0  0.00000000000E+00  0.00000000000E+00  0.11020464898E+04  0.11020464898E+04  0.00000000000E+00 0. -1.
         -1   -1    0    0    0  501 -0.00000000000E+00 -0.00000000000E+00 -0.24021340818E+02  0.24021340818E+02  0.00000000000E+00 0.  1.
         25    2    1    2    0    0  0.14458729304E+02  0.11161046804E+03  0.42602526249E+03  0.45804828536E+03  0.12507899909E+03 0.  0.
          5    1    3    3  502    0 -0.18306413571E+02  0.45437567940E+02  0.35652034842E+02  0.60730859919E+02  0.41800000000E+01 0.  1.
         -5    1    3    3    0  502  0.32765142875E+02  0.66172900103E+02  0.39037322765E+03  0.39731742544E+03  0.41800000000E+01 0.  1.
        -11    1    1    2    0    0  0.31525101774E+02 -0.13152921930E+02  0.10802774896E+03  0.11329971731E+03  0.00000000000E+00 0.  1.
         11    1    1    2    0    0 -0.45983831078E+02 -0.98457546113E+02  0.54397213758E+03  0.55471982800E+03  0.00000000000E+00 0. -1.
</event>
<event>
 7    1  0.2626349E-009  0.1906105E+03  0.7561462E-02  0.1157912E+00
          1   -1    0    0  501    0  0.00000000000E+00  0.00000000000E+00  0.32707497718E+03  0.32707497718E+03  0.00000000000E+00 0. -1.
         -1   -1    0    0    0  501 -0.00000000000E+00 -0.00000000000E+00 -0.13288527686E+03  0.13288527686E+03  0.00000000000E+00 0.  1.
         25    2    1    2    0    0  0.12185936001E+03 -0.12029217387E+03  0.46925363602E+02  0.21718501914E+03  0.12508969611E+03 0.  0.
          5    1    3    3  502    0  0.82151255041E+02 -0.14217139438E+03  0.23319150173E+02  0.16589993746E+03  0.41800000000E+01 0. -1.
         -5    1    3    3    0  502  0.39708104974E+02  0.21879220508E+02  0.23606213429E+02  0.51285081682E+02  0.41800000000E+01 0. -1.
        -11    1    1    2    0    0 -0.76258726602E+02  0.80945901740E+02  0.14469066326E+03  0.18249115164E+03  0.00000000000E+00 0. -1.
         11    1    1    2    0    0 -0.45600633413E+02  0.39346272130E+02  0.25736734522E+01  0.60284083250E+02  0.00000000000E+00 0.  1.
</event>
<event>
 7    1  0.2626349E-009  0.9000272E+02  0.7561462E-02  0.1302845E+00
         -2   -1    0    0    0  501 -0.00000000000E+00  0.00000000000E+00  0.39538418343E+02  0.39538418343E+02  0.00000000000E+00 0.  1.
          2   -1    0    0  501    0  0.00000000000E+00 -0.00000000000E+00 -0.40452659772E+03  0.40452659772E+03  0.00000000000E+00 0. -1.
         25    2    1    2    0    0  0.46180764569E+02  0.26480545701E+02 -0.28203428397E+03  0.31308819829E+03  0.12508797008E+03 0.  0.
          5    1    3    3  502    0  0.68512148632E+02 -0.16659270060E+02 -0.23483869652E+03  0.24523077207E+03  0.41800000000E+01 0.  1.
         -5    1    3    3    0  502 -0.22331384063E+02  0.43139815760E+02 -0.47195587450E+02  0.67857426217E+02  0.41800000000E+01 0.  1.
        -11    1    1    2    0    0 -0.67834765160E+01 -0.19447250244E+02 -0.88237461297E+02  0.90609385120E+02  0.00000000000E+00 0. -1.
         11    1    1    2    0    0 -0.39397288053E+02 -0.70332954566E+01  0.52835658838E+01  0.40367432658E+02  0.00000000000E+00 0.  1.
</event>
<event>
 7    1  0.2626349E-009  0.7680746E+02  0.7561462E-02  0.1338364E+00
          1   -1    0    0  501    0  0.00000000000E+00  0.00000000000E+00  0.10022746009E+03  0.10022746009E+03  0.00000000000E+00 0. -1.
         -1   -1    0    0    0  501 -0.00000000000E+00 -0.00000000000E+00 -0.15188417119E+03  0.15188417119E+03  0.00000000000E+00 0.  1.
         25    2    1    2    0    0  0.42521642697E+02 -0.42010115967E+02 -0.29479877237E+02  0.14173639280E+03  0.12508877624E+03 0.  0.
          5    1    3    3  502    0  0.32775476041E+02  0.10962189232E+02 -0.67313567822E+02  0.75782519326E+02  0.41800000000E+01 0.  1.
         -5    1    3    3    0  502  0.97461666561E+01 -0.52972305199E+02  0.37833690585E+02  0.65953873471E+02  0.41800000000E+01 0.  1.
        -11    1    1    2    0    0 -0.40118388313E+02  0.24293161254E+02 -0.55436587513E+02  0.72614447595E+02  0.00000000000E+00 0.  1.
         11    1    1    2    0    0 -0.24032543845E+01  0.17716954712E+02  0.33259753644E+02  0.37760790887E+02  0.00000000000E+00 0. -1.
</event>
<event>
 7    1  0.2626349E-009  0.1812351E+03  0.7561462E-02  0.1166613E+00
         -1   -1    0    0    0  501 -0.00000000000E+00  0.00000000000E+00  0.66650563513E+02  0.66650563513E+02  0.00000000000E+00 0. -1.
          1   -1    0    0  501    0  0.00000000000E+00 -0.00000000000E+00 -0.56441205871E+03  0.56441205871E+03  0.00000000000E+00 0.  1.
         25    2    1    2    0    0 -0.11038670158E+03 -0.10066587297E+03 -0.16739414872E+03  0.25687893593E+03  0.12508854797E+03 0.  0.
          5    1    3    3  502    0  0.15270343110E+02  0.16357263317E+02 -0.24573823282E+02  0.33497591444E+02  0.41800000000E+01 0. -1.
         -5    1    3    3    0  502 -0.12565704469E+03 -0.11702313629E+03 -0.14282032544E+03  0.22338134449E+03  0.41800000000E+01 0. -1.
        -11    1    1    2    0    0  0.24308757470E+01  0.47582850520E+02 -0.14994333893E+03  0.15733099412E+03  0.00000000000E+00 0.  1.
         11    1    1    2    0    0  0.10795582583E+03  0.53083022453E+02 -0.18042400755E+03  0.21685269218E+03  0.00000000000E+00 0. -1.
</event>
<event>
 7    1  0.2626349E-009  0.1340928E+03  0.7561462E-02  0.1221506E+00
         -2   -1    0    0    0  501 -0.00000000000E+00  0.00000000000E+00  0.35107379199E+02  0.35107379199E+02  0.00000000000E+00 0. -1.
          2   -1    0    0  501    0  0.00000000000E+00 -0.00000000000E+00 -0.62681826842E+03  0.62681826842E+03  0.00000000000E+00 0.  1.
         25    2    1    2    0    0 -0.76108472558E+02 -0.25271144593E+02 -0.45221123885E+03  0.47599812830E+03  0.12509229894E+03 0.  0.
          5    1    3    3  502    0 -0.77646631001E+02  0.35125026537E+02 -0.30768572747E+03  0.31929726915E+03  0.41800000000E+01 0. -1.
         -5    1    3    3    0  502  0.15381584431E+01 -0.60396171130E+02 -0.14452551138E+03  0.15670085915E+03  0.41800000000E+01 0. -1.
        -11    1    1    2    0    0  0.39493894198E+02  0.60002930378E+02 -0.90976253943E+02  0.11591720370E+03  0.00000000000E+00 0. -1.
         11    1    1    2    0    0  0.36614578360E+02 -0.34731785785E+02 -0.48523396424E+02  0.70010315618E+02  0.00000000000E+00 0.  1.
</event>
<event>
 7    1  0.2626349E-009  0.1307938E+03  0.7561462E-02  0.1226283E+00
         -1   -1    0    0    0  501 -0.00000000000E+00  0.00000000000E+00  0.15983151927E+03  0.15983151927E+03  0.00000000000E+00 0. -1.
          1   -1    0    0  501    0  0.00000000000E+00 -0.00000000000E+00 -0.13825786784E+03  0.13825786784E+03  0.00000000000E+00 0.  1.
         25    2    1    2    0    0  0.69550171488E+02  0.52711608490E+02  0.62447571065E+02  0.16481234030E+03  0.12509064058E+03 0.  0.
          5    1    3    3  502    0 -0.60036697539E+01  0.58722328575E+02 -0.98428017695E+01  0.59989241289E+02  0.41800000000E+01 0. -1.
         -5    1    3    3    0  502  0.75553841242E+02 -0.60107200850E+01  0.72290372835E+02  0.10482309901E+03  0.41800000000E+01 0. -1.
        -11    1    1    2    0    0 -0.63662263910E+02  0.91903935951E+01 -0.15827698326E+02  0.66240948173E+02  0.00000000000E+00 0. -1.
         11    1    1    2    0    0 -0.58879075778E+01 -0.61902002085E+02 -0.25046221305E+02  0.67036098630E+02  0.00000000000E+00 0.  1.
</event>
<event>
 7    1  0.2626349E-009  0.7005402E+02  0.7561462E-02  0.1359909E+00
          2   -1    0    0  501    0  0.00000000000E+00  0.00000000000E+00  0.10371220669E+04  0.10371220669E+04  0.00000000000E+00 0. -1.
         -2   -1    0    0    0  501 -0.00000000000E+00 -0.00000000000E+00 -0.19144703985E+02  0.19144703985E+02  0.00000000000E+00 0.  1.
         25    2    1    2    0    0 -0.35067557075E+02 -0.16982490742E+02  0.85833278167E+03  0.86827301468E+03  0.12507887662E+03 0.  0.
          5    1    3    3  502    0 -0.36711820567E+02 -0.12916670559E+01  0.65050835018E+02  0.74823189651E+02  0.41800000000E+01 0.  1.
         -5    1    3    3    0  502  0.16442634910E+01 -0.15690823686E+02  0.79328194665E+03  0.79344982503E+03  0.41800000000E+01 0.  1.
        -11    1    1    2    0    0  0.40352381536E+02 -0.23025702879E+02  0.38610605535E+02  0.60409242244E+02  0.00000000000E+00 0.  1.
         11    1    1    2    0    0 -0.52848244609E+01  0.40008193621E+02  0.12103397568E+03  0.12758451393E+03  0.00000000000E+00 0. -1.
</event>
<event>
 7    1  0.2626349E-009  0.5525786E+02  0.7561462E-02  0.1418883E+00
          2   -1    0    0  501    0  0.00000000000E+00  0.00000000000E+00  0.12050273342E+03  0.12050273342E+03  0.00000000000E+00 0.  1.
         -2   -1    0    0    0  501 -0.00000000000E+00 -0.00000000000E+00 -0.11270768740E+03  0.11270768740E+03  0.00000000000E+00 0. -1.
         25    2    1    2    0    0 -0.87725004049E+01  0.30140266948E+02  0.31527315537E+02  0.13276348650E+03  0.12508708673E+03 0.  0.
          5    1    3    3  502    0 -0.57883784380E+01  0.11594999018E+02  0.79718076679E+02  0.80872699204E+02  0.41800000000E+01 0. -1.
         -5    1    3    3    0  502 -0.29841219669E+01  0.18545267930E+02 -0.48190761141E+02  0.51890787293E+02  0.41800000000E+01 0. -1.
        -11    1    1    2    0    0  0.31562002694E+01 -0.53518801891E+02  0.14268938797E+02  0.55478161202E+02  0.00000000000E+00 0.  1.
         11    1    1    2    0    0  0.56163001355E+01  0.23378534943E+02 -0.38001208314E+02  0.44968773128E+02  0.00000000000E+00 0. -1.
</event>
<event>
 7    1  0.2626349E-009  0.1226737E+03  0.7561462E-02  0.1238750E+00
          2   -1    0    0  501    0  0.00000000000E+00  0.00000000000E+00  0.30986790310E+03  0.30986790310E+03  0.00000000000E+00 0. -1.
         -2   -1    0    0    0  501 -0.00000000000E+00 -0.00000000000E+00 -0.89767917662E+02  0.89767917662E+02  0.00000000000E+00 0.  1.
         25    2    1    2    0    0  0.62794338075E+02 -0.92344923669E+02  0.50085615496E+02  0.17500655387E+03  0.12509201091E+03 0.  0.
          5    1    3    3  502    0  0.28222454990E+02 -0.19621059359E+02  0.81438338848E+02  0.88493888887E+02  0.41800000000E+01 0. -1.
         -5    1    3    3    0  502  0.34571883086E+02 -0.72723864310E+02 -0.31352723352E+02  0.86512664979E+02  0.41800000000E+01 0. -1.
        -11    1    1    2    0    0 -0.37947836351E+01  0.64914518077E+02  0.32930929232E+02  0.72888552874E+02  0.00000000000E+00 0.  1.
         11    1    1    2    0    0 -0.58999554440E+02  0.27430405592E+02  0.13708344071E+03  0.15174071402E+03  0.00000000000E+00 0. -1.
</event>
<event>
 7    1  0.2626349E-009  0.1279729E+03  0.7561462E-02  0.1230495E+00
         -1   -1    0    0    0  501 -0.00000000000E+00  0.00000000000E+00  0.13956580512E+03  0.13956580512E+03  0.00000000000E+00 0.  1.
          1   -1    0    0  501    0  0.00000000000E+00 -0.00000000000E+00 -0.13997225345E+03  0.13997225345E+03  0.00000000000E+00 0. -1.
         25    2    1    2    0    0 -0.62613396486E+02  0.60913045060E+02 -0.56246950544E+01  0.15267786590E+03  0.12509219425E+03 0.  0.
          5    1    3    3  502    0 -0.36776454028E+02  0.95599936994E+02  0.16633144277E+02  0.10385561811E+03  0.41800000000E+01 0. -1.
         -5    1    3    3    0  502 -0.25836942458E+02 -0.34686891934E+02 -0.22257839332E+02  0.48822247790E+02  0.41800000000E+01 0. -1.
        -11    1    1    2    0    0 -0.10403774190E+02  0.50611001373E+01 -0.21913980881E+02  0.24780553062E+02  0.00000000000E+00 0. -1.
         11    1    1    2    0    0  0.73017170676E+02 -0.65974145197E+02  0.27132227612E+02  0.10207963961E+03  0.00000000000E+00 0.  1.
</event>
<event>
 7    1  0.2626349E-009  0.1114656E+03  0.7561462E-02  0.1257880E+00
          2   -1    0    0  501    0  0.00000000000E+00  0.00000000000E+00  0.80434105222E+03  0.80434105222E+03  0.00000000000E+00 0. -1.
         -2   -1    0    0    0  501 -0.00000000000E+00 -0.00000000000E+00 -0.18806129815E+02  0.18806129815E+02  0.00000000000E+00 0.  1.
         25    2    1    2    0    0 -0.44726971921E+01  0.45677455888E+02  0.55357406711E+03  0.56938371719E+03  0.12508850717E+03 0.  0.
          5    1    3    3  502    0 -0.12382696360E+02  0.82808710906E+02  0.25620881187E+03  0.26957566925E+03  0.41800000000E+01 0.  1.
         -5    1    3    3    0  502  0.79099991683E+01 -0.37131255018E+02  0.29736525524E+03  0.29980804794E+03  0.41800000000E+01 0.  1.
        -11    1    1    2    0    0  0.85122407269E+01  0.26899587212E+02  0.89304584924E+02  0.93655511972E+02  0.00000000000E+00 0. -1.
         11    1    1    2    0    0 -0.40395435348E+01 -0.72577043100E+02  0.14265627037E+03  0.16010795287E+03  0.00000000000E+00 0.  1.
</event>
<event>
 7    1  0.2626349E-009  0.7749660E+02  0.7561462E-02  0.1336310E+00
         -3   -1    0    0    0  501 -0.00000000000E+00  0.00000000000E+00  0.28920802645E+03  0.28920802645E+03  0.00000000000E+00 0.  1.
          3   -1    0    0  501    0  0.00000000000E+00 -0.00000000000E+00 -0.46509636632E+02  0.46509636632E+02  0.00000000000E+00 0. -1.
         25    2    1    2    0    0 -0.12115872602E+01  0.40174327548E+01  0.79099354279E+02  0.14805143606E+03  0.12507962330E+03 0.  0.
          5    1    3    3  502    0 -0.36300092315E+02 -0.12361000060E+02  0.97590196068E+02  0.10493717069E+03  0.41800000000E+01 0. -1.
         -5    1    3    3    0  502  0.35088505055E+02  0.16378432815E+02 -0.18490841788E+02  0.43114265371E+02  0.41800000000E+01 0. -1.
        -11    1    1    2    0    0 -0.25887045850E+02  0.26235024951E+02  0.28488819765E+02  0.46583565005E+02  0.00000000000E+00 0. -1.
         11    1    1    2    0    0  0.27098633111E+02 -0.30252457706E+02  0.13511021578E+03  0.14108266201E+03  0.00000000000E+00 0.  1.
</event>
<event>
 7    1  0.2626349E-009  0.1955568E+03  0.7561462E-02  0.1153543E+00
         -1   -1    0    0    0  501 -0.00000000000E+00  0.00000000000E+00  0.19129923880E+03  0.19129923880E+03  0.00000000000E+00 0.  1.
          1   -1    0    0  501    0  0.00000000000E+00 -0.00000000000E+00 -0.25916562584E+03  0.25916562584E+03  0.00000000000E+00 0. -1.
         25    2    1    2    0    0  0.48025718575E+01 -0.16308924199E+03 -0.14217062170E+03  0.24996041200E+03  0.12508619565E+03 0.  0.
          5    1    3    3  502    0  0.45614240839E+02 -0.15684129337E+03 -0.10479149176E+03  0.19410970975E+03  0.41800000000E+01 0. -1.
         -5    1    3    3    0  502 -0.40811668981E+02 -0.62479486228E+01 -0.37379129935E+02  0.55850702249E+02  0.41800000000E+01 0. -1.
        -11    1    1    2    0    0  0.41179857099E+02  0.54579641467E+02  0.28045617062E+02  0.73900436601E+02  0.00000000000E+00 0. -1.
         11    1    1    2    0    0 -0.45982428957E+02  0.10850960052E+03  0.46258617596E+02  0.12660401605E+03  0.00000000000E+00 0.  1.
</event>
<event>
 7    1  0.2626349E-009  0.7406999E+02  0.7561462E-02  0.1346775E+00
          1   -1    0    0  501    0  0.00000000000E+00  0.00000000000E+00  0.92227688347E+02  0.92227688347E+02  0.00000000000E+00 0. -1.
         -1   -1    0    0    0  501 -0.00000000000E+00 -0.00000000000E+00 -0.17585779560E+03  0.17585779560E+03  0.00000000000E+00 0.  1.
         25    2    1    2    0    0  0.47615075741E+02 -0.17119596366E+02 -0.15678239183E+01  0.13494787169E+03  0.12509274153E+03 0.  0.
          5    1    3    3  502    0  0.31632616285E+02 -0.41611232841E+02  0.51952776010E+02  0.73815177617E+02  0.41800000000E+01 0. -1.
         -5    1    3    3    0  502  0.15982459456E+02  0.24491636475E+02 -0.53520599928E+02  0.61132694069E+02  0.41800000000E+01 0. -1.
        -11    1    1    2    0    0 -0.98765826959E+01 -0.14077977445E+02 -0.82396919813E+02  0.84172375097E+02  0.00000000000E+00 0.  1.
         11    1    1    2    0    0 -0.37738493045E+02  0.31197573811E+02  0.33463647753E+00  0.48965237165E+02  0.00000000000E+00 0. -1.
</event>
<event>
 7    1  0.2626349E-009  0.1063264E+03  0.7561462E-02  0.1267528E+00
         -1   -1    0    0    0  501 -0.00000000000E+00  0.00000000000E+00  0.90960957284E+02  0.90960957284E+02  0.00000000000E+00 0.  1.
          1   -1    0    0  501    0  0.00000000000E+00 -0.00000000000E+00 -0.16737430118E+03  0.16737430118E+03  0.00000000000E+00 0. -1.
         25    2    1    2    0    0  0.33065330330E+02 -0.22432463068E+02 -0.87608159625E+02  0.15786003945E+03  0.12509224977E+03 0.  0.
          5    1    3    3  502    0  0.79193626915E+02 -0.20668399777E+02 -0.71593403400E+02  0.10882049946E+03  0.41800000000E+01 0. -1.
         -5    1    3    3    0  502 -0.46128296585E+02 -0.17640632909E+01 -0.16014756226E+02  0.49039539987E+02  0.41800000000E+01 0. -1.
        -11    1    1    2    0    0 -0.51609685060E+02 -0.43282358779E+01  0.32889197860E+02  0.61351385915E+02  0.00000000000E+00 0.  1.
         11    1    1    2    0    0  0.18544354730E+02  0.26760698945E+02 -0.21694382135E+02  0.39123833102E+02  0.00000000000E+00 0. -1.
</event>
<event>
 7    1  0.2793938E-009  0.1627233E+03  0.7561462E-02  0.1185656E+00
          2   -1    0    0  501    0  0.00000000000E+00  0.00000000000E+00  0.26708208355E+03  0.26708208355E+03  0.00000000000E+00 0. -1.
         -2   -1    0    0    0  501 -0.00000000000E+00 -0.00000000000E+00 -0.10482377649E+03  0.10482377649E+03  0.00000000000E+00 0.  1.
         25    2    1    2    0    0 -0.10800663696E+03  0.65434204550E+02  0.71652472307E+02  0.19164651044E+03  0.12508892607E+03 0.  0.
          5    1    3    3  502    0 -0.88665249438E+02  0.10203822787E+03  0.46444371871E+02  0.14299607856E+03  0.41800000000E+01 0. -1.
         -5    1    3    3    0  502 -0.19341387526E+02 -0.36604023323E+02  0.25208100436E+02  0.48650431884E+02  0.41800000000E+01 0. -1.
        -11    1    1    2    0    0  0.43417741097E+02 -0.71573260179E+02  0.23568566578E+02  0.86967287788E+02  0.00000000000E+00 0.  1.
         11    1    1    2    0    0  0.64588895867E+02  0.61390556293E+01  0.67037268174E+02  0.93292061814E+02  0.00000000000E+00 0. -1.
</event>
<event>
 7    1  0.2626349E-009  0.1408382E+03  0.7561462E-02  0.1212206E+00
         -1   -1    0    0    0  501 -0.00000000000E+00  0.00000000000E+00  0.70676738198E+02  0.70676738198E+02  0.00000000000E+00 0.  1.
          1   -1    0    0  501    0  0.00000000000E+00 -0.00000000000E+00 -0.32620938489E+03  0.32620938489E+03  0.00000000000E+00 0. -1.
         25    2    1    2    0    0 -0.83689598986E+02 -0.62352296996E+02 -0.15443539875E+03  0.22447480652E+03  0.12508752318E+03 0.  0.
          5    1    3    3  502    0 -0.59269581159E+02  0.18189155921E+02 -0.11655890675E+03  0.13208777304E+03  0.41800000000E+01 0.  1.
         -5    1    3    3    0  502 -0.24420017827E+02 -0.80541452917E+02 -0.37876491997E+02  0.92387033477E+02  0.41800000000E+01 0.  1.
        -11    1    1    2    0    0  0.30185979217E+01  0.54095358706E+02 -0.62152070388E+02  0.82451801802E+02  0.00000000000E+00 0. -1.
         11    1    1    2    0    0  0.80671001064E+02  0.82569382901E+01 -0.38945177558E+02  0.89959514770E+02  0.00000000000E+00 0.  1.
</event>
<event>
 7    1  0.2626349E-009  0.1005969E+03  0.7561462E-02  0.1279046E+00
         -2   -1    0    0    0  501 -0.00000000000E+00  0.00000000000E+00  0.21118437590E+03  0.21118437590E+03  0.00000000000E+00 0.  1.
          2   -1    0    0  501    0  0.00000000000E+00 -0.00000000000E+00 -0.63808014150E+02  0.63808014150E+02  0.00000000000E+00 0. -1.
         25    2    1    2    0    0  0.26240943441E+02  0.21730444587E+02  0.58978918419E+02  0.14243395860E+03  0.12509244745E+03 0.  0.
          5    1    3    3  502    0 -0.13947285544E+02 -0.47383932502E+02  0.23777765191E+02  0.54978344381E+02  0.41800000000E+01 0. -1.
         -5    1    3    3    0  502  0.40188228985E+02  0.69114377089E+02  0.35201153227E+02  0.87455614216E+02  0.41800000000E+01 0. -1.
        -11    1    1    2    0    0  0.18162987685E+02  0.61002171765E+01  0.76442844627E+02  0.78807456918E+02  0.00000000000E+00 0.  1.
         11    1    1    2    0    0 -0.44403931126E+02 -0.27830661764E+02  0.11954598708E+02  0.53750974539E+02  0.00000000000E+00 0. -1.
</event>
<event>
 7    1  0.2626349E-009  0.2091934E+03  0.7561462E-02  0.1142206E+00
          1   -1    0    0  501    0  0.00000000000E+00  0.00000000000E+00  0.50461473046E+02  0.50461473046E+02  0.00000000000E+00 0. -1.
         -1   -1    0    0    0  501 -0.00000000000E+00 -0.00000000000E+00 -0.10882744279E+04  0.10882744279E+04  0.00000000000E+00 0.  1.
         25    2    1    2    0    0  0.51055041965E+02  0.19833718021E+03 -0.45492688005E+03  0.51434485766E+03  0.12509161462E+03 0.  0.
          5    1    3    3  502    0  0.42121227551E+02  0.62614071768E+02 -0.59597574304E+02  0.96250002892E+02  0.41800000000E+01 0.  1.
         -5    1    3    3    0  502  0.89338144137E+01  0.13572310844E+03 -0.39532930574E+03  0.41809485477E+03  0.41800000000E+01 0.  1.
        -11    1    1    2    0    0 -0.31330649807E+02 -0.67570196576E+02 -0.10629439245E+03  0.12979152110E+03  0.00000000000E+00 0. -1.
         11    1    1    2    0    0 -0.19724392157E+02 -0.13076698363E+03 -0.47659168231E+03  0.49459952214E+03  0.00000000000E+00 0.  1.
</event>
<event>
 7    1  0.2665957E-009  0.1169957E+03  0.7561462E-02  0.1248137E+00
          2   -1    0    0  501    0  0.00000000000E+00  0.00000000000E+00  0.15940686155E+03  0.15940686155E+03  0.00000000000E+00 0. -1.
         -2   -1    0    0    0  501 -0.00000000000E+00 -0.00000000000E+00 -0.12010721762E+03  0.12010721762E+03  0.00000000000E+00 0.  1.
         25    2    1    2    0    0  0.32676975747E+02 -0.76278249308E+02 -0.60555884560E+00  0.15011566693E+03  0.12509272838E+03 0.  0.
          5    1    3    3  502    0  0.79454688848E+02 -0.59503655786E+02  0.73052957403E+01  0.99622148027E+02  0.41800000000E+01 0. -1.
         -5    1    3    3    0  502 -0.46777713101E+02 -0.16774593523E+02 -0.79108545859E+01  0.50493518902E+02  0.41800000000E+01 0. -1.
        -11    1    1    2    0    0 -0.80755463608E+01  0.40816263972E+02 -0.27129738857E+02  0.49670963189E+02  0.00000000000E+00 0.  1.
         11    1    1    2    0    0 -0.24601429386E+02  0.35461985336E+02  0.67034941634E+02  0.79727449048E+02  0.00000000000E+00 0. -1.
</event>
<event>
 7    1  0.2626349E-009  0.2745364E+03  0.7561462E-02  0.1098711E+00
         -1   -1    0    0    0  501 -0.00000000000E+00  0.00000000000E+00  0.86711498155E+02  0.86711498155E+02  0.00000000000E+00 0.  1.
          1   -1    0    0  501    0  0.00000000000E+00 -0.00000000000E+00 -0.94871139176E+03  0.94871139176E+03  0.00000000000E+00 0. -1.
         25    2    1    2    0    0  0.25278877693E+03 -0.61433116910E+02 -0.33949263217E+03  0.44562201347E+03  0.12509011950E+03 0.  0.
          5    1    3    3  502    0  0.51669921279E+02 -0.65266780488E+02 -0.67226549678E+02  0.10708134656E+03  0.41800000000E+01 0.  1.
         -5    1    3    3    0  502  0.20111885565E+03  0.38336635780E+01 -0.27226608249E+03  0.33854066691E+03  0.41800000000E+01 0.  1.
        -11    1    1    2    0    0 -0.11823152031E+03  0.42118229195E+01 -0.16059584847E+03  0.19946793826E+03  0.00000000000E+00 0. -1.
         11    1    1    2    0    0 -0.13455725662E+03  0.57221293991E+02 -0.36191141297E+03  0.39033293819E+03  0.00000000000E+00 0.  1.
</event>
<event>
 7    1  0.2626349E-009  0.9009588E+02  0.7561462E-02  0.1302620E+00
          1   -1    0    0  501    0  0.00000000000E+00  0.00000000000E+00  0.50012035368E+03  0.50012035368E+03  0.00000000000E+00 0. -1.
         -1   -1    0    0    0  501 -0.00000000000E+00 -0.00000000000E+00 -0.28916528174E+02  0.28916528174E+02  0.00000000000E+00 0.  1.
         25    2    1    2    0    0 -0.62893713873E+01 -0.11405208965E+02  0.37700785916E+03  0.39743095273E+03  0.12508717495E+03 0.  0.
          5    1    3    3  502    0  0.37360548519E+02 -0.43854585727E+02  0.10341896172E+03  0.11845669807E+03  0.41800000000E+01 0.  1.
         -5    1    3    3    0  502 -0.43649919907E+02  0.32449376762E+02  0.27358889745E+03  0.27897425467E+03  0.41800000000E+01 0.  1.
        -11    1    1    2    0    0 -0.16579018430E+02  0.32679790676E+02  0.48579539430E+01  0.36965284893E+02  0.00000000000E+00 0.  1.
         11    1    1    2    0    0  0.22868389817E+02 -0.21274581711E+02  0.89338012398E+02  0.94640644223E+02  0.00000000000E+00 0. -1.
</event>
<event>
 7    1  0.2626349E-009  0.2370279E+03  0.7561462E-02  0.1121789E+00
          2   -1    0    0  501    0  0.00000000000E+00  0.00000000000E+00  0.66121355895E+03  0.66121355895E+03  0.00000000000E+00 0. -1.
         -2   -1    0    0    0  501 -0.00000000000E+00 -0.00000000000E+00 -0.10264316311E+03  0.10264316311E+03  0.00000000000E+00 0.  1.
         25    2    1    2    0    0 -0.57351094325E+01  0.22907733727E+03  0.19920837435E+03  0.32839059452E+03  0.12508832172E+03 0.  0.
          5    1    3    3  502    0  0.32502277465E+02  0.11098113808E+03  0.16133129417E+03  0.19854085204E+03  0.41800000000E+01 0. -1.
         -5    1    3    3    0  502 -0.38237386898E+02  0.11809619919E+03  0.37877080175E+02  0.12984974248E+03  0.41800000000E+01 0. -1.
        -11    1    1    2    0    0 -0.14924846993E+02 -0.18335746634E+03  0.32866923942E+03  0.37665127169E+03  0.00000000000E+00 0.  1.
         11    1    1    2    0    0  0.20659956426E+02 -0.45719870926E+02  0.30692782076E+02  0.58814855849E+02  0.00000000000E+00 0. -1.
</event>
<event>
 7    1  0.2626349E-009  0.9871755E+02  0.7561462E-02  0.1283016E+00
          2   -1    0    0  501    0  0.00000000000E+00  0.00000000000E+00  0.73696332444E+03  0.73696332444E+03  0.00000000000E+00 0. -1.
         -2   -1    0    0    0  501 -0.00000000000E+00 -0.00000000000E+00 -0.20234537674E+02  0.20234537674E+02  0.00000000000E+00 0.  1.
         25    2    1    2    0    0  0.96614348727E+01  0.51795119702E+02  0.45708263894E+03  0.47680994419E+03  0.12508839398E+03 0.  0.
          5    1    3    3  502    0  0.36460403150E+02  0.64345276337E+02  0.14060412663E+03  0.15892346715E+03  0.41800000000E+01 0. -1.
         -5    1    3    3    0  502 -0.26798968278E+02 -0.12550156634E+02  0.31647851232E+03  0.31788647705E+03  0.41800000000E+01 0. -1.
        -11    1    1    2    0    0  0.34042234411E+02 -0.24590412994E+02  0.18503490780E+03  0.18974055771E+03  0.00000000000E+00 0.  1.
         11    1    1    2    0    0 -0.43703669283E+02 -0.27204706708E+02  0.74611240021E+02  0.90647360211E+02  0.00000000000E+00 0. -1.
</event>
<event>
 7    1  0.2626349E-009  0.1305461E+03  0.7561462E-02  0.1226648E+00
          3   -1    0    0  501    0  0.00000000000E+00  0.00000000000E+00  0.26057182212E+03  0.26057182212E+03  0.00000000000E+00 0. -1.
         -3   -1    0    0    0  501 -0.00000000000E+00 -0.00000000000E+00 -0.82349003761E+02  0.82349003761E+02  0.00000000000E+00 0.  1.
         25    2    1    2    0    0  0.37912136211E+02  0.86727528726E+02  0.12867977364E+03  0.20289170961E+03  0.12509023692E+03 0.  0.
          5    1    3    3  502    0  0.70826117755E+02  0.14948828758E+02  0.87816678834E+02  0.11388172777E+03  0.41800000000E+01 0.  1.
         -5    1    3    3    0  502 -0.32913981544E+02  0.71778699968E+02  0.40863094811E+02  0.89009981843E+02  0.41800000000E+01 0.  1.
        -11    1    1    2    0    0 -0.17535453943E+02  0.27422057008E+01 -0.18618183095E+02  0.25722530569E+02  0.00000000000E+00 0.  1.
         11    1    1    2    0    0 -0.20376682268E+02 -0.89469734427E+02  0.68161227808E+02  0.11430658570E+03  0.00000000000E+00 0. -1.
</event>
<event>
 7    1  0.2626349E-009  0.1496143E+03  0.7561462E-02  0.1200948E+00
         -2   -1    0    0    0  501 -0.00000000000E+00  0.00000000000E+00  0.22509995223E+02  0.22509995223E+02  0.00000000000E+00 0.  1.
          2   -1    0    0  501    0  0.00000000000E+00 -0.00000000000E+00 -0.11720913807E+04  0.11720913807E+04  0.00000000000E+00 0. -1.
         25    2    1    2    0    0 -0.49739572834E+02  0.11366574036E+03 -0.59377222723E+03  0.61935951858E+03  0.12508728868E+03 0.  0.
          5    1    3    3  502    0 -0.36235361664E+02  0.12671893918E+03 -0.58211294927E+03  0.59686149909E+03  0.41800000000E+01 0.  1.
         -5    1    3    3    0  502 -0.13504211170E+02 -0.13053198819E+02 -0.11659277960E+02  0.22498019497E+02  0.41800000000E+01 0.  1.
        -11    1    1    2    0    0 -0.13110521894E+02 -0.70902835464E+02 -0.28266981923E+03  0.29172131318E+03  0.00000000000E+00 0. -1.
         11    1    1    2    0    0  0.62850094728E+02 -0.42762904895E+02 -0.27313933904E+03  0.28352054418E+03  0.00000000000E+00 0.  1.
</event>
<event>
 7    1  0.2626349E-009  0.1137909E+03  0.7561462E-02  0.1253707E+00
         -2   -1    0    0    0  501 -0.00000000000E+00  0.00000000000E+00  0.32432137206E+02  0.32432137206E+02  0.00000000000E+00 0.  1.
          2   -1    0    0  501    0  0.00000000000E+00 -0.00000000000E+00 -0.63465069128E+03  0.63465069128E+03  0.00000000000E+00 0. -1.
         25    2    1    2    0    0  0.15137450670E+02 -0.82782022602E+02 -0.42314528124E+03  0.44920166121E+03  0.12509275646E+03 0.  0.
          5    1    3    3  502    0 -0.11841810275E+02 -0.73772777373E+02 -0.41139163809E+03  0.41814256354E+03  0.41800000000E+01 0.  1.
         -5    1    3    3    0  502  0.26979260946E+02 -0.90092452296E+01 -0.11753643150E+02  0.31059097670E+02  0.41800000000E+01 0.  1.
        -11    1    1    2    0    0  0.27751917804E+01  0.99474832246E+02 -0.13982252302E+03  0.17161958479E+03  0.00000000000E+00 0.  1.
         11    1    1    2    0    0 -0.17912642451E+02 -0.16692809643E+02 -0.39250749809E+02  0.46261582484E+02  0.00000000000E+00 0. -1.
</event>
<event>
 7    1  0.2626349E-009  0.9450954E+02  0.7561462E-02  0.1292285E+00
          1   -1    0    0  501    0  0.00000000000E+00  0.00000000000E+00  0.72660771267E+03  0.72660771267E+03  0.00000000000E+00 0. -1.
         -1   -1    0    0    0  501 -0.00000000000E+00 -0.00000000000E+00 -0.36352459528E+02  0.36352459528E+02  0.00000000000E+00 0.  1.
         25    2    1    2    0    0  0.73907456017E+01  0.18622075793E+02  0.64717153480E+03  0.65945408840E+03  0.12508914592E+03 0.  0.
          5    1    3    3  502    0  0.57882594303E+02  0.38986308931E+02  0.30174428988E+03  0.30973765655E+03  0.41800000000E+01 0.  1.
         -5    1    3    3    0  502 -0.50491848701E+02 -0.20364233138E+02  0.34542724492E+03  0.34971643185E+03  0.41800000000E+01 0.  1.
        -11    1    1    2    0    0 -0.29588931116E+02  0.71978948856E+01  0.58636152318E+02  0.66072028075E+02  0.00000000000E+00 0. -1.
         11    1    1    2    0    0  0.22198185514E+02 -0.25819970679E+02 -0.15552433969E+02  0.37434055729E+02  0.00000000000E+00 0.  1.
</event>
<event>
 7    1  0.2626349E-009  0.1166157E+03  0.7561462E-02  0.1248787E+00
         -4   -1    0    0    0  501 -0.00000000000E+00  0.00000000000E+00  0.39023483174E+03  0.39023483174E+03  0.00000000000E+00 0.  1.
          4   -1    0    0  501    0  0.00000000000E+00 -0.00000000000E+00 -0.40186349640E+02  0.40186349640E+02  0.00000000000E+00 0. -1.
         25    2    1    2    0    0  0.47361469738E+02  0.35039774320E+02  0.23152006220E+03  0.26966106151E+03  0.12507859245E+03 0.  0.
          5    1    3    3  502    0  0.67301673192E+02 -0.16791165003E+02  0.69267619285E+02  0.98116940016E+02  0.41800000000E+01 0.  1.
         -5    1    3    3    0  502 -0.19940203454E+02  0.51830939323E+02  0.16225244292E+03  0.17154412149E+03  0.41800000000E+01 0.  1.
        -11    1    1    2    0    0  0.88805613701E+00  0.28362339912E+02  0.24265146740E+02  0.37336420762E+02  0.00000000000E+00 0. -1.
         11    1    1    2    0    0 -0.48249525875E+02 -0.63402114232E+02  0.94263273159E+02  0.12342369911E+03  0.00000000000E+00 0.  1.
</event>
<event>
 7    1  0.2626349E-009  0.1074683E+03  0.7561462E-02  0.1265331E+00
         -2   -1    0    0    0  501 -0.00000000000E+00  0.00000000000E+00  0.25839884477E+03  0.25839884477E+03  0.00000000000E+00 0.  1.
          2   -1    0    0  501    0  0.00000000000E+00 -0.00000000000E+00 -0.57309247975E+02  0.57309247975E+02  0.00000000000E+00 0. -1.
         25    2    1    2    0    0 -0.45741518484E+02  0.35246231421E+02  0.94562155983E+02  0.16710578479E+03  0.12509100136E+03 0.  0.
          5    1    3    3  502    0  0.14929773071E+02 -0.27844305344E+02  0.68712163430E+02  0.75743232485E+02  0.41800000000E+01 0. -1.
         -5    1    3    3    0  502 -0.60671291554E+02  0.63090536765E+02  0.25849992553E+02  0.91362552302E+02  0.41800000000E+01 0. -1.
        -11    1    1    2    0    0  0.59034463930E+02 -0.13739448644E+01  0.35776850720E+02  0.69043020671E+02  0.00000000000E+00 0. -1.
         11    1    1    2    0    0 -0.13292945446E+02 -0.33872286556E+02  0.70750590096E+02  0.79559287291E+02  0.00000000000E+00 0.  1.
</event>
<event>
 7    1  0.2626349E-009  0.1208783E+03  0.7561462E-02  0.1241655E+00
          2   -1    0    0  501    0  0.00000000000E+00  0.00000000000E+00  0.11528759623E+03  0.11528759623E+03  0.00000000000E+00 0. -1.
         -2   -1    0    0    0  501 -0.00000000000E+00 -0.00000000000E+00 -0.13996285782E+03  0.13996285782E+03  0.00000000000E+00 0.  1.
         25    2    1    2    0    0  0.46716887890E+01 -0.61449591928E+02 -0.30837706315E+01  0.13948670704E+03  0.12509658178E+03 0.  0.
          5    1    3    3  502    0  0.10921918343E+02  0.35947157410E+02 -0.15810204834E+02  0.40974643416E+02  0.41800000000E+01 0. -1.
         -5    1    3    3    0  502 -0.62502295543E+01 -0.97396749338E+02  0.12726434203E+02  0.98512063619E+02  0.41800000000E+01 0. -1.
        -11    1    1    2    0    0 -0.41811669322E+02  0.54156919965E+02  0.63571451626E+01  0.68713906643E+02  0.00000000000E+00 0. -1.
         11    1    1    2    0    0  0.37139980533E+02  0.72926719626E+01 -0.27948636120E+02  0.47049840375E+02  0.00000000000E+00 0.  1.
</event>
<event>
 7    1  0.2626349E-009  0.1549130E+03  0.7561462E-02  0.1194563E+00
          2   -1    0    0  501    0  0.00000000000E+00  0.00000000000E+00  0.11937131330E+04  0.11937131330E+04  0.00000000000E+00 0. -1.
         -2   -1    0    0    0  501 -0.00000000000E+00 -0.00000000000E+00 -0.20794203762E+02  0.20794203762E+02  0.00000000000E+00 0.  1.
         25    2    1    2    0    0  0.10662388537E+03 -0.29833840112E+02  0.73452407358E+03  0.75328265402E+03  0.12510168357E+03 0.  0.
          5    1    3    3  502    0 -0.27391768100E+02 -0.16637557994E+02  0.13864852392E+03  0.14236573633E+03  0.41800000000E+01 0.  1.
         -5    1    3    3    0  502  0.13401565347E+03 -0.13196282118E+02  0.59587554966E+03  0.61091691769E+03  0.41800000000E+01 0.  1.
        -11    1    1    2    0    0 -0.26762528795E+02 -0.32043395136E+02  0.14697857248E+03  0.15279303939E+03  0.00000000000E+00 0.  1.
         11    1    1    2    0    0 -0.79861356573E+02  0.61877235248E+02  0.29141628314E+03  0.30843164331E+03  0.00000000000E+00 0. -1.
</event>
<event>
 7    1  0.2626349E-009  0.9350155E+02  0.7561462E-02  0.1294587E+00
         -3   -1    0    0    0  501 -0.00000000000E+00  0.00000000000E+00  0.42905153930E+02  0.42905153930E+02  0.00000000000E+00 0.  1.
          3   -1    0    0  501    0  0.00000000000E+00 -0.00000000000E+00 -0.38797657524E+03  0.38797657524E+03  0.00000000000E+00 0. -1.
         25    2    1    2    0    0  0.35027419713E+02 -0.14726211935E+02 -0.29316047242E+03  0.32098953138E+03  0.12508970867E+03 0.  0.
          5    1    3    3  502    0  0.77856581838E+02  0.13303115469E+02 -0.18790694472E+03  0.20387523756E+03  0.41800000000E+01 0. -1.
         -5    1    3    3    0  502 -0.42829162125E+02 -0.28029327404E+02 -0.10525352770E+03  0.11711429381E+03  0.41800000000E+01 0. -1.
        -11    1    1    2    0    0 -0.14564818674E+02  0.28416409497E+02 -0.71580499374E+02  0.78379807108E+02  0.00000000000E+00 0. -1.
         11    1    1    2    0    0 -0.20462601039E+02 -0.13690197562E+02  0.19669550481E+02  0.31512390685E+02  0.00000000000E+00 0.  1.
</event>
<event>
 7    1  0.2626349E-009  0.1280384E+03  0.7561462E-02  0.1230396E+00
         -1   -1    0    0    0  501 -0.00000000000E+00  0.00000000000E+00  0.25085863905E+03  0.25085863905E+03  0.00000000000E+00 0.  1.
          1   -1    0    0  501    0  0.00000000000E+00 -0.00000000000E+00 -0.13629444674E+03  0.13629444674E+03  0.00000000000E+00 0. -1.
         25    2    1    2    0    0 -0.10089652906E+03  0.27362064345E+02  0.18479895177E+03  0.24642643660E+03  0.12508614607E+03 0.  0.
          5    1    3    3  502    0  0.19293198355E+02  0.51455169332E+01  0.88346288596E+02  0.90671070116E+02  0.41800000000E+01 0.  1.
         -5    1    3    3    0  502 -0.12018972741E+03  0.22216547412E+02  0.96452663171E+02  0.15575536648E+03  0.41800000000E+01 0.  1.
        -11    1    1    2    0    0  0.25672438214E+02 -0.28219820473E+02 -0.50779471603E+00  0.38153508448E+02  0.00000000000E+00 0.  1.
         11    1    1    2    0    0  0.75224090845E+02  0.85775612824E+00 -0.69726964747E+02  0.10257314074E+03  0.00000000000E+00 0. -1.
</event>
<event>
 7    1  0.2626349E-009  0.1090892E+03  0.7561462E-02  0.1262266E+00
          2   -1    0    0  501    0  0.00000000000E+00  0.00000000000E+00  0.56825531420E+03  0.56825531420E+03  0.00000000000E+00 0. -1.
         -2   -1    0    0    0  501 -0.00000000000E+00 -0.00000000000E+00 -0.33110594732E+02  0.33110594732E+02  0.00000000000E+00 0.  1.
         25    2    1    2    0    0  0.66198183571E+02 -0.22575324136E+02  0.39461796338E+03  0.41983735376E+03  0.12509285281E+03 0.  0.
          5    1    3    3  502    0  0.67835076908E+02  0.41063566179E+02  0.22714575893E+03  0.24062519055E+03  0.41800000000E+01 0. -1.
         -5    1    3    3    0  502 -0.16368933370E+01 -0.63638890315E+02  0.16747220445E+03  0.17921216321E+03  0.41800000000E+01 0. -1.
        -11    1    1    2    0    0 -0.31392342117E+02 -0.33569884207E+01  0.13396034860E+03  0.13763038732E+03  0.00000000000E+00 0. -1.
         11    1    1    2    0    0 -0.34805841453E+02  0.25932312557E+02  0.65664074866E+01  0.43898167856E+02  0.00000000000E+00 0.  1.
</event>
<event>
 7    1  0.2626349E-009  0.1101946E+03  0.7561462E-02  0.1260210E+00
         -4   -1    0    0    0  501 -0.00000000000E+00  0.00000000000E+00  0.54760956376E+02  0.54760956376E+02  0.00000000000E+00 0.  1.
          4   -1    0    0  501    0  0.00000000000E+00 -0.00000000000E+00 -0.30668576110E+03  0.30668576110E+03  0.00000000000E+00 0. -1.
         25    2    1    2    0    0 -0.36207554678E+02 -0.51643647549E+02 -0.18310115017E+03  0.23054804514E+03  0.12509323153E+03 0.  0.
          5    1    3    3  502    0 -0.28872300547E+02  0.21391225936E+02 -0.33355037921E+01  0.36328945367E+02  0.41800000000E+01 0.  1.
         -5    1    3    3    0  502 -0.73352541306E+01 -0.73034873485E+02 -0.17976564638E+03  0.19421909977E+03  0.41800000000E+01 0.  1.
        -11    1    1    2    0    0  0.28409559027E+02 -0.22437909943E+02 -0.16002929682E+02  0.39581013190E+02  0.00000000000E+00 0.  1.
         11    1    1    2    0    0  0.77979956508E+01  0.74081557492E+02 -0.52820724877E+02  0.91317659153E+02  0.00000000000E+00 0. -1.
</event>
<event>
 7    1  0.2626349E-009  0.1122186E+03  0.7561462E-02  0.1256516E+00
          1   -1    0    0  501    0  0.00000000000E+00  0.00000000000E+00  0.72815455799E+02  0.72815455799E+02  0.00000000000E+00 0. -1.
         -1   -1    0    0    0  501 -0.00000000000E+00 -0.00000000000E+00 -0.19325141716E+03  0.19325141716E+03  0.00000000000E+00 0.  1.
         25    2    1    2    0    0 -0.27349059385E+01 -0.38227114029E+02 -0.10070456877E+03  0.16510142283E+03  0.12509307612E+03 0.  0.
          5    1    3    3  502    0  0.34629412042E+02 -0.70167511646E+02 -0.78784440836E+02  0.11111766910E+03  0.41800000000E+01 0.  1.
         -5    1    3    3    0  502 -0.37364317981E+02  0.31940397617E+02 -0.21920127931E+02  0.53983753728E+02  0.41800000000E+01 0.  1.
        -11    1    1    2    0    0  0.28150840722E+02 -0.19111886137E+02 -0.17367102457E+02  0.38201443334E+02  0.00000000000E+00 0.  1.
         11    1    1    2    0    0 -0.25415934783E+02  0.57339000166E+02 -0.23642901372E+01  0.62764006794E+02  0.00000000000E+00 0. -1.
</event>
<event>
 7    1  0.2626349E-009  0.1082389E+03  0.7561462E-02  0.1263866E+00
          2   -1    0    0  501    0  0.00000000000E+00  0.00000000000E+00  0.66249987030E+03  0.66249987030E+03  0.00000000000E+00 0. -1.
         -2   -1    0    0    0  501 -0.00000000000E+00 -0.00000000000E+00 -0.28545771557E+02  0.28545771557E+02  0.00000000000E+00 0.  1.
         25    2    1    2    0    0  0.79966178950E+02  0.69342245320E+00  0.41473646379E+03  0.44051045135E+03  0.12509217697E+03 0.  0.
          5    1    3    3  502    0 -0.62525783277E+01  0.63848545208E+01 -0.56136704555E+01  0.11351070389E+02  0.41800000000E+01 0. -1.
         -5    1    3    3    0  502  0.86218757278E+02 -0.56914320676E+01  0.42035013425E+03  0.42915938096E+03  0.41800000000E+01 0. -1.
        -11    1    1    2    0    0 -0.45513916601E+02  0.44247537061E+02  0.98287763479E+02  0.11700361358E+03  0.00000000000E+00 0.  1.
         11    1    1    2    0    0 -0.34452262350E+02 -0.44940959514E+02  0.12092987148E+03  0.13353157693E+03  0.00000000000E+00 0. -1.
</event>
<event>
 7    1  0.2626349E-009  0.7955577E+02  0.7561462E-02  0.1330317E+00
         -2   -1    0    0    0  501 -0.00000000000E+00  0.00000000000E+00  0.16552757513E+03  0.16552757513E+03  0.00000000000E+00 0.  1.
          2   -1    0    0  501    0  0.00000000000E+00 -0.00000000000E+00 -0.89613274419E+02  0.89613274419E+02  0.00000000000E+00 0. -1.
         25    2    1    2    0    0 -0.33282828242E+02  0.43226648910E+02  0.32544019812E+02  0.14029431847E+03  0.12508833973E+03 0.  0.
          5    1    3    3  502    0  0.59923375704E+01  0.27219996868E+02 -0.44252607806E+02  0.52465245989E+02  0.41800000000E+01 0.  1.
         -5    1    3    3    0  502 -0.39275165812E+02  0.16006652042E+02  0.76796627618E+02  0.87829072480E+02  0.41800000000E+01 0.  1.
        -11    1    1    2    0    0  0.31752178117E+02  0.11344748970E+02  0.49518938075E+02  0.59908508348E+02  0.00000000000E+00 0.  1.
         11    1    1    2    0    0  0.15306501251E+01 -0.54571397880E+02 -0.61486571797E+01  0.54938022730E+02  0.00000000000E+00 0. -1.
</event>
<event>
 7    1  0.2626349E-009  0.1110944E+03  0.7561462E-02  0.1258556E+00
         -1   -1    0    0    0  501 -0.00000000000E+00  0.00000000000E+00  0.75648712064E+02  0.75648712064E+02  0.00000000000E+00 0.  1.
          1   -1    0    0  501    0  0.00000000000E+00 -0.00000000000E+00 -0.26497203316E+03  0.26497203316E+03  0.00000000000E+00 0. -1.
         25    2    1    2    0    0  0.69353760150E+02 -0.96133628363E+01 -0.32226796810E+02  0.14692915224E+03  0.12508896256E+03 0.  0.
          5    1    3    3  502    0  0.26763663177E+02  0.39781843766E+02 -0.59140592074E+02  0.76249398626E+02  0.41800000000E+01 0.  1.
         -5    1    3    3    0  502  0.42590096972E+02 -0.49395206602E+02  0.26913795263E+02  0.70679753614E+02  0.41800000000E+01 0.  1.
        -11    1    1    2    0    0 -0.50432941567E+02  0.45636163637E+02 -0.70227565567E+02  0.97765290323E+02  0.00000000000E+00 0.  1.
         11    1    1    2    0    0 -0.18920818583E+02 -0.36022800800E+02 -0.86868958721E+02  0.95926302664E+02  0.00000000000E+00 0. -1.
</event>
<event>
 7    1  0.2626349E-009  0.1201073E+03  0.7561462E-02  0.1242920E+00
          1   -1    0    0  501    0  0.00000000000E+00  0.00000000000E+00  0.91804815667E+03  0.91804815667E+03  0.00000000000E+00 0. -1.
         -1   -1    0    0    0  501 -0.00000000000E+00 -0.00000000000E+00 -0.28459938903E+02  0.28459938903E+02  0.00000000000E+00 0.  1.
         25    2    1    2    0    0 -0.21206065086E+02  0.11762064539E+03  0.51254878725E+03  0.54096126680E+03  0.12509404244E+03 0.  0.
          5    1    3    3  502    0 -0.18475773688E+02  0.95485259334E+02  0.15727807313E+03  0.18496662848E+03  0.41800000000E+01 0. -1.
         -5    1    3    3    0  502 -0.27302913980E+01  0.22135386058E+02  0.35527071412E+03  0.35599463832E+03  0.41800000000E+01 0. -1.
        -11    1    1    2    0    0  0.20063624915E+02 -0.77975049069E+02  0.34582726422E+03  0.35507626505E+03  0.00000000000E+00 0.  1.
         11    1    1    2    0    0  0.11424401710E+01 -0.39645596323E+02  0.31212166301E+02  0.50470563723E+02  0.00000000000E+00 0. -1.
</event>
<event>
 7    1  0.2626349E-009  0.5354143E+02  0.7561462E-02  0.1427125E+00
         -1   -1    0    0    0  501 -0.00000000000E+00  0.00000000000E+00  0.60901703995E+02  0.60901703995E+02  0.00000000000E+00 0.  1.
          1   -1    0    0  501    0  0.00000000000E+00 -0.00000000000E+00 -0.21145446010E+03  0.21145446010E+03  0.00000000000E+00 0. -1.
         25    2    1    2    0    0 -0.33603256154E+00 -0.43775156684E+01 -0.12660518377E+03  0.17803388060E+03  0.12509162451E+03 0.  0.
          5    1    3    3  502    0 -0.13345962510E+02  0.14479029873E+02 -0.14621226386E+03  0.14759151576E+03  0.41800000000E+01 0.  1.
         -5    1    3    3    0  502  0.13009929948E+02 -0.18856545542E+02  0.19607080096E+02  0.30442364837E+02  0.41800000000E+01 0.  1.
        -11    1    1    2    0    0 -0.31508448574E+02 -0.92117353494E-01 -0.45692850502E+02  0.55503399934E+02  0.00000000000E+00 0. -1.
         11    1    1    2    0    0  0.31844481136E+02  0.44696330219E+01  0.21745278166E+02  0.38818883558E+02  0.00000000000E+00 0.  1.
</event>
<event>
 7    1  0.2626349E-009  0.5721324E+02  0.7561462E-02  0.1409913E+00
         -1   -1    0    0    0  501 -0.00000000000E+00  0.00000000000E+00  0.23105334867E+02  0.23105334867E+02  0.00000000000E+00 0.  1.
          1   -1    0    0  501    0  0.00000000000E+00 -0.00000000000E+00 -0.78510533064E+03  0.78510533064E+03  0.00000000000E+00 0. -1.
         25    2    1    2    0    0 -0.34326412045E+02 -0.18182249487E+02 -0.62978576334E+03  0.64326226761E+03  0.12508932997E+03 0.  0.
          5    1    3    3  502    0 -0.18454843047E+02  0.87656113152E+01 -0.10821974469E+02  0.23494780379E+02  0.41800000000E+01 0.  1.
         -5    1    3    3    0  502 -0.15871568997E+02 -0.26947860803E+02 -0.61896378887E+03  0.61976748724E+03  0.41800000000E+01 0.  1.
        -11    1    1    2    0    0 -0.95434276294E+01 -0.66290358470E+01  0.92002067438E+01  0.14821097507E+02  0.00000000000E+00 0.  1.
         11    1    1    2    0    0  0.43869839674E+02  0.24811285334E+02 -0.14141443918E+03  0.15012730038E+03  0.00000000000E+00 0. -1.
</event>
<event>
 7    1  0.2626349E-009  0.1084119E+03  0.7561462E-02  0.1263539E+00
         -1   -1    0    0    0  501 -0.00000000000E+00  0.00000000000E+00  0.10222601484E+03  0.10222601484E+03  0.00000000000E+00 0.  1.
          1   -1    0    0  501    0  0.00000000000E+00 -0.00000000000E+00 -0.18491679281E+03  0.18491679281E+03  0.00000000000E+00 0. -1.
         25    2    1    2    0    0  0.59912472577E+02 -0.49848019564E+02 -0.78758070508E+02  0.16710939669E+03  0.12509351450E+03 0.  0.
          5    1    3    3  502    0  0.27456621686E+01 -0.75415904136E+02 -0.71299069191E+02  0.10390441244E+03  0.41800000000E+01 0. -1.
         -5    1    3    3    0  502  0.57166810408E+02  0.25567884572E+02 -0.74590013173E+01  0.63204984253E+02  0.41800000000E+01 0. -1.
        -11    1    1    2    0    0 -0.46192631118E+02  0.43150284795E+02 -0.44091828648E+02  0.77070069424E+02  0.00000000000E+00 0. -1.
         11    1    1    2    0    0 -0.13719841458E+02  0.66977347689E+01  0.40159121185E+02  0.42963341526E+02  0.00000000000E+00 0.  1.
</event>
<event>
 7    1  0.2626349E-009  0.1051678E+03  0.7561462E-02  0.1269789E+00
         -1   -1    0    0    0  501 -0.00000000000E+00  0.00000000000E+00  0.46246472714E+02  0.46246472714E+02  0.00000000000E+00 0.  1.
          1   -1    0    0  501    0  0.00000000000E+00 -0.00000000000E+00 -0.37071822184E+03  0.37071822184E+03  0.00000000000E+00 0. -1.
         25    2    1    2    0    0 -0.56143028115E+02 -0.38362614602E+02 -0.21625675528E+03  0.25891463787E+03  0.12508427437E+03 0.  0.
          5    1    3    3  502    0  0.23987034356E+02 -0.28297050680E+02 -0.11967710329E+02  0.39202032918E+02  0.41800000000E+01 0.  1.
         -5    1    3    3    0  502 -0.80130062471E+02 -0.10065563922E+02 -0.20428904495E+03  0.21971260495E+03  0.41800000000E+01 0.  1.
        -11    1    1    2    0    0 -0.13790366172E+02  0.51859565105E+01  0.92346192380E+01  0.17388114807E+02  0.00000000000E+00 0.  1.
         11    1    1    2    0    0  0.69933394287E+02  0.33176658092E+02 -0.11744961309E+03  0.14066194188E+03  0.00000000000E+00 0. -1.
</event>
<event>
 7    1  0.3256374E-009  0.1083974E+03  0.7561462E-02  0.1263567E+00
         -2   -1    0    0    0  501 -0.00000000000E+00  0.00000000000E+00  0.78452492400E+02  0.78452492400E+02  0.00000000000E+00 0. -1.
          2   -1    0    0  501    0  0.00000000000E+00 -0.00000000000E+00 -0.17208629229E+03  0.17208629229E+03  0.00000000000E+00 0.  1.
         25    2    1    2    0    0 -0.24480018226E+02 -0.74954314247E+01 -0.16802039532E+02  0.12877984283E+03  0.12508591688E+03 0.  0.
          5    1    3    3  502    0 -0.54168481932E+02 -0.48355016552E+02 -0.26064775600E+02  0.77261096210E+02  0.41800000000E+01 0. -1.
         -5    1    3    3    0  502  0.29688463706E+02  0.40859585127E+02  0.92627360673E+01  0.51518746622E+02  0.41800000000E+01 0. -1.
        -11    1    1    2    0    0 -0.34295904592E+02  0.34453872548E+01 -0.37425347485E+02  0.50879626566E+02  0.00000000000E+00 0.  1.
         11    1    1    2    0    0  0.58775922818E+02  0.40500441699E+01 -0.39406412875E+02  0.70879315294E+02  0.00000000000E+00 0. -1.
</event>
<event>
 7    1  0.2626349E-009  0.1241587E+03  0.7561462E-02  0.1236390E+00
         -1   -1    0    0    0  501 -0.00000000000E+00  0.00000000000E+00  0.16262910376E+03  0.16262910376E+03  0.00000000000E+00 0.  1.
          1   -1    0    0  501    0  0.00000000000E+00 -0.00000000000E+00 -0.11003391062E+03  0.11003391062E+03  0.00000000000E+00 0. -1.
         25    2    1    2    0    0 -0.51314871877E+02  0.32445451351E+02 -0.20040595414E+02  0.14048126092E+03  0.12508971107E+03 0.  0.
          5    1    3    3  502    0 -0.88214952755E+02  0.45427186318E+02 -0.95737437003E+01  0.99772922754E+02  0.41800000000E+01 0. -1.
         -5    1    3    3    0  502  0.36900080878E+02 -0.12981734967E+02 -0.10466851714E+02  0.40708338168E+02  0.41800000000E+01 0. -1.
        -11    1    1    2    0    0 -0.24801643629E+02  0.42529855214E+01  0.23513707022E+02  0.34439858166E+02  0.00000000000E+00 0.  1.
         11    1    1    2    0    0  0.76116515506E+02 -0.36698436872E+02  0.49122081529E+02  0.97741895293E+02  0.00000000000E+00 0. -1.
</event>
<event>
 7    1  0.2626349E-009  0.1008475E+03  0.7561462E-02  0.1278524E+00
          1   -1    0    0  501    0  0.00000000000E+00  0.00000000000E+00  0.39737279228E+03  0.39737279228E+03  0.00000000000E+00 0. -1.
         -1   -1    0    0    0  501 -0.00000000000E+00 -0.00000000000E+00 -0.31275598814E+02  0.31275598814E+02  0.00000000000E+00 0.  1.
         25    2    1    2    0    0  0.96765325606E+01  0.23098021107E+02  0.18511720133E+03  0.22481986463E+03  0.12509372263E+03 0.  0.
          5    1    3    3  502    0  0.57959332480E+02  0.29364466036E+01  0.15200072347E+03  0.16275625726E+03  0.41800000000E+01 0. -1.
         -5    1    3    3    0  502 -0.48282799919E+02  0.20161574503E+02  0.33116477860E+02  0.62063607375E+02  0.41800000000E+01 0. -1.
        -11    1    1    2    0    0  0.65408101569E+01 -0.54918314836E+02  0.84899205309E+02  0.10132461973E+03  0.00000000000E+00 0.  1.
         11    1    1    2    0    0 -0.16217342717E+02  0.31820293730E+02  0.96080786821E+02  0.10250390673E+03  0.00000000000E+00 0. -1.
</event>
<event>
 7    1  0.2626349E-009  0.1560575E+03  0.7561462E-02  0.1193221E+00
          1   -1    0    0  501    0  0.00000000000E+00  0.00000000000E+00  0.42541605148E+03  0.42541605148E+03  0.00000000000E+00 0. -1.
         -1   -1    0    0    0  501 -0.00000000000E+00 -0.00000000000E+00 -0.91314590478E+02  0.91314590478E+02  0.00000000000E+00 0.  1.
         25    2    1    2    0    0  0.54324255244E+02 -0.10006642477E+03  0.33167842920E+03  0.37232047644E+03  0.12509013832E+03 0.  0.
          5    1    3    3  502    0 -0.17657434996E+02 -0.94590000857E+02  0.20381237605E+03  0.22542406771E+03  0.41800000000E+01 0.  1.
         -5    1    3    3    0  502  0.71981690240E+02 -0.54764239147E+01  0.12786605315E+03  0.14689640873E+03  0.41800000000E+01 0.  1.
        -11    1    1    2    0    0 -0.68331006772E+02  0.34695122195E+02 -0.67381596312E+01  0.76930363224E+02  0.00000000000E+00 0.  1.
         11    1    1    2    0    0  0.14006751528E+02  0.65371302576E+02  0.91611914295E+01  0.67479802292E+02  0.00000000000E+00 0. -1.
</event>
<event>
 7    1  0.2626349E-009  0.3068889E+03  0.7561462E-02  0.1081847E+00
         -2   -1    0    0    0  501 -0.00000000000E+00  0.00000000000E+00  0.17579241155E+03  0.17579241155E+03  0.00000000000E+00 0.  1.
          2   -1    0    0  501    0  0.00000000000E+00 -0.00000000000E+00 -0.56179906062E+03  0.56179906062E+03  0.00000000000E+00 0. -1.
         25    2    1    2    0    0  0.94043011535E+02  0.27938683876E+03 -0.20444287914E+03  0.37992819391E+03  0.12508975979E+03 0.  0.
          5    1    3    3  502    0  0.83205311960E+02  0.11718896814E+03 -0.41333390734E+02  0.14960715151E+03  0.41800000000E+01 0. -1.
         -5    1    3    3    0  502  0.10837699576E+02  0.16219787061E+03 -0.16310948841E+03  0.23032104240E+03  0.41800000000E+01 0. -1.
        -11    1    1    2    0    0  0.13847059414E+02 -0.74976521090E+02 -0.56197623278E+02  0.94717435730E+02  0.00000000000E+00 0. -1.
         11    1    1    2    0    0 -0.10789007095E+03 -0.20441031767E+03 -0.12536614665E+03  0.26294584253E+03  0.00000000000E+00 0.  1.
</event>
<event>
 7    1  0.2626349E-009  0.1429671E+03  0.7561462E-02  0.1209391E+00
         -2   -1    0    0    0  501 -0.00000000000E+00  0.00000000000E+00  0.34550661461E+02  0.34550661461E+02  0.00000000000E+00 0.  1.
          2   -1    0    0  501    0  0.00000000000E+00 -0.00000000000E+00 -0.73309617285E+03  0.73309617285E+03  0.00000000000E+00 0. -1.
         25    2    1    2    0    0  0.77976648157E+02  0.50586080420E+02 -0.20829861061E+03  0.26014101451E+03  0.12508288076E+03 0.  0.
          5    1    3    3  502    0 -0.33798046166E+02  0.20953073648E+02 -0.48769933443E+02  0.63065981543E+02  0.41800000000E+01 0. -1.
         -5    1    3    3    0  502  0.11177469432E+03  0.29633006772E+02 -0.15952867717E+03  0.19707503297E+03  0.41800000000E+01 0. -1.
        -11    1    1    2    0    0 -0.87517588088E+02 -0.94694249963E+01 -0.30094385924E+03  0.31355414947E+03  0.00000000000E+00 0. -1.
         11    1    1    2    0    0  0.95409399315E+01 -0.41116655424E+02 -0.18930304154E+03  0.19395167033E+03  0.00000000000E+00 0.  1.
</event>
<event>
 7    1  0.2626349E-009  0.4009130E+03  0.7561462E-02  0.1043464E+00
          2   -1    0    0  501    0  0.00000000000E+00  0.00000000000E+00  0.26765368913E+04  0.26765368913E+04  0.00000000000E+00 0. -1.
         -2   -1    0    0    0  501 -0.00000000000E+00 -0.00000000000E+00 -0.62868208625E+02  0.62868208625E+02  0.00000000000E+00 0.  1.
         25    2    1    2    0    0  0.34793745866E+03  0.18737410320E+03  0.13379817684E+04  0.14007185467E+04  0.12509078668E+03 0.  0.
          5    1    3    3  502    0  0.42306350461E+02  0.60302989163E+02  0.14539875980E+03  0.16304769100E+03  0.41800000000E+01 0.  1.
         -5    1    3    3    0  502  0.30563110820E+03  0.12707111404E+03  0.11925830086E+04  0.12376708557E+04  0.41800000000E+01 0.  1.
        -11    1    1    2    0    0 -0.10521767822E+03 -0.37189381878E+02  0.49594989268E+03  0.50835037719E+03  0.00000000000E+00 0. -1.
         11    1    1    2    0    0 -0.24271978045E+03 -0.15018472132E+03  0.77973702166E+03  0.83033617606E+03  0.00000000000E+00 0.  1.
</event>
<event>
 7    1  0.2626349E-009  0.2500401E+03  0.7561462E-02  0.1113279E+00
          2   -1    0    0  501    0  0.00000000000E+00  0.00000000000E+00  0.13958506529E+04  0.13958506529E+04  0.00000000000E+00 0. -1.
         -2   -1    0    0    0  501 -0.00000000000E+00 -0.00000000000E+00 -0.56959806199E+02  0.56959806199E+02  0.00000000000E+00 0.  1.
         25    2    1    2    0    0  0.22562791344E+03 -0.95314297517E+02  0.91079271286E+03  0.95141150359E+03  0.12509081793E+03 0.  0.
          5    1    3    3  502    0  0.16130292800E+03 -0.89171704342E+02  0.81631276836E+03  0.83687169603E+03  0.41800000000E+01 0. -1.
         -5    1    3    3    0  502  0.64324985432E+02 -0.61425931757E+01  0.94479944505E+02  0.11453980756E+03  0.41800000000E+01 0. -1.
        -11    1    1    2    0    0 -0.12868365947E+03  0.24696135974E+02  0.29163909096E+03  0.31972291554E+03  0.00000000000E+00 0. -1.
         11    1    1    2    0    0 -0.96944253965E+02  0.70618161544E+02  0.13645904290E+03  0.18167603999E+03  0.00000000000E+00 0.  1.
</event>
<event>
 7    1  0.2626349E-009  0.9422526E+02  0.7561462E-02  0.1292931E+00
         -2   -1    0    0    0  501 -0.00000000000E+00  0.00000000000E+00  0.26733698689E+02  0.26733698689E+02  0.00000000000E+00 0. -1.
          2   -1    0    0  501    0  0.00000000000E+00 -0.00000000000E+00 -0.44277403700E+03  0.44277403700E+03  0.00000000000E+00 0.  1.
         25    2    1    2    0    0  0.16897952782E+01 -0.14365763921E+01 -0.20925741879E+03  0.24380824590E+03  0.12509546070E+03 0.  0.
          5    1    3    3  502    0 -0.48196241515E+02  0.79305169845E+01 -0.17666971866E+03  0.18334511907E+03  0.41800000000E+01 0. -1.
         -5    1    3    3    0  502  0.49886036793E+02 -0.93670933765E+01 -0.32587700128E+02  0.60463126820E+02  0.41800000000E+01 0. -1.
        -11    1    1    2    0    0 -0.11440897923E+02 -0.42231822650E+02 -0.78971201218E+02  0.90282177706E+02  0.00000000000E+00 0. -1.
         11    1    1    2    0    0  0.97511026444E+01  0.43668399042E+02 -0.12781171830E+03  0.13541731208E+03  0.00000000000E+00 0.  1.
</event>
<event>
 7    1  0.2626349E-009  0.1608358E+03  0.7561462E-02  0.1187756E+00
         -1   -1    0    0    0  501 -0.00000000000E+00  0.00000000000E+00  0.24509389916E+03  0.24509389916E+03  0.00000000000E+00 0.  1.
          1   -1    0    0  501    0  0.00000000000E+00 -0.00000000000E+00 -0.13449041126E+03  0.13449041126E+03  0.00000000000E+00 0. -1.
         25    2    1    2    0    0 -0.28662523564E+02 -0.13271581523E+03  0.11342459482E+03  0.21667337082E+03  0.12508870070E+03 0.  0.
          5    1    3    3  502    0 -0.75119000254E+02 -0.54326243696E+02  0.48489811229E+02  0.10470405506E+03  0.41800000000E+01 0.  1.
         -5    1    3    3    0  502  0.46456476691E+02 -0.78389571535E+02  0.64934783587E+02  0.11196931576E+03  0.41800000000E+01 0.  1.
        -11    1    1    2    0    0  0.27124795056E+02  0.72314633497E+02  0.41780692459E+02  0.87811086925E+02  0.00000000000E+00 0.  1.
         11    1    1    2    0    0  0.15377285077E+01  0.60401181734E+02 -0.44601799375E+02  0.75099852672E+02  0.00000000000E+00 0. -1.
</event>
<event>
 7    1  0.2626349E-009  0.3354199E+03  0.7561462E-02  0.1068764E+00
         -2   -1    0    0    0  501 -0.00000000000E+00  0.00000000000E+00  0.46034758529E+02  0.46034758529E+02  0.00000000000E+00 0.  1.
          2   -1    0    0  501    0  0.00000000000E+00 -0.00000000000E+00 -0.26474019507E+04  0.26474019507E+04  0.00000000000E+00 0. -1.
         25    2    1    2    0    0  0.21334876878E+02 -0.31639824312E+03 -0.16906671748E+04  0.17246930231E+04  0.12508997844E+03 0.  0.
          5    1    3    3  502    0  0.67061065910E+02 -0.25773243067E+03 -0.13086398721E+04  0.13354695728E+04  0.41800000000E+01 0.  1.
         -5    1    3    3    0  502 -0.45726189032E+02 -0.58665812449E+02 -0.38202730265E+03  0.38922345032E+03  0.41800000000E+01 0.  1.
        -11    1    1    2    0    0  0.13151310684E+02  0.15262952348E+01 -0.29235609310E+02  0.32093728384E+02  0.00000000000E+00 0.  1.
         11    1    1    2    0    0 -0.34486187563E+02  0.31487194789E+03 -0.88146440809E+03  0.93664995779E+03  0.00000000000E+00 0. -1.
</event>
<event>
 7    1  0.2626349E-009  0.9420124E+02  0.7561462E-02  0.1292985E+00
          2   -1    0    0  501    0  0.00000000000E+00  0.00000000000E+00  0.66832944389E+02  0.66832944389E+02  0.00000000000E+00 0. -1.
         -2   -1    0    0    0  501 -0.00000000000E+00 -0.00000000000E+00 -0.19485447320E+03  0.19485447320E+03  0.00000000000E+00 0.  1.
         25    2    1    2    0    0 -0.12247409949E+02  0.52352011157E+01 -0.11380238203E+03  0.16963681474E+03  0.12509300691E+03 0.  0.
          5    1    3    3  502    0  0.47572562821E+02  0.28940982419E+02 -0.28465275900E+02  0.62677536078E+02  0.41800000000E+01 0.  1.
         -5    1    3    3    0  502 -0.59819972771E+02 -0.23705781303E+02 -0.85337106130E+02  0.10695927866E+03  0.41800000000E+01 0.  1.
        -11    1    1    2    0    0  0.18901182422E+01  0.30661175604E+02 -0.37156312279E+02  0.48210701909E+02  0.00000000000E+00 0.  1.
         11    1    1    2    0    0  0.10357291707E+02 -0.35896376720E+02  0.22937165498E+02  0.43839900937E+02  0.00000000000E+00 0. -1.
</event>
<event>
 7    1  0.2626349E-009  0.1253010E+03  0.7561462E-02  0.1234600E+00
         -1   -1    0    0    0  501 -0.00000000000E+00  0.00000000000E+00  0.12949200686E+03  0.12949200686E+03  0.00000000000E+00 0.  1.
          1   -1    0    0  501    0  0.00000000000E+00 -0.00000000000E+00 -0.16066002528E+03  0.16066002528E+03  0.00000000000E+00 0. -1.
         25    2    1    2    0    0 -0.72560862035E+02 -0.75246366058E+01  0.43604173740E+02  0.15123020669E+03  0.12509017785E+03 0.  0.
          5    1    3    3  502    0 -0.81831737918E+02  0.38427807692E+02  0.50540008631E+02  0.10365758345E+03  0.41800000000E+01 0.  1.
         -5    1    3    3    0  502  0.92708758823E+01 -0.45952444298E+02 -0.69358348912E+01  0.47572623243E+02  0.41800000000E+01 0.  1.
        -11    1    1    2    0    0 -0.16116032506E+02  0.17510981212E+02 -0.21998223470E+01  0.23899794667E+02  0.00000000000E+00 0.  1.
         11    1    1    2    0    0  0.88676894541E+02 -0.99863446066E+01 -0.72572369809E+02  0.11502203078E+03  0.00000000000E+00 0. -1.
</event>
<event>
 7    1  0.2626349E-009  0.4449301E+03  0.7561462E-02  0.1029245E+00
         -2   -1    0    0    0  501 -0.00000000000E+00  0.00000000000E+00  0.22541153514E+03  0.22541153514E+03  0.00000000000E+00 0.  1.
          2   -1    0    0  501    0  0.00000000000E+00 -0.00000000000E+00 -0.11604488910E+04  0.11604488910E+04  0.00000000000E+00 0. -1.
         25    2    1    2    0    0 -0.35861799339E+03 -0.24504441341E+03 -0.13647889325E+03  0.47215102391E+03  0.12508585591E+03 0.  0.
          5    1    3    3  502    0  0.62235768421E+01 -0.12800939836E+02  0.70824484095E+01  0.16438687443E+02  0.41800000000E+01 0. -1.
         -5    1    3    3    0  502 -0.36484157024E+03 -0.23224347358E+03 -0.14356134166E+03  0.45571233647E+03  0.41800000000E+01 0. -1.
        -11    1    1    2    0    0  0.27723389952E+03  0.14284180294E+03 -0.59616544630E+03  0.67281175308E+03  0.00000000000E+00 0.  1.
         11    1    1    2    0    0  0.81384093874E+02  0.10220261047E+03 -0.20239301630E+03  0.24089764916E+03  0.00000000000E+00 0. -1.
</event>
<event>
 7    1  0.2626349E-009  0.1085868E+03  0.7561462E-02  0.1263209E+00
          2   -1    0    0  501    0  0.00000000000E+00  0.00000000000E+00  0.27724582826E+02  0.27724582826E+02  0.00000000000E+00 0. -1.
         -2   -1    0    0    0  501 -0.00000000000E+00 -0.00000000000E+00 -0.44553589770E+03  0.44553589770E+03  0.00000000000E+00 0.  1.
         25    2    1    2    0    0  0.14846256972E+02 -0.97980648235E+01 -0.23223131200E+03  0.26437111011E+03  0.12507712888E+03 0.  0.
          5    1    3    3  502    0 -0.81038352877E+01  0.54721534767E+02 -0.12897634609E+03  0.14040117080E+03  0.41800000000E+01 0.  1.
         -5    1    3    3    0  502  0.22950092260E+02 -0.64519599591E+02 -0.10325496592E+03  0.12396993931E+03  0.41800000000E+01 0.  1.
        -11    1    1    2    0    0 -0.96505435715E-01  0.50138155583E+02 -0.12452312604E+03  0.13423804556E+03  0.00000000000E+00 0.  1.
         11    1    1    2    0    0 -0.14749751537E+02 -0.40340090760E+02 -0.61056876839E+02  0.74651324852E+02  0.00000000000E+00 0. -1.
</event>
<event>
 7    1  0.2626349E-009  0.9232282E+02  0.7561462E-02  0.1297322E+00
         -2   -1    0    0    0  501 -0.00000000000E+00  0.00000000000E+00  0.14733118595E+02  0.14733118595E+02  0.00000000000E+00 0.  1.
          2   -1    0    0  501    0  0.00000000000E+00 -0.00000000000E+00 -0.88807043337E+03  0.88807043337E+03  0.00000000000E+00 0. -1.
         25    2    1    2    0    0  0.35691360483E+02 -0.23268369569E+02 -0.54551171562E+03  0.56129028637E+03  0.12509381864E+03 0.  0.
          5    1    3    3  502    0 -0.28002555704E+02  0.11430055239E+02 -0.37106834547E+03  0.37232241230E+03  0.41800000000E+01 0. -1.
         -5    1    3    3    0  502  0.63693916186E+02 -0.34698424808E+02 -0.17444337015E+03  0.18896787408E+03  0.41800000000E+01 0. -1.
        -11    1    1    2    0    0 -0.41451130218E+02 -0.13998428841E+02 -0.26219931004E+03  0.26582443528E+03  0.00000000000E+00 0. -1.
         11    1    1    2    0    0  0.57597697353E+01  0.37266798410E+02 -0.65626289114E+02  0.75688830312E+02  0.00000000000E+00 0.  1.
</event>
<event>
 7    1  0.2626349E-009  0.1149082E+03  0.7561462E-02  0.1251741E+00
          2   -1    0    0  501    0  0.00000000000E+00  0.00000000000E+00  0.54678190907E+03  0.54678190907E+03  0.00000000000E+00 0. -1.
         -2   -1    0    0    0  501 -0.00000000000E+00 -0.00000000000E+00 -0.37524919112E+02  0.37524919112E+02  0.00000000000E+00 0.  1.
         25    2    1    2    0    0 -0.79873962492E+02  0.40436249012E+02  0.31911689544E+03  0.35425526292E+03  0.12508500404E+03 0.  0.
          5    1    3    3  502    0 -0.86010475975E+02  0.41244073245E+02  0.11271970039E+03  0.14772297997E+03  0.41800000000E+01 0.  1.
         -5    1    3    3    0  502  0.61365134825E+01 -0.80782423277E+00  0.20639719504E+03  0.20653228294E+03  0.41800000000E+01 0.  1.
        -11    1    1    2    0    0  0.28333682777E+02 -0.64154112322E+02  0.81752579425E+02  0.10771272882E+03  0.00000000000E+00 0.  1.
         11    1    1    2    0    0  0.51540279715E+02  0.23717863310E+02  0.10838751510E+03  0.12233883644E+03  0.00000000000E+00 0. -1.
</event>
<event>
 7    1  0.2626349E-009  0.2341512E+03  0.7561462E-02  0.1123752E+00
          2   -1    0    0  501    0  0.00000000000E+00  0.00000000000E+00  0.96051884979E+03  0.96051884979E+03  0.00000000000E+00 0. -1.
         -2   -1    0    0    0  501 -0.00000000000E+00 -0.00000000000E+00 -0.70832190960E+02  0.70832190960E+02  0.00000000000E+00 0.  1.
         25    2    1    2    0    0 -0.20191735225E+03 -0.95290158486E+02  0.29992724236E+03  0.39427823295E+03  0.12509253704E+03 0.  0.
          5    1    3    3  502    0 -0.32632940336E+02  0.20068899360E+02  0.10347887207E+03  0.11042200361E+03  0.41800000000E+01 0. -1.
         -5    1    3    3    0  502 -0.16928441192E+03 -0.11535905785E+03  0.19644837029E+03  0.28385622934E+03  0.41800000000E+01 0. -1.
        -11    1    1    2    0    0  0.98382670291E+02  0.31692623648E+02  0.16013106662E+03  0.19059257778E+03  0.00000000000E+00 0.  1.
         11    1    1    2    0    0  0.10353468196E+03  0.63597534839E+02  0.42962834985E+03  0.44648023002E+03  0.00000000000E+00 0. -1.
</event>
<event>
 7    1  0.2626349E-009  0.1202875E+03  0.7561462E-02  0.1242624E+00
         -4   -1    0    0    0  501 -0.00000000000E+00  0.00000000000E+00  0.39933720120E+03  0.39933720120E+03  0.00000000000E+00 0. -1.
          4   -1    0    0  501    0  0.00000000000E+00 -0.00000000000E+00 -0.48420133482E+02  0.48420133482E+02  0.00000000000E+00 0.  1.
         25    2    1    2    0    0  0.40463911937E+02 -0.75145466522E+02  0.16186783706E+03  0.22166002987E+03  0.12509117819E+03 0.  0.
          5    1    3    3  502    0  0.58350342820E+02 -0.25760735061E+02  0.15606913904E+03  0.16865179080E+03  0.41800000000E+01 0.  1.
         -5    1    3    3    0  502 -0.17886430883E+02 -0.49384731461E+02  0.57986980167E+01  0.53008239076E+02  0.41800000000E+01 0.  1.
        -11    1    1    2    0    0 -0.52406183951E+02  0.48149479189E+01  0.76987126543E+02  0.93255613735E+02  0.00000000000E+00 0.  1.
         11    1    1    2    0    0  0.11942272014E+02  0.70330518603E+02  0.11206210411E+03  0.13284169107E+03  0.00000000000E+00 0. -1.
</event>
<event>
 7    1  0.2626349E-009  0.1666161E+03  0.7561462E-02  0.1181423E+00
          2   -1    0    0  501    0  0.00000000000E+00  0.00000000000E+00  0.55425527686E+03  0.55425527686E+03  0.00000000000E+00 0. -1.
         -2   -1    0    0    0  501 -0.00000000000E+00 -0.00000000000E+00 -0.68150512825E+02  0.68150512825E+02  0.00000000000E+00 0.  1.
         25    2    1    2    0    0 -0.38384431081E+02 -0.13157007391E+03  0.38787855615E+03  0.42997798709E+03  0.12508895298E+03 0.  0.
          5    1    3    3  502    0  0.39066151453E+02 -0.66328592405E+02  0.11111029970E+03  0.13523541496E+03  0.41800000000E+01 0.  1.
         -5    1    3    3    0  502 -0.77450582534E+02 -0.65241481503E+02  0.27676825645E+03  0.29474257212E+03  0.41800000000E+01 0.  1.
        -11    1    1    2    0    0 -0.19438252923E+02  0.58264301737E+02  0.68742702748E+01  0.61804774293E+02  0.00000000000E+00 0.  1.
         11    1    1    2    0    0  0.57822684005E+02  0.73305772171E+02  0.91351937601E+02  0.13062302830E+03  0.00000000000E+00 0. -1.
</event>
<event>
 7    1  0.2626349E-009  0.9505326E+02  0.7561462E-02  0.1291056E+00
         -1   -1    0    0    0  501 -0.00000000000E+00  0.00000000000E+00  0.38197602169E+03  0.38197602169E+03  0.00000000000E+00 0.  1.
          1   -1    0    0  501    0  0.00000000000E+00 -0.00000000000E+00 -0.39132197247E+02  0.39132197247E+02  0.00000000000E+00 0. -1.
         25    2    1    2    0    0 -0.67379798544E+01  0.38340211559E+02  0.26582876757E+03  0.29635956620E+03  0.12509471058E+03 0.  0.
          5    1    3    3  502    0 -0.62556283169E+02  0.25806887878E+02  0.18668350654E+03  0.19861391704E+03  0.41800000000E+01 0. -1.
         -5    1    3    3    0  502  0.55818303314E+02  0.12533323681E+02  0.79145261029E+02  0.97745649165E+02  0.41800000000E+01 0. -1.
        -11    1    1    2    0    0 -0.10039071951E+02 -0.45581140447E+02  0.11223067818E+01  0.46687074256E+02  0.00000000000E+00 0. -1.
         11    1    1    2    0    0  0.16777051805E+02  0.72409288874E+01  0.75892750094E+02  0.78061578483E+02  0.00000000000E+00 0.  1.
</event>
<event>
 7    1  0.2626349E-009  0.1647298E+03  0.7561462E-02  0.1183458E+00
         -1   -1    0    0    0  501 -0.00000000000E+00  0.00000000000E+00  0.40708849223E+03  0.40708849223E+03  0.00000000000E+00 0.  1.
          1   -1    0    0  501    0  0.00000000000E+00 -0.00000000000E+00 -0.88860570456E+02  0.88860570456E+02  0.00000000000E+00 0. -1.
         25    2    1    2    0    0  0.31454583684E+02 -0.13994977951E+03  0.96722907690E+02  0.21349165685E+03  0.12509210629E+03 0.  0.
          5    1    3    3  502    0 -0.14829932459E+02 -0.87173768232E+02 -0.63090119260E+01  0.88749472088E+02  0.41800000000E+01 0. -1.
         -5    1    3    3    0  502  0.46284516143E+02 -0.52776011274E+02  0.10303191962E+03  0.12474218477E+03  0.41800000000E+01 0. -1.
        -11    1    1    2    0    0  0.23518886192E+02  0.99815162841E+02  0.10027727209E+03  0.14342850497E+03  0.00000000000E+00 0.  1.
         11    1    1    2    0    0 -0.54973469877E+02  0.40134616665E+02  0.12122774199E+03  0.13902890085E+03  0.00000000000E+00 0. -1.
</event>
<event>
 7    1  0.2626349E-009  0.1012772E+03  0.7561462E-02  0.1277633E+00
          1   -1    0    0  501    0  0.00000000000E+00  0.00000000000E+00  0.98230586045E+02  0.98230586045E+02  0.00000000000E+00 0. -1.
         -1   -1    0    0    0  501 -0.00000000000E+00 -0.00000000000E+00 -0.14824613561E+03  0.14824613561E+03  0.00000000000E+00 0.  1.
         25    2    1    2    0    0  0.37319836145E+02 -0.89080439653E+01  0.67578151231E+01  0.13102105955E+03  0.12509487025E+03 0.  0.
          5    1    3    3  502    0 -0.76380087031E+01 -0.61118078217E+02  0.82453366940E+00  0.61740674743E+02  0.41800000000E+01 0. -1.
         -5    1    3    3    0  502  0.44957844848E+02  0.52210034252E+02  0.59332814537E+01  0.69280384805E+02  0.41800000000E+01 0. -1.
        -11    1    1    2    0    0  0.11818574385E+02 -0.13366405158E+02  0.16608133671E+02  0.24375594175E+02  0.00000000000E+00 0. -1.
         11    1    1    2    0    0 -0.49138410530E+02  0.22274449123E+02 -0.73381498361E+02  0.91080067934E+02  0.00000000000E+00 0.  1.
</event>
<event>
 7    1  0.2626349E-009  0.1177905E+03  0.7561462E-02  0.1246787E+00
          2   -1    0    0  501    0  0.00000000000E+00  0.00000000000E+00  0.75152973142E+03  0.75152973142E+03  0.00000000000E+00 0. -1.
         -2   -1    0    0    0  501 -0.00000000000E+00 -0.00000000000E+00 -0.27216657149E+02  0.27216657149E+02  0.00000000000E+00 0.  1.
         25    2    1    2    0    0  0.84811917769E+02 -0.37642607162E+02  0.42599593692E+03  0.45357272871E+03  0.12508259144E+03 0.  0.
          5    1    3    3  502    0 -0.39582871775E+01 -0.32013252140E+02  0.20575115551E+02  0.38487973835E+02  0.41800000000E+01 0.  1.
         -5    1    3    3    0  502  0.88770204946E+02 -0.56293550216E+01  0.40542082137E+03  0.41508475487E+03  0.41800000000E+01 0.  1.
        -11    1    1    2    0    0 -0.30600657417E+02  0.49799595483E+02  0.22898800806E+03  0.23633008226E+03  0.00000000000E+00 0. -1.
         11    1    1    2    0    0 -0.54211260351E+02 -0.12156988322E+02  0.69329129287E+02  0.88843577604E+02  0.00000000000E+00 0.  1.
</event>
<event>
 7    1  0.2626349E-009  0.1514990E+03  0.7561462E-02  0.1198643E+00
         -2   -1    0    0    0  501 -0.00000000000E+00  0.00000000000E+00  0.57987669503E+02  0.57987669503E+02  0.00000000000E+00 0.  1.
          2   -1    0    0  501    0  0.00000000000E+00 -0.00000000000E+00 -0.45220589758E+03  0.45220589758E+03  0.00000000000E+00 0. -1.
         25    2    1    2    0    0 -0.85541111261E+02  0.81760946523E+02 -0.24256994416E+03  0.29747268839E+03  0.12509072081E+03 0.  0.
          5    1    3    3  502    0 -0.87045018644E+02  0.10624290808E+03 -0.23361024799E+03  0.27102695651E+03  0.41800000000E+01 0.  1.
         -5    1    3    3    0  502  0.15039073833E+01 -0.24481961555E+02 -0.89596961661E+01  0.26445731875E+02  0.41800000000E+01 0.  1.
        -11    1    1    2    0    0  0.29414444578E+02 -0.79238193002E+02 -0.54725703142E+02  0.10069162510E+03  0.00000000000E+00 0.  1.
         11    1    1    2    0    0  0.56126666683E+02 -0.25227535215E+01 -0.96922580773E+02  0.11202925360E+03  0.00000000000E+00 0. -1.
</event>
<event>
 7    1  0.2626349E-009  0.1593159E+03  0.7561462E-02  0.1189471E+00
         -2   -1    0    0    0  501 -0.00000000000E+00  0.00000000000E+00  0.14290054179E+03  0.14290054179E+03  0.00000000000E+00 0.  1.
          2   -1    0    0  501    0  0.00000000000E+00 -0.00000000000E+00 -0.23987463719E+03  0.23987463719E+03  0.00000000000E+00 0. -1.
         25    2    1    2    0    0  0.12299466616E+03 -0.53271687264E+02 -0.11814844183E+03  0.21811041654E+03  0.12509012322E+03 0.  0.
          5    1    3    3  502    0 -0.10711067405E+02 -0.84062813763E+01 -0.66266132220E+02  0.67779533864E+02  0.41800000000E+01 0.  1.
         -5    1    3    3    0  502  0.13370573357E+03 -0.44865405887E+02 -0.51882309609E+02  0.15033088267E+03  0.41800000000E+01 0.  1.
        -11    1    1    2    0    0 -0.67522652509E+02 -0.20891367429E+02  0.96816032770E+01  0.71340670567E+02  0.00000000000E+00 0. -1.
         11    1    1    2    0    0 -0.55472013654E+02  0.74163054693E+02  0.11492743154E+02  0.93324091881E+02  0.00000000000E+00 0.  1.
</event>
<event>
 7    1  0.2626349E-009  0.1152661E+03  0.7561462E-02  0.1251117E+00
          1   -1    0    0  501    0  0.00000000000E+00  0.00000000000E+00  0.19830796309E+03  0.19830796309E+03  0.00000000000E+00 0. -1.
         -1   -1    0    0    0  501 -0.00000000000E+00 -0.00000000000E+00 -0.89237960749E+02  0.89237960749E+02  0.00000000000E+00 0.  1.
         25    2    1    2    0    0  0.68540118361E+02 -0.85340288058E+01  0.96003405919E+02  0.17215114099E+03  0.12509509953E+03 0.  0.
          5    1    3    3  502    0 -0.35285286058E+02 -0.13618768716E+01  0.41315861035E+02  0.54510355841E+02  0.41800000000E+01 0. -1.
         -5    1    3    3    0  502  0.10382540442E+03 -0.71721519342E+01  0.54687544884E+02  0.11764078515E+03  0.41800000000E+01 0. -1.
        -11    1    1    2    0    0 -0.51343876506E+02  0.32910269392E+02  0.41831782664E+02  0.73953887842E+02  0.00000000000E+00 0. -1.
         11    1    1    2    0    0 -0.17196241855E+02 -0.24376240587E+02 -0.28765186241E+02  0.41440895002E+02  0.00000000000E+00 0.  1.
</event>
<event>
 7    1  0.2626349E-009  0.1622875E+03  0.7561462E-02  0.1186138E+00
          2   -1    0    0  501    0  0.00000000000E+00  0.00000000000E+00  0.18331599992E+03  0.18331599992E+03  0.00000000000E+00 0. -1.
         -2   -1    0    0    0  501 -0.00000000000E+00 -0.00000000000E+00 -0.21560295686E+03  0.21560295686E+03  0.00000000000E+00 0.  1.
         25    2    1    2    0    0 -0.10974014347E+03 -0.86805293666E+02  0.73971178361E+02  0.20172966540E+03  0.12508023256E+03 0.  0.
          5    1    3    3  502    0 -0.13226787005E+03 -0.91138676489E+02  0.77065808009E+02  0.17820678708E+03  0.41800000000E+01 0. -1.
         -5    1    3    3    0  502  0.22527726579E+02  0.43333828230E+01 -0.30946296484E+01  0.23522878314E+02  0.41800000000E+01 0. -1.
        -11    1    1    2    0    0  0.55945388119E+02  0.52845137911E+02 -0.43833171640E+01  0.77082478696E+02  0.00000000000E+00 0. -1.
         11    1    1    2    0    0  0.53794755348E+02  0.33960155756E+02 -0.10187481813E+03  0.12010681268E+03  0.00000000000E+00 0.  1.
</event>
<event>
 7    1  0.2626349E-009  0.1143005E+03  0.7561462E-02  0.1252807E+00
         -1   -1    0    0    0  501 -0.00000000000E+00  0.00000000000E+00  0.25451406539E+02  0.25451406539E+02  0.00000000000E+00 0.  1.
          1   -1    0    0  501    0  0.00000000000E+00 -0.00000000000E+00 -0.79165014394E+03  0.79165014394E+03  0.00000000000E+00 0. -1.
         25    2    1    2    0    0 -0.16050292721E+02 -0.69636919718E+02 -0.58457113012E+03  0.60206050579E+03  0.12508610628E+03 0.  0.
          5    1    3    3  502    0  0.39598180420E+02 -0.67359307251E+02 -0.22592977016E+03  0.23909626850E+03  0.41800000000E+01 0. -1.
         -5    1    3    3    0  502 -0.55648473141E+02 -0.22776124673E+01 -0.35864135996E+03  0.36296423730E+03  0.41800000000E+01 0. -1.
        -11    1    1    2    0    0  0.36988026442E+02  0.62037266447E+02 -0.67830146606E+02  0.99084132518E+02  0.00000000000E+00 0.  1.
         11    1    1    2    0    0 -0.20937733721E+02  0.75996532716E+01 -0.11379746068E+03  0.11595691217E+03  0.00000000000E+00 0. -1.
</event>
<event>
 7    1  0.2626349E-009  0.9512051E+02  0.7561462E-02  0.1290905E+00
          2   -1    0    0  501    0  0.00000000000E+00  0.00000000000E+00  0.47027119632E+03  0.47027119632E+03  0.00000000000E+00 0. -1.
         -2   -1    0    0    0  501 -0.00000000000E+00 -0.00000000000E+00 -0.25287285428E+02  0.25287285428E+02  0.00000000000E+00 0.  1.
         25    2    1    2    0    0  0.16220193361E+02 -0.15083402691E+02  0.27906599673E+03  0.30661921175E+03  0.12508759640E+03 0.  0.
          5    1    3    3  502    0 -0.34491550524E+02 -0.49071669179E+02  0.92946670326E+02  0.11069892365E+03  0.41800000000E+01 0. -1.
         -5    1    3    3    0  502  0.50711743885E+02  0.33988266488E+02  0.18611932640E+03  0.19592028809E+03  0.41800000000E+01 0. -1.
        -11    1    1    2    0    0 -0.21137350565E+02 -0.22586345561E+02  0.17093768273E+02  0.35342998012E+02  0.00000000000E+00 0.  1.
         11    1    1    2    0    0  0.49171572031E+01  0.37669748252E+02  0.14882414590E+03  0.15359627199E+03  0.00000000000E+00 0. -1.
</event>
<event>
 7    1  0.2626349E-009  0.1654544E+03  0.7561462E-02  0.1182673E+00
          2   -1    0    0  501    0  0.00000000000E+00  0.00000000000E+00  0.76903498731E+03  0.76903498731E+03  0.00000000000E+00 0. -1.
         -2   -1    0    0    0  501 -0.00000000000E+00 -0.00000000000E+00 -0.43025331345E+02  0.43025331345E+02  0.00000000000E+00 0.  1.
         25    2    1    2    0    0 -0.11806835090E+03 -0.81719544819E+02  0.32846600400E+03  0.37967702616E+03  0.12508600609E+03 0.  0.
          5    1    3    3  502    0 -0.13616076107E+03 -0.42354493441E+02  0.21376257475E+03  0.25699332040E+03  0.41800000000E+01 0.  1.
         -5    1    3    3    0  502  0.18092410170E+02 -0.39365051378E+02  0.11470342925E+03  0.12268370575E+03  0.41800000000E+01 0.  1.
        -11    1    1    2    0    0  0.56198497527E+02  0.27990175312E+02  0.66937662856E+02  0.91773480630E+02  0.00000000000E+00 0.  1.
         11    1    1    2    0    0  0.61869853373E+02  0.53729369507E+02  0.33060598911E+03  0.34060981187E+03  0.00000000000E+00 0. -1.
</event>
<event>
 7    1  0.2626349E-009  0.8955911E+02  0.7561462E-02  0.1303923E+00
         -2   -1    0    0    0  501 -0.00000000000E+00  0.00000000000E+00  0.81226117248E+02  0.81226117248E+02  0.00000000000E+00 0.  1.
          2   -1    0    0  501    0  0.00000000000E+00 -0.00000000000E+00 -0.15741413549E+03  0.15741413549E+03  0.00000000000E+00 0. -1.
         25    2    1    2    0    0 -0.22518640602E+02  0.66061133612E+01 -0.51337050560E+02  0.13723531054E+03  0.12508919933E+03 0.  0.
          5    1    3    3  502    0 -0.38649991407E+02 -0.51634967445E+02 -0.14183580806E+02  0.66171278236E+02  0.41800000000E+01 0.  1.
         -5    1    3    3    0  502  0.16131350805E+02  0.58241080806E+02 -0.37153469754E+02  0.71064032302E+02  0.41800000000E+01 0.  1.
        -11    1    1    2    0    0  0.16909422655E+01  0.20026149847E+02  0.30511248490E+02  0.36535492988E+02  0.00000000000E+00 0.  1.
         11    1    1    2    0    0  0.20827698336E+02 -0.26632263209E+02 -0.55362216168E+02  0.64869449209E+02  0.00000000000E+00 0. -1.
</event>
<event>
 7    1  0.2626349E-009  0.2814001E+03  0.7561462E-02  0.1094927E+00
          2   -1    0    0  501    0  0.00000000000E+00  0.00000000000E+00  0.29901397584E+03  0.29901397584E+03  0.00000000000E+00 0. -1.
         -2   -1    0    0    0  501 -0.00000000000E+00 -0.00000000000E+00 -0.37007216619E+03  0.37007216619E+03  0.00000000000E+00 0.  1.
         25    2    1    2    0    0  0.24465414352E+03  0.90516381997E+02 -0.21147089201E+03  0.35835262974E+03  0.12509118164E+03 0.  0.
          5    1    3    3  502    0  0.45693382343E+02  0.77087999730E+02 -0.70733423684E+02  0.11424156213E+03  0.41800000000E+01 0. -1.
         -5    1    3    3    0  502  0.19896076118E+03  0.13428382266E+02 -0.14073746833E+03  0.24411106761E+03  0.41800000000E+01 0. -1.
        -11    1    1    2    0    0 -0.63833477544E+02  0.13192102236E+02  0.55655809726E+02  0.85710638622E+02  0.00000000000E+00 0. -1.
         11    1    1    2    0    0 -0.18082066597E+03 -0.10370848423E+03  0.84756891936E+02  0.22502287367E+03  0.00000000000E+00 0.  1.
</event>
<event>
 7    1  0.2626349E-009  0.1384926E+03  0.7561462E-02  0.1215372E+00
         -2   -1    0    0    0  501 -0.00000000000E+00  0.00000000000E+00  0.22306786468E+03  0.22306786468E+03  0.00000000000E+00 0.  1.
          2   -1    0    0  501    0  0.00000000000E+00 -0.00000000000E+00 -0.97032158469E+02  0.97032158469E+02  0.00000000000E+00 0. -1.
         25    2    1    2    0    0  0.76462398052E+02 -0.57012949316E+02  0.39056849214E+02  0.16207674330E+03  0.12508580472E+03 0.  0.
          5    1    3    3  502    0  0.56616327973E+02 -0.94668239447E+02  0.11014883619E+02  0.11093369287E+03  0.41800000000E+01 0.  1.
         -5    1    3    3    0  502  0.19846070079E+02  0.37655290130E+02  0.28041965596E+02  0.51143050426E+02  0.41800000000E+01 0.  1.
        -11    1    1    2    0    0 -0.57159969388E+02 -0.64253584541E+01  0.13568525604E+02  0.59098665119E+02  0.00000000000E+00 0. -1.
         11    1    1    2    0    0 -0.19302428664E+02  0.63438307770E+02  0.73410331397E+02  0.98924614737E+02  0.00000000000E+00 0.  1.
</event>
<event>
 7    1  0.3350216E-009  0.1097453E+03  0.7561462E-02  0.1261042E+00
         -1   -1    0    0    0  501 -0.00000000000E+00  0.00000000000E+00  0.79893948827E+02  0.79893948827E+02  0.00000000000E+00 0.  1.
          1   -1    0    0  501    0  0.00000000000E+00 -0.00000000000E+00 -0.21626335368E+03  0.21626335368E+03  0.00000000000E+00 0. -1.
         25    2    1    2    0    0 -0.70807435166E+02 -0.13470882187E+02 -0.94366791988E+02  0.17247490482E+03  0.12508934335E+03 0.  0.
          5    1    3    3  502    0 -0.36149863607E+02  0.42352846832E+02  0.18704505720E+01  0.55870808647E+02  0.41800000000E+01 0.  1.
         -5    1    3    3    0  502 -0.34657571559E+02 -0.55823729019E+02 -0.96237242560E+02  0.11660409617E+03  0.41800000000E+01 0.  1.
        -11    1    1    2    0    0  0.81606638524E+02  0.21456367117E+02 -0.58301534658E+02  0.10256260568E+03  0.00000000000E+00 0. -1.
         11    1    1    2    0    0 -0.10799203358E+02 -0.79854849300E+01  0.16298921794E+02  0.21119792006E+02  0.00000000000E+00 0.  1.
</event>
<event>
 7    1  0.2823488E-009  0.8740529E+02  0.7561462E-02  0.1309260E+00
          2   -1    0    0  501    0  0.00000000000E+00  0.00000000000E+00  0.18647587104E+03  0.18647587104E+03  0.00000000000E+00 0. -1.
         -2   -1    0    0    0  501 -0.00000000000E+00 -0.00000000000E+00 -0.76240351269E+02  0.76240351269E+02  0.00000000000E+00 0.  1.
         25    2    1    2    0    0  0.25229611778E+02 -0.34562797737E+02  0.36758983489E+02  0.13721834691E+03  0.12508609661E+03 0.  0.
          5    1    3    3  502    0  0.34111662453E+02 -0.73827044601E+02  0.48869784434E+02  0.94972450007E+02  0.41800000000E+01 0. -1.
         -5    1    3    3    0  502 -0.88820506756E+01  0.39264246864E+02 -0.12110800945E+02  0.42245896907E+02  0.41800000000E+01 0. -1.
        -11    1    1    2    0    0 -0.30290446355E+02  0.17231735215E+02  0.92754741926E+02  0.99085246070E+02  0.00000000000E+00 0. -1.
         11    1    1    2    0    0  0.50608345775E+01  0.17331062522E+02 -0.19278205646E+02  0.26412629322E+02  0.00000000000E+00 0.  1.
</event>
<event>
 7    1  0.2626349E-009  0.9644374E+02  0.7561462E-02  0.1287957E+00
          2   -1    0    0  501    0  0.00000000000E+00  0.00000000000E+00  0.34033487397E+03  0.34033487397E+03  0.00000000000E+00 0.  1.
         -2   -1    0    0    0  501 -0.00000000000E+00 -0.00000000000E+00 -0.38581954290E+02  0.38581954290E+02  0.00000000000E+00 0. -1.
         25    2    1    2    0    0 -0.24133215555E+02 -0.21516018730E+02  0.13633980014E+03  0.18784208407E+03  0.12510298275E+03 0.  0.
          5    1    3    3  502    0 -0.43796072272E+02  0.35513613778E+02  0.10611998262E+03  0.12024240442E+03  0.41800000000E+01 0.  1.
         -5    1    3    3    0  502  0.19662856718E+02 -0.57029632507E+02  0.30219817516E+02  0.67599679651E+02  0.41800000000E+01 0.  1.
        -11    1    1    2    0    0  0.38094754620E+02 -0.11697209329E+02  0.27212544178E+02  0.48255130258E+02  0.00000000000E+00 0.  1.
         11    1    1    2    0    0 -0.13961539065E+02  0.33213228059E+02  0.13820057536E+03  0.14281961392E+03  0.00000000000E+00 0. -1.
</event>
<event>
 7    1  0.2626349E-009  0.9985479E+02  0.7561462E-02  0.1280602E+00
         -2   -1    0    0    0  501 -0.00000000000E+00  0.00000000000E+00  0.30207686048E+03  0.30207686048E+03  0.00000000000E+00 0.  1.
          2   -1    0    0  501    0  0.00000000000E+00 -0.00000000000E+00 -0.50943247229E+02  0.50943247229E+02  0.00000000000E+00 0. -1.
         25    2    1    2    0    0 -0.53224636167E+02 -0.46710300185E+01  0.11970540540E+03  0.18119466485E+03  0.12508973608E+03 0.  0.
          5    1    3    3  502    0 -0.15756098486E+02 -0.38647412198E+02 -0.89516870246E+01  0.42889185230E+02  0.41800000000E+01 0. -1.
         -5    1    3    3    0  502 -0.37468537681E+02  0.33976382180E+02  0.12865709242E+03  0.13830547962E+03  0.41800000000E+01 0. -1.
        -11    1    1    2    0    0  0.53275288912E+02 -0.37304463245E+02  0.10040923422E+03  0.11963232717E+03  0.00000000000E+00 0.  1.
         11    1    1    2    0    0 -0.50652745215E-01  0.41975493263E+02  0.31018973631E+02  0.52193115691E+02  0.00000000000E+00 0. -1.
</event>
<event>
 7    1  0.2626349E-009  0.1219341E+03  0.7561462E-02  0.1239940E+00
          2   -1    0    0  501    0  0.00000000000E+00  0.00000000000E+00  0.58894815374E+03  0.58894815374E+03  0.00000000000E+00 0. -1.
         -2   -1    0    0    0  501 -0.00000000000E+00 -0.00000000000E+00 -0.44614019155E+02  0.44614019155E+02  0.00000000000E+00 0.  1.
         25    2    1    2    0    0  0.18970687712E+02 -0.82546618734E+02  0.46132650987E+03  0.48542834343E+03  0.12507876175E+03 0.  0.
          5    1    3    3  502    0  0.70310218186E+02 -0.63662025911E+02  0.26125696268E+03  0.27797311610E+03  0.41800000000E+01 0.  1.
         -5    1    3    3    0  502 -0.51339530473E+02 -0.18884592823E+02  0.20006954719E+03  0.20745522733E+03  0.41800000000E+01 0.  1.
        -11    1    1    2    0    0 -0.23870163730E+02  0.19485176583E+02  0.78952705498E+02  0.84752501606E+02  0.00000000000E+00 0. -1.
         11    1    1    2    0    0  0.48994760180E+01  0.63061442151E+02  0.40549192181E+01  0.63381327860E+02  0.00000000000E+00 0.  1.
</event>
<event>
 7    1  0.3089034E-009  0.9670723E+02  0.7561462E-02  0.1287377E+00
          1   -1    0    0  501    0  0.00000000000E+00  0.00000000000E+00  0.15344810134E+03  0.15344810134E+03  0.00000000000E+00 0. -1.
         -1   -1    0    0    0  501 -0.00000000000E+00 -0.00000000000E+00 -0.14300452208E+03  0.14300452208E+03  0.00000000000E+00 0.  1.
         25    2    1    2    0    0 -0.55603479769E+02 -0.48054987931E+02  0.74185129751E+02  0.16294762362E+03  0.12508983068E+03 0.  0.
          5    1    3    3  502    0 -0.72838757980E+02 -0.42601000868E+02  0.10015535499E+03  0.13103013956E+03  0.41800000000E+01 0.  1.
         -5    1    3    3    0  502  0.17235278211E+02 -0.54539870631E+01 -0.25970225240E+02  0.31917484063E+02  0.41800000000E+01 0.  1.
        -11    1    1    2    0    0  0.63129875510E+02  0.28202520626E+02 -0.80745207669E+02  0.10630405408E+03  0.00000000000E+00 0.  1.
         11    1    1    2    0    0 -0.75263957404E+01  0.19852467305E+02  0.17003657177E+02  0.27200945725E+02  0.00000000000E+00 0. -1.
</event>
<event>
 7    1  0.2626349E-009  0.1279101E+03  0.7561462E-02  0.1230590E+00
          1   -1    0    0  501    0  0.00000000000E+00  0.00000000000E+00  0.63480219340E+03  0.63480219340E+03  0.00000000000E+00 0. -1.
         -1   -1    0    0    0  501 -0.00000000000E+00 -0.00000000000E+00 -0.31919651046E+02  0.31919651046E+02  0.00000000000E+00 0.  1.
         25    2    1    2    0    0 -0.82350871963E+02  0.29646145416E+02  0.26191627344E+03  0.30316429371E+03  0.12509154504E+03 0.  0.
          5    1    3    3  502    0 -0.88989044883E+02 -0.99460128295E+01  0.24217600428E+03  0.25823373662E+03  0.41800000000E+01 0.  1.
         -5    1    3    3    0  502  0.66381729202E+01  0.39592158245E+02  0.19740269159E+02  0.44930557093E+02  0.41800000000E+01 0.  1.
        -11    1    1    2    0    0 -0.24333186406E+01 -0.40294133898E+02  0.97247069978E+02  0.10529259654E+03  0.00000000000E+00 0.  1.
         11    1    1    2    0    0  0.84784190603E+02  0.10647988482E+02  0.24371919894E+03  0.25826495420E+03  0.00000000000E+00 0. -1.
</event>
<event>
 7    1  0.2626349E-009  0.5761427E+02  0.7561462E-02  0.1408125E+00
          2   -1    0    0  501    0  0.00000000000E+00  0.00000000000E+00  0.54481382067E+03  0.54481382067E+03  0.00000000000E+00 0. -1.
         -2   -1    0    0    0  501 -0.00000000000E+00 -0.00000000000E+00 -0.26252810498E+02  0.26252810498E+02  0.00000000000E+00 0.  1.
         25    2    1    2    0    0 -0.57962026686E+01 -0.46431268937E+02  0.25118779246E+03  0.28448661643E+03  0.12509144315E+03 0.  0.
          5    1    3    3  502    0 -0.84509966105E+01 -0.37408469468E+02  0.59517737286E+01  0.39034714578E+02  0.41800000000E+01 0.  1.
         -5    1    3    3    0  502  0.26547939419E+01 -0.90227994686E+01  0.24523601873E+03  0.24545190186E+03  0.41800000000E+01 0.  1.
        -11    1    1    2    0    0  0.15544497993E+02 -0.31220131185E+01  0.14696132023E+01  0.15922881233E+02  0.00000000000E+00 0.  1.
         11    1    1    2    0    0 -0.97482953248E+01  0.49553282055E+02  0.26590360451E+03  0.27065713350E+03  0.00000000000E+00 0. -1.
</event>
<event>
 7    1  0.2626349E-009  0.7629363E+02  0.7561462E-02  0.1339911E+00
          2   -1    0    0  501    0  0.00000000000E+00  0.00000000000E+00  0.25634802426E+02  0.25634802426E+02  0.00000000000E+00 0. -1.
         -2   -1    0    0    0  501 -0.00000000000E+00 -0.00000000000E+00 -0.62965734940E+03  0.62965734940E+03  0.00000000000E+00 0.  1.
         25    2    1    2    0    0  0.13884485835E+02 -0.55541589615E+02 -0.43336207378E+03  0.45467228919E+03  0.12508619608E+03 0.  0.
          5    1    3    3  502    0  0.13946254343E+02 -0.24175604633E+02 -0.97170391495E+01  0.29847129165E+02  0.41800000000E+01 0. -1.
         -5    1    3    3    0  502 -0.61768508189E-01 -0.31365984981E+02 -0.42364503463E+03  0.42482516003E+03  0.41800000000E+01 0. -1.
        -11    1    1    2    0    0 -0.44044992339E+02  0.34488139326E+02 -0.14596275632E+03  0.15631544817E+03  0.00000000000E+00 0.  1.
         11    1    1    2    0    0  0.30160506504E+02  0.21053450289E+02 -0.24697716872E+02  0.44304414457E+02  0.00000000000E+00 0. -1.
</event>
<event>
 7    1  0.2626349E-009  0.9949583E+02  0.7561462E-02  0.1281360E+00
          1   -1    0    0  501    0  0.00000000000E+00  0.00000000000E+00  0.13065426938E+03  0.13065426938E+03  0.00000000000E+00 0. -1.
         -1   -1    0    0    0  501 -0.00000000000E+00 -0.00000000000E+00 -0.11454825116E+03  0.11454825116E+03  0.00000000000E+00 0.  1.
         25    2    1    2    0    0 -0.13574551833E+02 -0.46959648577E+02 -0.13781574801E+02  0.13500770100E+03  0.12509064902E+03 0.  0.
          5    1    3    3  502    0  0.26143669630E+02  0.98122067875E+01  0.38758723526E+02  0.47952913499E+02  0.41800000000E+01 0.  1.
         -5    1    3    3    0  502 -0.39718221463E+02 -0.56771855364E+02 -0.52540298327E+02  0.87054787496E+02  0.41800000000E+01 0.  1.
        -11    1    1    2    0    0 -0.36788724905E+02  0.32126389842E+02 -0.17932905253E+01  0.48874646754E+02  0.00000000000E+00 0.  1.
         11    1    1    2    0    0  0.50363276738E+02  0.14833258734E+02  0.31680883544E+02  0.61320172787E+02  0.00000000000E+00 0. -1.
</event>
<event>
 7    1  0.2626349E-009  0.1016453E+03  0.7561462E-02  0.1276874E+00
         -4   -1    0    0    0  501 -0.00000000000E+00  0.00000000000E+00  0.40984191363E+02  0.40984191363E+02  0.00000000000E+00 0.  1.
          4   -1    0    0  501    0  0.00000000000E+00 -0.00000000000E+00 -0.30523137675E+03  0.30523137675E+03  0.00000000000E+00 0. -1.
         25    2    1    2    0    0 -0.27947614171E+02  0.16789364788E+02 -0.14030011073E+03  0.19077144103E+03  0.12508664891E+03 0.  0.
          5    1    3    3  502    0  0.42657821984E+02  0.30920417349E+02 -0.84127563258E+02  0.99351302383E+02  0.41800000000E+01 0.  1.
         -5    1    3    3    0  502 -0.70605436155E+02 -0.14131052561E+02 -0.56172547471E+02  0.91420138648E+02  0.41800000000E+01 0.  1.
        -11    1    1    2    0    0  0.51875952332E+02 -0.16310323071E+02 -0.38293326444E+02  0.66509547579E+02  0.00000000000E+00 0.  1.
         11    1    1    2    0    0 -0.23928338161E+02 -0.47904171691E+00 -0.85653748218E+02  0.88934579506E+02  0.00000000000E+00 0. -1.
</event>
<event>
 7    1  0.2626349E-009  0.8904786E+02  0.7561462E-02  0.1305174E+00
          1   -1    0    0  501    0  0.00000000000E+00  0.00000000000E+00  0.10063117221E+03  0.10063117221E+03  0.00000000000E+00 0. -1.
         -1   -1    0    0    0  501 -0.00000000000E+00 -0.00000000000E+00 -0.16594604298E+03  0.16594604298E+03  0.00000000000E+00 0.  1.
         25    2    1    2    0    0  0.51097041259E+02  0.14045678828E+02 -0.84023549505E+02  0.15974113124E+03  0.12509629658E+03 0.  0.
          5    1    3    3  502    0 -0.22725592758E+02 -0.24562216998E+02  0.88932922343E+01  0.34875752563E+02  0.41800000000E+01 0. -1.
         -5    1    3    3    0  502  0.73822634016E+02  0.38607895826E+02 -0.92916841739E+02  0.12486537868E+03  0.41800000000E+01 0. -1.
        -11    1    1    2    0    0 -0.10950864158E+02  0.94314508469E+01  0.49164208112E+02  0.51244444091E+02  0.00000000000E+00 0. -1.
         11    1    1    2    0    0 -0.40146177101E+02 -0.23477129675E+02 -0.30455529377E+02  0.55591639868E+02  0.00000000000E+00 0.  1.
</event>
<event>
 7    1  0.2626349E-009  0.1036373E+03  0.7561462E-02  0.1272828E+00
          1   -1    0    0  501    0  0.00000000000E+00  0.00000000000E+00  0.71399917108E+03  0.71399917108E+03  0.00000000000E+00 0. -1.
         -1   -1    0    0    0  501 -0.00000000000E+00 -0.00000000000E+00 -0.25474648878E+02  0.25474648878E+02  0.00000000000E+00 0.  1.
         25    2    1    2    0    0  0.66794818079E+02  0.28941340192E+02  0.46239018269E+03  0.48451140705E+03  0.12508986216E+03 0.  0.
          5    1    3    3  502    0 -0.21911559299E+02  0.37393391576E+02  0.25587295446E+03  0.25955119608E+03  0.41800000000E+01 0.  1.
         -5    1    3    3    0  502  0.88706377378E+02 -0.84520513837E+01  0.20651722823E+03  0.22496021097E+03  0.41800000000E+01 0.  1.
        -11    1    1    2    0    0 -0.54923896460E+02 -0.30045467115E+02  0.23295940663E+03  0.24122489431E+03  0.00000000000E+00 0. -1.
         11    1    1    2    0    0 -0.11870921619E+02  0.11041269226E+01 -0.68250671161E+01  0.13737518607E+02  0.00000000000E+00 0.  1.
</event>
<event>
 7    1  0.2626349E-009  0.9473590E+02  0.7561462E-02  0.1291772E+00
         -1   -1    0    0    0  501 -0.00000000000E+00  0.00000000000E+00  0.20590535101E+03  0.20590535101E+03  0.00000000000E+00 0.  1.
          1   -1    0    0  501    0  0.00000000000E+00 -0.00000000000E+00 -0.78415975471E+02  0.78415975471E+02  0.00000000000E+00 0. -1.
         25    2    1    2    0    0  0.59028306102E+02 -0.20812730246E+02  0.45265662377E+02  0.14701826506E+03  0.12509148416E+03 0.  0.
          5    1    3    3  502    0 -0.10289441744E+02 -0.47647485752E+02 -0.15067428891E+02  0.51192336568E+02  0.41800000000E+01 0.  1.
         -5    1    3    3    0  502  0.69317747847E+02  0.26834755506E+02  0.60333091268E+02  0.95825928493E+02  0.41800000000E+01 0.  1.
        -11    1    1    2    0    0 -0.41894010869E+02  0.24556260964E+02  0.10071904615E+03  0.11181432984E+03  0.00000000000E+00 0.  1.
         11    1    1    2    0    0 -0.17134295234E+02 -0.37435307179E+01 -0.18495332989E+02  0.25488731584E+02  0.00000000000E+00 0. -1.
</event>
<event>
 7    1  0.2626349E-009  0.1203951E+03  0.7561462E-02  0.1242447E+00
          1   -1    0    0  501    0  0.00000000000E+00  0.00000000000E+00  0.65150448294E+03  0.65150448294E+03  0.00000000000E+00 0. -1.
         -1   -1    0    0    0  501 -0.00000000000E+00 -0.00000000000E+00 -0.25050949299E+02  0.25050949299E+02  0.00000000000E+00 0.  1.
         25    2    1    2    0    0 -0.34603644124E+02 -0.49515110843E+02  0.45332024050E+03  0.47412733071E+03  0.12509327277E+03 0.  0.
          5    1    3    3  502    0 -0.78537357907E+02 -0.93564460310E+01  0.26439735015E+03  0.27600559929E+03  0.41800000000E+01 0.  1.
         -5    1    3    3    0  502  0.43933713783E+02 -0.40158664812E+02  0.18892289034E+03  0.19812173142E+03  0.41800000000E+01 0.  1.
        -11    1    1    2    0    0 -0.27157302979E+02  0.18004853283E+02  0.34688742028E+02  0.47592044191E+02  0.00000000000E+00 0.  1.
         11    1    1    2    0    0  0.61760947103E+02  0.31510257560E+02  0.13844455111E+03  0.15483605733E+03  0.00000000000E+00 0. -1.
</event>
<event>
 7    1  0.2626349E-009  0.1089395E+03  0.7561462E-02  0.1262546E+00
          2   -1    0    0  501    0  0.00000000000E+00  0.00000000000E+00  0.73678088551E+02  0.73678088551E+02  0.00000000000E+00 0. -1.
         -2   -1    0    0    0  501 -0.00000000000E+00 -0.00000000000E+00 -0.21655952880E+03  0.21655952880E+03  0.00000000000E+00 0.  1.
         25    2    1    2    0    0 -0.35675600374E+02 -0.20248841842E+02 -0.23693825969E+02  0.13375952577E+03  0.12508976492E+03 0.  0.
          5    1    3    3  502    0 -0.73013145357E+02 -0.30491314101E+02  0.12952134196E+02  0.80286174468E+02  0.41800000000E+01 0. -1.
         -5    1    3    3    0  502  0.37337544983E+02  0.10242472259E+02 -0.36645960164E+02  0.53473351304E+02  0.41800000000E+01 0. -1.
        -11    1    1    2    0    0 -0.18193917739E+02  0.38697879801E+02 -0.65468329108E+02  0.78196206174E+02  0.00000000000E+00 0.  1.
         11    1    1    2    0    0  0.53869518113E+02 -0.18449037959E+02 -0.53719285175E+02  0.78281885408E+02  0.00000000000E+00 0. -1.
</event>
<event>
 7    1  0.2626349E-009  0.1059809E+03  0.7561462E-02  0.1268199E+00
         -1   -1    0    0    0  501 -0.00000000000E+00  0.00000000000E+00  0.12501741111E+03  0.12501741111E+03  0.00000000000E+00 0.  1.
          1   -1    0    0  501    0  0.00000000000E+00 -0.00000000000E+00 -0.15151654111E+03  0.15151654111E+03  0.00000000000E+00 0. -1.
         25    2    1    2    0    0 -0.40872777154E+02 -0.41247947268E+02  0.47321734212E+02  0.14580474342E+03  0.12509076549E+03 0.  0.
          5    1    3    3  502    0 -0.34409475986E+02 -0.85391039128E+02  0.39728885027E+02  0.10035685481E+03  0.41800000000E+01 0.  1.
         -5    1    3    3    0  502 -0.64633011680E+01  0.44143091860E+02  0.75928491843E+01  0.45447888617E+02  0.41800000000E+01 0.  1.
        -11    1    1    2    0    0 -0.10767991580E+02  0.48151571739E+01  0.16628860320E+02  0.20387603508E+02  0.00000000000E+00 0.  1.
         11    1    1    2    0    0  0.51640768734E+02  0.36432790094E+02 -0.90449724532E+02  0.11034160529E+03  0.00000000000E+00 0. -1.
</event>
<event>
 7    1  0.2626349E-009  0.1054287E+03  0.7561462E-02  0.1269277E+00
          4   -1    0    0  501    0  0.00000000000E+00  0.00000000000E+00  0.16244246493E+03  0.16244246493E+03  0.00000000000E+00 0. -1.
         -4   -1    0    0    0  501 -0.00000000000E+00 -0.00000000000E+00 -0.89741642258E+02  0.89741642258E+02  0.00000000000E+00 0.  1.
         25    2    1    2    0    0 -0.19285646189E+02  0.31486499695E+02  0.76127662097E+02  0.15102421428E+03  0.12509818764E+03 0.  0.
          5    1    3    3  502    0  0.16276571092E+01 -0.47961583233E+02  0.27732756543E+02  0.55583638954E+02  0.41800000000E+01 0. -1.
         -5    1    3    3    0  502 -0.20913303298E+02  0.79448082928E+02  0.48394905554E+02  0.95440575330E+02  0.41800000000E+01 0. -1.
        -11    1    1    2    0    0  0.40595724661E+02 -0.40449288005E+02  0.26669545579E+02  0.63209353915E+02  0.00000000000E+00 0.  1.
         11    1    1    2    0    0 -0.21310078473E+02  0.89627883104E+01 -0.30096385008E+02  0.37950538986E+02  0.00000000000E+00 0. -1.
</event>
<event>
 7    1  0.2626349E-009  0.8641073E+02  0.7561462E-02  0.1311784E+00
          2   -1    0    0  501    0  0.00000000000E+00  0.00000000000E+00  0.82021459770E+03  0.82021459770E+03  0.00000000000E+00 0. -1.
         -2   -1    0    0    0  501 -0.00000000000E+00 -0.00000000000E+00 -0.19469301374E+02  0.19469301374E+02  0.00000000000E+00 0.  1.
         25    2    1    2    0    0 -0.50209526134E+02  0.25822585094E+02  0.34884922792E+03  0.37487329189E+03  0.12508556566E+03 0.  0.
          5    1    3    3  502    0 -0.35492612191E+02  0.32272355548E+02  0.35417779965E+03  0.35743617139E+03  0.41800000000E+01 0.  1.
         -5    1    3    3    0  502 -0.14716913943E+02 -0.64497704536E+01 -0.53285717250E+01  0.17437120506E+02  0.41800000000E+01 0.  1.
        -11    1    1    2    0    0  0.62318056935E+02 -0.50739765373E+02  0.35824775697E+03  0.36715054049E+03  0.00000000000E+00 0.  1.
         11    1    1    2    0    0 -0.12108530801E+02  0.24917180280E+02  0.93648311436E+02  0.97660066691E+02  0.00000000000E+00 0. -1.
</event>
<event>
 7    1  0.2626349E-009  0.8571389E+02  0.7561462E-02  0.1313576E+00
          1   -1    0    0  501    0  0.00000000000E+00  0.00000000000E+00  0.14129839839E+03  0.14129839839E+03  0.00000000000E+00 0. -1.
         -1   -1    0    0    0  501 -0.00000000000E+00 -0.00000000000E+00 -0.11693793166E+03  0.11693793166E+03  0.00000000000E+00 0.  1.
         25    2    1    2    0    0  0.35397701130E+02  0.43167585011E+02  0.53721058319E+02  0.14713946467E+03  0.12509049650E+03 0.  0.
          5    1    3    3  502    0  0.16547857933E+02  0.64200257591E+02 -0.18934040947E+02  0.69075863972E+02  0.41800000000E+01 0.  1.
         -5    1    3    3    0  502  0.18849843197E+02 -0.21032672580E+02  0.72655099266E+02  0.78063600697E+02  0.41800000000E+01 0.  1.
        -11    1    1    2    0    0  0.62862071050E+01 -0.32928881472E+02 -0.52533230540E+02  0.62318279387E+02  0.00000000000E+00 0.  1.
         11    1    1    2    0    0 -0.41683908235E+02 -0.10238703539E+02  0.23172638946E+02  0.48778585995E+02  0.00000000000E+00 0. -1.
</event>
<event>
 7    1  0.2626349E-009  0.1524677E+03  0.7561462E-02  0.1197473E+00
          2   -1    0    0  501    0  0.00000000000E+00  0.00000000000E+00  0.51800234601E+03  0.51800234601E+03  0.00000000000E+00 0. -1.
         -2   -1    0    0    0  501 -0.00000000000E+00 -0.00000000000E+00 -0.60378024981E+02  0.60378024981E+02  0.00000000000E+00 0.  1.
         25    2    1    2    0    0 -0.84765369409E+02 -0.81103205242E+02  0.36594965657E+03  0.40413536342E+03  0.12507335076E+03 0.  0.
          5    1    3    3  502    0 -0.10449199981E+03 -0.41642027520E+02  0.17472850568E+03  0.20784648079E+03  0.41800000000E+01 0.  1.
         -5    1    3    3    0  502  0.19726630406E+02 -0.39461177722E+02  0.19122115089E+03  0.19628888263E+03  0.41800000000E+01 0.  1.
        -11    1    1    2    0    0  0.25142069383E+02  0.84674978787E+02  0.51233859218E+02  0.10211211493E+03  0.00000000000E+00 0. -1.
         11    1    1    2    0    0  0.59623300025E+02 -0.35717735446E+01  0.40440805242E+02  0.72132892641E+02  0.00000000000E+00 0.  1.
</event>
<event>
 7    1  0.2626349E-009  0.7556825E+02  0.7561462E-02  0.1342120E+00
         -1   -1    0    0    0  501 -0.00000000000E+00  0.00000000000E+00  0.71658507651E+03  0.71658507651E+03  0.00000000000E+00 0.  1.
          1   -1    0    0  501    0  0.00000000000E+00 -0.00000000000E+00 -0.18382652688E+02  0.18382652688E+02  0.00000000000E+00 0. -1.
         25    2    1    2    0    0 -0.19565340790E+02 -0.74864694812E+01  0.49012127992E+03  0.50626655519E+03  0.12509239021E+03 0.  0.
          5    1    3    3  502    0 -0.30102845334E+02  0.21478074133E+02  0.46444567987E+03  0.46593427746E+03  0.41800000000E+01 0. -1.
         -5    1    3    3    0  502  0.10537504544E+02 -0.28964543614E+02  0.25675600051E+02  0.40332277728E+02  0.41800000000E+01 0. -1.
        -11    1    1    2    0    0  0.36479691363E+02  0.34977961061E+02  0.66713654530E+02  0.83695503718E+02  0.00000000000E+00 0. -1.
         11    1    1    2    0    0 -0.16914350572E+02 -0.27491491580E+02  0.14136748937E+03  0.14500567029E+03  0.00000000000E+00 0.  1.
</event>
<event>
 7    1  0.2626349E-009  0.1581427E+03  0.7561462E-02  0.1190810E+00
          2   -1    0    0  501    0  0.00000000000E+00  0.00000000000E+00  0.23771857130E+04  0.23771857130E+04  0.00000000000E+00 0. -1.
         -2   -1    0    0    0  501 -0.00000000000E+00 -0.00000000000E+00 -0.30070764755E+02  0.30070764755E+02  0.00000000000E+00 0.  1.
         25    2    1    2    0    0  0.11781303488E+03  0.86298818633E+02  0.20874162072E+04  0.20962540673E+04  0.12508914945E+03 0.  0.
          5    1    3    3  502    0  0.61545983191E+02  0.53876644645E+02  0.44029686293E+03  0.44784975247E+03  0.41800000000E+01 0. -1.
         -5    1    3    3    0  502  0.56267051687E+02  0.32422173988E+02  0.16471193443E+04  0.16484043149E+04  0.41800000000E+01 0. -1.
        -11    1    1    2    0    0 -0.74177536052E+02 -0.17902604998E+01  0.13649419734E+03  0.15535822410E+03  0.00000000000E+00 0. -1.
         11    1    1    2    0    0 -0.43635498826E+02 -0.84508558133E+02  0.12320454369E+03  0.15564418634E+03  0.00000000000E+00 0.  1.
</event>
<event>
 7    1  0.2649806E-009  0.1271515E+03  0.7561462E-02  0.1231745E+00
          1   -1    0    0  501    0  0.00000000000E+00  0.00000000000E+00  0.48315833660E+03  0.48315833660E+03  0.00000000000E+00 0. -1.
         -1   -1    0    0    0  501 -0.00000000000E+00 -0.00000000000E+00 -0.38927197729E+02  0.38927197729E+02  0.00000000000E+00 0.  1.
         25    2    1    2    0    0  0.33214380124E+01  0.83310437734E+02  0.22805471847E+03  0.27314343683E+03  0.12508685574E+03 0.  0.
          5    1    3    3  502    0 -0.30877493858E+02 -0.16215618295E+02  0.10734379370E+03  0.11294480223E+03  0.41800000000E+01 0. -1.
         -5    1    3    3    0  502  0.34198931870E+02  0.99526056029E+02  0.12071092477E+03  0.16019863460E+03  0.41800000000E+01 0. -1.
        -11    1    1    2    0    0  0.36305450679E+02 -0.28164755879E+02  0.43014815285E+02  0.62941350134E+02  0.00000000000E+00 0.  1.
         11    1    1    2    0    0 -0.39626888692E+02 -0.55145681855E+02  0.17316160512E+03  0.18600074737E+03  0.00000000000E+00 0. -1.
</event>
<event>
 7    1  0.2626349E-009  0.1453421E+03  0.7561462E-02  0.1206316E+00
          2   -1    0    0  501    0  0.00000000000E+00  0.00000000000E+00  0.43484201861E+03  0.43484201861E+03  0.00000000000E+00 0. -1.
         -2   -1    0    0    0  501 -0.00000000000E+00 -0.00000000000E+00 -0.53746571477E+02  0.53746571477E+02  0.00000000000E+00 0.  1.
         25    2    1    2    0    0 -0.62731482394E+02  0.83516120981E+02  0.17261427328E+03  0.23739109572E+03  0.12509461875E+03 0.  0.
          5    1    3    3  502    0 -0.92684558021E+02  0.35470969418E+02  0.74980281246E+02  0.12445132359E+03  0.41800000000E+01 0. -1.
         -5    1    3    3    0  502  0.29953075627E+02  0.48045151563E+02  0.97633992037E+02  0.11293977213E+03  0.41800000000E+01 0. -1.
        -11    1    1    2    0    0  0.83697394648E+02 -0.73322697161E+02  0.13985760219E+03  0.17872218855E+03  0.00000000000E+00 0.  1.
         11    1    1    2    0    0 -0.20965912254E+02 -0.10193423820E+02  0.68623571665E+02  0.72475305822E+02  0.00000000000E+00 0. -1.
</event>
<event>
 7    1  0.2626349E-009  0.9703389E+02  0.7561462E-02  0.1286660E+00
          3   -1    0    0  501    0  0.00000000000E+00  0.00000000000E+00  0.13278870980E+03  0.13278870980E+03  0.00000000000E+00 0. -1.
         -3   -1    0    0    0  501 -0.00000000000E+00 -0.00000000000E+00 -0.12188848097E+03  0.12188848097E+03  0.00000000000E+00 0.  1.
         25    2    1    2    0    0  0.53431684648E+02 -0.43280251724E+02  0.17815341513E+02  0.14384236132E+03  0.12508042774E+03 0.  0.
          5    1    3    3  502    0 -0.21013337744E+02  0.18181424376E+02 -0.25503905128E+02  0.37947939763E+02  0.41800000000E+01 0. -1.
         -5    1    3    3    0  502  0.74445022392E+02 -0.61461676101E+02  0.43319246640E+02  0.10589442156E+03  0.41800000000E+01 0. -1.
        -11    1    1    2    0    0 -0.18795254138E+02  0.99304642548E+01 -0.44821912595E+02  0.49607252969E+02  0.00000000000E+00 0.  1.
         11    1    1    2    0    0 -0.34636430510E+02  0.33349787470E+02  0.37906799908E+02  0.61227576483E+02  0.00000000000E+00 0. -1.
</event>
<event>
 7    1  0.2626349E-009  0.8719229E+02  0.7561462E-02  0.1309797E+00
          2   -1    0    0  501    0  0.00000000000E+00  0.00000000000E+00  0.40025296107E+03  0.40025296107E+03  0.00000000000E+00 0.  1.
         -2   -1    0    0    0  501 -0.00000000000E+00 -0.00000000000E+00 -0.53758808061E+02  0.53758808061E+02  0.00000000000E+00 0. -1.
         25    2    1    2    0    0  0.67118733730E+02 -0.30604249081E+01  0.30318610603E+03  0.33478890503E+03  0.12508998930E+03 0.  0.
          5    1    3    3  502    0 -0.70201737473E+01 -0.24826767492E+02  0.48526079646E+01  0.26583292264E+02  0.41800000000E+01 0. -1.
         -5    1    3    3    0  502  0.74138907477E+02  0.21766342584E+02  0.29833349806E+03  0.30820561276E+03  0.41800000000E+01 0. -1.
        -11    1    1    2    0    0 -0.52358736389E+02 -0.72557826981E+01  0.69574184253E+02  0.87376488675E+02  0.00000000000E+00 0.  1.
         11    1    1    2    0    0 -0.14759997341E+02  0.10316207606E+02 -0.26266137271E+02  0.31846375430E+02  0.00000000000E+00 0. -1.
</event>
<event>
 7    1  0.2626349E-009  0.1131697E+03  0.7561462E-02  0.1254810E+00
         -2   -1    0    0    0  501 -0.00000000000E+00  0.00000000000E+00  0.15380921798E+03  0.15380921798E+03  0.00000000000E+00 0.  1.
          2   -1    0    0  501    0  0.00000000000E+00 -0.00000000000E+00 -0.10763876707E+03  0.10763876707E+03  0.00000000000E+00 0. -1.
         25    2    1    2    0    0 -0.48972601317E+02  0.17938365657E+02 -0.18156808610E+02  0.13673782583E+03  0.12508981842E+03 0.  0.
          5    1    3    3  502    0 -0.62636829717E+02  0.62127082711E+02 -0.18763418924E+02  0.90292220778E+02  0.41800000000E+01 0.  1.
         -5    1    3    3    0  502  0.13664228400E+02 -0.44188717054E+02  0.60661031418E+00  0.46445605053E+02  0.41800000000E+01 0.  1.
        -11    1    1    2    0    0 -0.70003109000E+01  0.21823187132E+02 -0.86645289623E+01  0.24501630791E+02  0.00000000000E+00 0. -1.
         11    1    1    2    0    0  0.55972912217E+02 -0.39761552789E+02  0.72991788486E+02  0.10020852842E+03  0.00000000000E+00 0.  1.
</event>
<event>
 7    1  0.2626349E-009  0.1252729E+03  0.7561462E-02  0.1234643E+00
          2   -1    0    0  501    0  0.00000000000E+00  0.00000000000E+00  0.20351678859E+03  0.20351678859E+03  0.00000000000E+00 0. -1.
         -2   -1    0    0    0  501 -0.00000000000E+00 -0.00000000000E+00 -0.88637573063E+02  0.88637573063E+02  0.00000000000E+00 0.  1.
         25    2    1    2    0    0  0.63018693837E+02  0.49239316175E+02  0.77334476217E+02  0.16739785201E+03  0.12508218745E+03 0.  0.
          5    1    3    3  502    0  0.10138074327E+03  0.36131757954E+02  0.56375091500E+02  0.12156966061E+03  0.41800000000E+01 0.  1.
         -5    1    3    3    0  502 -0.38362049437E+02  0.13107558221E+02  0.20959384717E+02  0.45828191403E+02  0.41800000000E+01 0.  1.
        -11    1    1    2    0    0 -0.68568963008E+02 -0.18741042152E+02 -0.59643603098E+01  0.71333743368E+02  0.00000000000E+00 0.  1.
         11    1    1    2    0    0  0.55502691713E+01 -0.30498274023E+02  0.43509099616E+02  0.53422766267E+02  0.00000000000E+00 0. -1.
</event>
<event>
 7    1  0.2626349E-009  0.1099243E+03  0.7561462E-02  0.1260710E+00
         -2   -1    0    0    0  501 -0.00000000000E+00  0.00000000000E+00  0.23027741354E+02  0.23027741354E+02  0.00000000000E+00 0.  1.
          2   -1    0    0  501    0  0.00000000000E+00 -0.00000000000E+00 -0.72796923244E+03  0.72796923244E+03  0.00000000000E+00 0. -1.
         25    2    1    2    0    0 -0.33453336665E+02  0.60971746560E+02 -0.44128092624E+03  0.46391078065E+03  0.12509067483E+03 0.  0.
          5    1    3    3  502    0  0.27328855924E+02 -0.20816721497E+02 -0.60400976580E+02  0.69612876910E+02  0.41800000000E+01 0.  1.
         -5    1    3    3    0  502 -0.60782192589E+02  0.81788468057E+02 -0.38087994966E+03  0.39429790374E+03  0.41800000000E+01 0.  1.
        -11    1    1    2    0    0 -0.34183381022E+01 -0.41341995793E+02 -0.22923156980E+03  0.23295484164E+03  0.00000000000E+00 0. -1.
         11    1    1    2    0    0  0.36871674767E+02 -0.19629750767E+02 -0.34428995051E+02  0.54131351503E+02  0.00000000000E+00 0.  1.
</event>
<event>
 7    1  0.2626349E-009  0.7164835E+02  0.7561462E-02  0.1354576E+00
          2   -1    0    0  501    0  0.00000000000E+00  0.00000000000E+00  0.29889147807E+03  0.29889147807E+03  0.00000000000E+00 0. -1.
         -2   -1    0    0    0  501 -0.00000000000E+00 -0.00000000000E+00 -0.41369588758E+02  0.41369588758E+02  0.00000000000E+00 0.  1.
         25    2    1    2    0    0  0.94066217035E+01 -0.31876093061E+02  0.15372214372E+03  0.20095451673E+03  0.12509056913E+03 0.  0.
          5    1    3    3  502    0 -0.31903400098E+02 -0.29434843238E+01 -0.64759198372E+01  0.32953011631E+02  0.41800000000E+01 0.  1.
         -5    1    3    3    0  502  0.41310021802E+02 -0.28932608738E+02  0.16019806356E+03  0.16800150510E+03  0.41800000000E+01 0.  1.
        -11    1    1    2    0    0 -0.25274297550E+02  0.56932801920E+00 -0.43069591648E+01  0.25644963410E+02  0.00000000000E+00 0.  1.
         11    1    1    2    0    0  0.15867675846E+02  0.31306765042E+02  0.10810670476E+03  0.11366158669E+03  0.00000000000E+00 0. -1.
</event>
<event>
 7    1  0.2626349E-009  0.9167953E+02  0.7561462E-02  0.1298835E+00
         -1   -1    0    0    0  501 -0.00000000000E+00  0.00000000000E+00  0.22524515330E+03  0.22524515330E+03  0.00000000000E+00 0.  1.
          1   -1    0    0  501    0  0.00000000000E+00 -0.00000000000E+00 -0.67830868608E+02  0.67830868608E+02  0.00000000000E+00 0. -1.
         25    2    1    2    0    0 -0.10631512331E+02 -0.57444591425E+02  0.82946093751E+02  0.16105897727E+03  0.12508808717E+03 0.  0.
          5    1    3    3  502    0 -0.15586117220E+02  0.96989894511E+00 -0.29806263240E+02  0.33908015015E+02  0.41800000000E+01 0. -1.
         -5    1    3    3    0  502  0.49546048886E+01 -0.58414490370E+02  0.11275235699E+03  0.12715096225E+03  0.41800000000E+01 0. -1.
        -11    1    1    2    0    0 -0.24759843286E+02 -0.14176978071E+02  0.13741717305E+02  0.31668143950E+02  0.00000000000E+00 0. -1.
         11    1    1    2    0    0  0.35391355617E+02  0.71621569497E+02  0.60726473635E+02  0.10034890069E+03  0.00000000000E+00 0.  1.
</event>
<event>
 7    1  0.2626349E-009  0.1312937E+03  0.7561462E-02  0.1225549E+00
          2   -1    0    0  501    0  0.00000000000E+00  0.00000000000E+00  0.10115710399E+04  0.10115710399E+04  0.00000000000E+00 0. -1.
         -2   -1    0    0    0  501 -0.00000000000E+00 -0.00000000000E+00 -0.20919554492E+02  0.20919554492E+02  0.00000000000E+00 0.  1.
         25    2    1    2    0    0 -0.80050133791E+02  0.26471991257E+02  0.70208721079E+03  0.71810909711E+03  0.12508170749E+03 0.  0.
          5    1    3    3  502    0 -0.10075058870E+03  0.46307390609E+02  0.41550952176E+03  0.43007056470E+03  0.41800000000E+01 0. -1.
         -5    1    3    3    0  502  0.20700454906E+02 -0.19835399352E+02  0.28657768903E+03  0.28803853240E+03  0.41800000000E+01 0. -1.
        -11    1    1    2    0    0  0.99856535463E+02 -0.20220846522E+02  0.25838207921E+03  0.27774360328E+03  0.00000000000E+00 0.  1.
         11    1    1    2    0    0 -0.19806401671E+02 -0.62511447358E+01  0.30182195442E+02  0.36637894036E+02  0.00000000000E+00 0. -1.
</event>
<event>
 7    1  0.2626349E-009  0.1230491E+03  0.7561462E-02  0.1238150E+00
          1   -1    0    0  501    0  0.00000000000E+00  0.00000000000E+00  0.76112237079E+02  0.76112237079E+02  0.00000000000E+00 0. -1.
         -1   -1    0    0    0  501 -0.00000000000E+00 -0.00000000000E+00 -0.31326027381E+03  0.31326027381E+03  0.00000000000E+00 0.  1.
         25    2    1    2    0    0 -0.66969710005E+02 -0.74574277831E+02 -0.72592888283E+02  0.17596463008E+03  0.12509020201E+03 0.  0.
          5    1    3    3  502    0 -0.86006675610E+02 -0.62710592442E+02 -0.72698042855E+01  0.10677119981E+03  0.41800000000E+01 0.  1.
         -5    1    3    3    0  502  0.19036965606E+02 -0.11863685388E+02 -0.65323083998E+02  0.69193430277E+02  0.41800000000E+01 0.  1.
        -11    1    1    2    0    0  0.11789209912E+02  0.57935929062E+02 -0.28469225737E+02  0.65620531549E+02  0.00000000000E+00 0.  1.
         11    1    1    2    0    0  0.55180500092E+02  0.16638348768E+02 -0.13608592271E+03  0.14778734925E+03  0.00000000000E+00 0. -1.
</event>
<event>
 7    1  0.2626349E-009  0.1206280E+03  0.7561462E-02  0.1242065E+00
         -2   -1    0    0    0  501 -0.00000000000E+00  0.00000000000E+00  0.10258982398E+03  0.10258982398E+03  0.00000000000E+00 0. -1.
          2   -1    0    0  501    0  0.00000000000E+00 -0.00000000000E+00 -0.16653266564E+03  0.16653266564E+03  0.00000000000E+00 0.  1.
         25    2    1    2    0    0 -0.60811389597E+02  0.57069846369E+01  0.10109499719E+02  0.13957152163E+03  0.12508961942E+03 0.  0.
          5    1    3    3  502    0 -0.34518631075E+02 -0.59369408576E+02  0.24746053362E+01  0.68846631272E+02  0.41800000000E+01 0.  1.
         -5    1    3    3    0  502 -0.26292758522E+02  0.65076393213E+02  0.76348943830E+01  0.70724890360E+02  0.41800000000E+01 0.  1.
        -11    1    1    2    0    0  0.80826150634E+02  0.15816572636E+01 -0.71815223904E+02  0.10813322639E+03  0.00000000000E+00 0.  1.
         11    1    1    2    0    0 -0.20014761037E+02 -0.72886419004E+01 -0.22371174745E+01  0.21417741588E+02  0.00000000000E+00 0. -1.
</event>
<event>
 7    1  0.2626349E-009  0.1338660E+03  0.7561462E-02  0.1221829E+00
          2   -1    0    0  501    0  0.00000000000E+00  0.00000000000E+00  0.44786141799E+03  0.44786141799E+03  0.00000000000E+00 0.  1.
         -2   -1    0    0    0  501 -0.00000000000E+00 -0.00000000000E+00 -0.10020416104E+03  0.10020416104E+03  0.00000000000E+00 0. -1.
         25    2    1    2    0    0 -0.90263007797E+00  0.10659314313E+03  0.37038455876E+03  0.40521211956E+03  0.12509687271E+03 0.  0.
          5    1    3    3  502    0  0.33274182934E+02  0.11269756676E+02  0.22631817351E+03  0.22906672986E+03  0.41800000000E+01 0. -1.
         -5    1    3    3    0  502 -0.34176813012E+02  0.95323386458E+02  0.14406638525E+03  0.17614538970E+03  0.41800000000E+01 0. -1.
        -11    1    1    2    0    0  0.37822594091E+02 -0.41364477818E+02 -0.36167250038E+02  0.66705611640E+02  0.00000000000E+00 0. -1.
         11    1    1    2    0    0 -0.36919964013E+02 -0.65228665316E+02  0.13439948227E+02  0.76147847835E+02  0.00000000000E+00 0.  1.
</event>
<event>
 7    1  0.2626349E-009  0.1326085E+03  0.7561462E-02  0.1223636E+00
          1   -1    0    0  501    0  0.00000000000E+00  0.00000000000E+00  0.18499305986E+03  0.18499305986E+03  0.00000000000E+00 0. -1.
         -1   -1    0    0    0  501 -0.00000000000E+00 -0.00000000000E+00 -0.13194225687E+03  0.13194225687E+03  0.00000000000E+00 0.  1.
         25    2    1    2    0    0 -0.65471522902E+02 -0.30958984752E+02  0.57390412383E+02  0.15551916555E+03  0.12509025690E+03 0.  0.
          5    1    3    3  502    0 -0.28137646224E+02  0.38403641541E+02  0.59859855498E+02  0.76597921114E+02  0.41800000000E+01 0.  1.
         -5    1    3    3    0  502 -0.37333876678E+02 -0.69362626293E+02 -0.24694431157E+01  0.78921244436E+02  0.41800000000E+01 0.  1.
        -11    1    1    2    0    0  0.81726399848E+02  0.62616196849E+02  0.34647500125E+02  0.10862983846E+03  0.00000000000E+00 0.  1.
         11    1    1    2    0    0 -0.16254876946E+02 -0.31657212097E+02 -0.38987109512E+02  0.52786312718E+02  0.00000000000E+00 0. -1.
</event>
<event>
 7    1  0.2626349E-009  0.1269264E+03  0.7561462E-02  0.1232089E+00
          2   -1    0    0  501    0  0.00000000000E+00  0.00000000000E+00  0.21471284983E+03  0.21471284983E+03  0.00000000000E+00 0. -1.
         -2   -1    0    0    0  501 -0.00000000000E+00 -0.00000000000E+00 -0.10607080685E+03  0.10607080685E+03  0.00000000000E+00 0.  1.
         25    2    1    2    0    0  0.52773285838E+02  0.84560233665E+02  0.92566882578E+02  0.18480195603E+03  0.12509069664E+03 0.  0.
          5    1    3    3  502    0  0.84594289423E+02  0.28620852000E+02  0.78089477596E+02  0.11870461610E+03  0.41800000000E+01 0.  1.
         -5    1    3    3    0  502 -0.31821003585E+02  0.55939381665E+02  0.14477404982E+02  0.66097339926E+02  0.41800000000E+01 0.  1.
        -11    1    1    2    0    0 -0.45841336182E+02 -0.68036569466E+02 -0.29364981027E+02  0.87136129122E+02  0.00000000000E+00 0.  1.
         11    1    1    2    0    0 -0.69319496559E+01 -0.16523664200E+02  0.45440141432E+02  0.48845571529E+02  0.00000000000E+00 0. -1.
</event>
<event>
 7    1  0.2626349E-009  0.1224081E+03  0.7561462E-02  0.1239176E+00
          1   -1    0    0  501    0  0.00000000000E+00  0.00000000000E+00  0.67484258731E+03  0.67484258731E+03  0.00000000000E+00 0. -1.
         -1   -1    0    0    0  501 -0.00000000000E+00 -0.00000000000E+00 -0.25904450714E+02  0.25904450714E+02  0.00000000000E+00 0.  1.
         25    2    1    2    0    0  0.61476372876E+02 -0.45985191805E+01  0.24430317772E+03  0.28130547126E+03  0.12509290434E+03 0.  0.
          5    1    3    3  502    0  0.94465252114E+02 -0.25194060653E+02  0.14869697684E+03  0.17800755004E+03  0.41800000000E+01 0.  1.
         -5    1    3    3    0  502 -0.32988879239E+02  0.20595541472E+02  0.95606200883E+02  0.10329792122E+03  0.41800000000E+01 0.  1.
        -11    1    1    2    0    0 -0.39067074343E+02 -0.41249960066E+02  0.16734686602E+03  0.17672795215E+03  0.00000000000E+00 0.  1.
         11    1    1    2    0    0 -0.22409298532E+02  0.45848479247E+02  0.23728809286E+03  0.24271361462E+03  0.00000000000E+00 0. -1.
</event>
<event>
 7    1  0.2626349E-009  0.1173866E+03  0.7561462E-02  0.1247472E+00
         -2   -1    0    0    0  501 -0.00000000000E+00  0.00000000000E+00  0.33216416248E+02  0.33216416248E+02  0.00000000000E+00 0.  1.
          2   -1    0    0  501    0  0.00000000000E+00 -0.00000000000E+00 -0.48966178124E+03  0.48966178124E+03  0.00000000000E+00 0. -1.
         25    2    1    2    0    0 -0.55875107438E+02  0.70461351510E+01 -0.18928834487E+03  0.23377158992E+03  0.12508958029E+03 0.  0.
          5    1    3    3  502    0 -0.15980865284E+02  0.62220132784E+02 -0.12206437285E+03  0.13799969745E+03  0.41800000000E+01 0. -1.
         -5    1    3    3    0  502 -0.39894242154E+02 -0.55173997633E+02 -0.67223972023E+02  0.95771892465E+02  0.41800000000E+01 0. -1.
        -11    1    1    2    0    0  0.42692112892E+02 -0.44985608291E+02 -0.21193472729E+03  0.22082266661E+03  0.00000000000E+00 0.  1.
         11    1    1    2    0    0  0.13182994546E+02  0.37939473140E+02 -0.55222292827E+02  0.68283940955E+02  0.00000000000E+00 0. -1.
</event>
<event>
 7    1  0.2626349E-009  0.1608992E+03  0.7561462E-02  0.1187685E+00
         -2   -1    0    0    0  501 -0.00000000000E+00  0.00000000000E+00  0.77940651780E+02  0.77940651780E+02  0.00000000000E+00 0.  1.
          2   -1    0    0  501    0  0.00000000000E+00 -0.00000000000E+00 -0.59710460353E+03  0.59710460353E+03  0.00000000000E+00 0. -1.
         25    2    1    2    0    0  0.11845767572E+03 -0.48625966589E+02 -0.58013446261E+02  0.18817411612E+03  0.12508889825E+03 0.  0.
          5    1    3    3  502    0  0.14171621617E+03 -0.43394987094E+02 -0.30218653825E+02  0.15131837387E+03  0.41800000000E+01 0. -1.
         -5    1    3    3    0  502 -0.23258540447E+02 -0.52309794951E+01 -0.27794792435E+02  0.36855742249E+02  0.41800000000E+01 0. -1.
        -11    1    1    2    0    0 -0.40962750910E+02  0.58275000087E+02 -0.29201613734E+03  0.30057835429E+03  0.00000000000E+00 0. -1.
         11    1    1    2    0    0 -0.77494924815E+02 -0.96490334980E+01 -0.16913436815E+03  0.18629278491E+03  0.00000000000E+00 0.  1.
</event>
<event>
 7    1  0.2626349E-009  0.1574412E+03  0.7561462E-02  0.1191616E+00
         -1   -1    0    0    0  501 -0.00000000000E+00  0.00000000000E+00  0.23341145102E+03  0.23341145102E+03  0.00000000000E+00 0.  1.
          1   -1    0    0  501    0  0.00000000000E+00 -0.00000000000E+00 -0.24042141685E+03  0.24042141685E+03  0.00000000000E+00 0. -1.
         25    2    1    2    0    0  0.87628067925E+02  0.10971985863E+03  0.15335955641E+03  0.24266037837E+03  0.12509108689E+03 0.  0.
          5    1    3    3  502    0 -0.57356342540E+01  0.10550420531E+01 -0.17932537726E+02  0.19314733323E+02  0.41800000000E+01 0. -1.
         -5    1    3    3    0  502  0.93363702179E+02  0.10866481658E+03  0.17129209414E+03  0.22334564505E+03  0.41800000000E+01 0. -1.
        -11    1    1    2    0    0  0.17310226892E+02 -0.12742606145E+02 -0.98867752830E+01  0.23659380632E+02  0.00000000000E+00 0.  1.
         11    1    1    2    0    0 -0.10493829482E+03 -0.96977252488E+02 -0.15048274696E+03  0.20751310887E+03  0.00000000000E+00 0. -1.
</event>
<event>
 7    1  0.2626349E-009  0.9063852E+02  0.7561462E-02  0.1301313E+00
         -1   -1    0    0    0  501 -0.00000000000E+00  0.00000000000E+00  0.77337908072E+02  0.77337908072E+02  0.00000000000E+00 0.  1.
          1   -1    0    0  501    0  0.00000000000E+00 -0.00000000000E+00 -0.15042950825E+03  0.15042950825E+03  0.00000000000E+00 0. -1.
         25    2    1    2    0    0 -0.70981417572E+01 -0.20469253435E+02 -0.50132642694E+02  0.13648747558E+03  0.12508467202E+03 0.  0.
          5    1    3    3  502    0  0.25629949915E+02  0.26568389945E+02  0.22839626419E+02  0.43610716709E+02  0.41800000000E+01 0. -1.
         -5    1    3    3    0  502 -0.32728091672E+02 -0.47037643379E+02 -0.72972269113E+02  0.92876758872E+02  0.41800000000E+01 0. -1.
        -11    1    1    2    0    0  0.35511340215E+02 -0.17223346040E+02 -0.16807687302E+01  0.39503467142E+02  0.00000000000E+00 0.  1.
         11    1    1    2    0    0 -0.28413198458E+02  0.37692599475E+02 -0.21278188754E+02  0.51776473600E+02  0.00000000000E+00 0. -1.
</event>
<event>
 7    1  0.2626349E-009  0.1789943E+03  0.7561462E-02  0.1168780E+00
         -2   -1    0    0    0  501 -0.00000000000E+00  0.00000000000E+00  0.50813669031E+02  0.50813669031E+02  0.00000000000E+00 0.  1.
          2   -1    0    0  501    0  0.00000000000E+00 -0.00000000000E+00 -0.87200170121E+03  0.87200170121E+03  0.00000000000E+00 0. -1.
         25    2    1    2    0    0 -0.84814366043E+02  0.14215360890E+03 -0.27146824929E+03  0.34167797869E+03  0.12509078918E+03 0.  0.
          5    1    3    3  502    0 -0.99942479059E+02  0.13224293741E+03 -0.16614062102E+03  0.23472722886E+03  0.41800000000E+01 0. -1.
         -5    1    3    3    0  502  0.15128113015E+02  0.99106714959E+01 -0.10532762827E+03  0.10695074983E+03  0.41800000000E+01 0. -1.
        -11    1    1    2    0    0  0.63743252933E+02 -0.55770094544E+02 -0.15607223256E+03  0.17757265419E+03  0.00000000000E+00 0.  1.
         11    1    1    2    0    0  0.21071113110E+02 -0.86383514360E+02 -0.39364755032E+03  0.40356473735E+03  0.00000000000E+00 0. -1.
</event>
<event>
 7    1  0.2626349E-009  0.1258496E+03  0.7561462E-02  0.1233747E+00
         -1   -1    0    0    0  501 -0.00000000000E+00  0.00000000000E+00  0.15614557491E+03  0.15614557491E+03  0.00000000000E+00 0.  1.
          1   -1    0    0  501    0  0.00000000000E+00 -0.00000000000E+00 -0.10620691044E+03  0.10620691044E+03  0.00000000000E+00 0. -1.
         25    2    1    2    0    0  0.47353393906E+02  0.47859773917E+02  0.37061562671E+02  0.14681370776E+03  0.12509118068E+03 0.  0.
          5    1    3    3  502    0 -0.79507701679E+01 -0.35850511870E+02  0.27251406405E+02  0.45919336870E+02  0.41800000000E+01 0. -1.
         -5    1    3    3    0  502  0.55304164073E+02  0.83710285787E+02  0.98101562665E+01  0.10089437089E+03  0.41800000000E+01 0. -1.
        -11    1    1    2    0    0  0.15472082207E+02  0.17708517511E+02  0.70215131136E+01  0.24541364401E+02  0.00000000000E+00 0.  1.
         11    1    1    2    0    0 -0.62825476112E+02 -0.65568291428E+02  0.58555886820E+01  0.90997413196E+02  0.00000000000E+00 0. -1.
</event>
<event>
 7    1  0.2626349E-009  0.1135619E+03  0.7561462E-02  0.1254112E+00
          2   -1    0    0  501    0  0.00000000000E+00  0.00000000000E+00  0.11509104230E+03  0.11509104230E+03  0.00000000000E+00 0. -1.
         -2   -1    0    0    0  501 -0.00000000000E+00 -0.00000000000E+00 -0.12454479123E+03  0.12454479123E+03  0.00000000000E+00 0.  1.
         25    2    1    2    0    0  0.47611918193E+02  0.13308279375E+02 -0.24069257821E+02  0.13665319403E+03  0.12510300241E+03 0.  0.
          5    1    3    3  502    0  0.85966384322E+02  0.31245928735E+02 -0.11472789377E+02  0.92280141916E+02  0.41800000000E+01 0. -1.
         -5    1    3    3    0  502 -0.38354466129E+02 -0.17937649360E+02 -0.12596468444E+02  0.44373052113E+02  0.41800000000E+01 0. -1.
        -11    1    1    2    0    0 -0.69692912006E+02 -0.69772602468E+01  0.29078949232E+02  0.75837783676E+02  0.00000000000E+00 0. -1.
         11    1    1    2    0    0  0.22080993813E+02 -0.63310191286E+01 -0.14463440349E+02  0.27144855824E+02  0.00000000000E+00 0.  1.
</event>
<event>
 7    1  0.2626349E-009  0.1146768E+03  0.7561462E-02  0.1252146E+00
          1   -1    0    0  501    0  0.00000000000E+00  0.00000000000E+00  0.17549047954E+03  0.17549047954E+03  0.00000000000E+00 0. -1.
         -1   -1    0    0    0  501 -0.00000000000E+00 -0.00000000000E+00 -0.10200874357E+03  0.10200874357E+03  0.00000000000E+00 0.  1.
         25    2    1    2    0    0 -0.21635012329E+02 -0.45127453940E+02  0.10173673056E+03  0.16882809788E+03  0.12509197988E+03 0.  0.
          5    1    3    3  502    0  0.40119114593E+02  0.15110309178E+02  0.57340286672E+02  0.71716425419E+02  0.41800000000E+01 0. -1.
         -5    1    3    3    0  502 -0.61754126923E+02 -0.60237763118E+02  0.44396443891E+02  0.97111672458E+02  0.41800000000E+01 0. -1.
        -11    1    1    2    0    0  0.53830278536E+02  0.15153642876E+02 -0.32159077671E+02  0.64509984161E+02  0.00000000000E+00 0.  1.
         11    1    1    2    0    0 -0.32195266207E+02  0.29973811064E+02  0.39040830804E+01  0.44161141069E+02  0.00000000000E+00 0. -1.
</event>
<event>
 7    1  0.2626349E-009  0.1188528E+03  0.7561462E-02  0.1245002E+00
          2   -1    0    0  501    0  0.00000000000E+00  0.00000000000E+00  0.21730828703E+03  0.21730828703E+03  0.00000000000E+00 0. -1.
         -2   -1    0    0    0  501 -0.00000000000E+00 -0.00000000000E+00 -0.83256779258E+02  0.83256779258E+02  0.00000000000E+00 0.  1.
         25    2    1    2    0    0  0.76629647898E+02 -0.20350106742E+02  0.94327087163E+02  0.17558712663E+03  0.12508800855E+03 0.  0.
          5    1    3    3  502    0  0.62303362803E+02 -0.71408175062E+02  0.62503965206E+02  0.11360041615E+03  0.41800000000E+01 0.  1.
         -5    1    3    3    0  502  0.14326285095E+02  0.51058068321E+02  0.31823121958E+02  0.61986710482E+02  0.41800000000E+01 0.  1.
        -11    1    1    2    0    0 -0.14523942800E+01  0.14144583699E+02 -0.22887970696E+02  0.26945090457E+02  0.00000000000E+00 0.  1.
         11    1    1    2    0    0 -0.75177253618E+02  0.62055230425E+01  0.62612391304E+02  0.98032849202E+02  0.00000000000E+00 0. -1.
</event>
<event>
 7    1  0.2626349E-009  0.1543126E+03  0.7561462E-02  0.1195272E+00
          1   -1    0    0  501    0  0.00000000000E+00  0.00000000000E+00  0.63004062842E+02  0.63004062842E+02  0.00000000000E+00 0. -1.
         -1   -1    0    0    0  501 -0.00000000000E+00 -0.00000000000E+00 -0.39376702188E+03  0.39376702188E+03  0.00000000000E+00 0.  1.
         25    2    1    2    0    0  0.14905609734E+02 -0.10781794435E+03 -0.13309624506E+03  0.21262786926E+03  0.12509641886E+03 0.  0.
          5    1    3    3  502    0  0.34244355976E+02 -0.13066224364E+03 -0.10242305504E+03  0.16956784021E+03  0.41800000000E+01 0. -1.
         -5    1    3    3    0  502 -0.19338746242E+02  0.22844299287E+02 -0.30673190018E+02  0.43060029052E+02  0.41800000000E+01 0. -1.
        -11    1    1    2    0    0 -0.54351198555E+02  0.54803502814E+02 -0.10391735726E+03  0.12944610402E+03  0.00000000000E+00 0. -1.
         11    1    1    2    0    0  0.39445588821E+02  0.53014441537E+02 -0.93749356719E+02  0.11469711145E+03  0.00000000000E+00 0.  1.
</event>
<event>
 7    1  0.2626349E-009  0.1118398E+03  0.7561462E-02  0.1257200E+00
          3   -1    0    0  501    0  0.00000000000E+00  0.00000000000E+00  0.50838589233E+03  0.50838589233E+03  0.00000000000E+00 0. -1.
         -3   -1    0    0    0  501 -0.00000000000E+00 -0.00000000000E+00 -0.44359394538E+02  0.44359394538E+02  0.00000000000E+00 0.  1.
         25    2    1    2    0    0 -0.29768518482E+02  0.10369045771E+02  0.11608783113E+03  0.17354405570E+03  0.12508985941E+03 0.  0.
          5    1    3    3  502    0 -0.25397169634E+02 -0.44110656433E+02  0.71182575384E+01  0.51564602459E+02  0.41800000000E+01 0. -1.
         -5    1    3    3    0  502 -0.43713488484E+01  0.54479702204E+02  0.10896957360E+03  0.12197945324E+03  0.41800000000E+01 0. -1.
        -11    1    1    2    0    0 -0.49967020829E+01  0.48860634262E+02  0.27367970302E+03  0.27805198877E+03  0.00000000000E+00 0. -1.
         11    1    1    2    0    0  0.34765220565E+02 -0.59229680033E+02  0.74258963633E+02  0.10114924240E+03  0.00000000000E+00 0.  1.
</event>
<event>
 7    1  0.2626349E-009  0.1141623E+03  0.7561462E-02  0.1253051E+00
         -1   -1    0    0    0  501 -0.00000000000E+00  0.00000000000E+00  0.37525862386E+02  0.37525862386E+02  0.00000000000E+00 0.  1.
          1   -1    0    0  501    0  0.00000000000E+00 -0.00000000000E+00 -0.56215442994E+03  0.56215442994E+03  0.00000000000E+00 0. -1.
         25    2    1    2    0    0  0.24478043575E+02 -0.92676723539E+02 -0.28524531889E+03  0.32588464793E+03  0.12509101527E+03 0.  0.
          5    1    3    3  502    0  0.31392535730E+02 -0.84355699889E+02 -0.80547116347E+02  0.12085812242E+03  0.41800000000E+01 0. -1.
         -5    1    3    3    0  502 -0.69144921548E+01 -0.83210236501E+01 -0.20469820255E+03  0.20502652551E+03  0.41800000000E+01 0. -1.
        -11    1    1    2    0    0 -0.42214098189E+02  0.99133060904E+02 -0.22685205966E+03  0.25113990289E+03  0.00000000000E+00 0.  1.
         11    1    1    2    0    0  0.17736054614E+02 -0.64563373653E+01 -0.12531188994E+02  0.22655741503E+02  0.00000000000E+00 0. -1.
</event>
<event>
 7    1  0.2626349E-009  0.1169433E+03  0.7561462E-02  0.1248227E+00
         -2   -1    0    0    0  501 -0.00000000000E+00  0.00000000000E+00  0.31204276581E+02  0.31204276581E+02  0.00000000000E+00 0.  1.
          2   -1    0    0  501    0  0.00000000000E+00 -0.00000000000E+00 -0.59993285848E+03  0.59993285848E+03  0.00000000000E+00 0. -1.
         25    2    1    2    0    0  0.77324052544E+02  0.12364456086E+02 -0.24213026147E+03  0.28356248497E+03  0.12509488593E+03 0.  0.
          5    1    3    3  502    0 -0.84523586134E+01 -0.30546215209E+02 -0.11888069572E+02  0.34107363250E+02  0.41800000000E+01 0. -1.
         -5    1    3    3    0  502  0.85776411157E+02  0.42910671295E+02 -0.23024219190E+03  0.24945512172E+03  0.41800000000E+01 0. -1.
        -11    1    1    2    0    0  0.13929979063E+02 -0.11980924626E+01 -0.82867544083E+01  0.16252693342E+02  0.00000000000E+00 0.  1.
         11    1    1    2    0    0 -0.91254031607E+02 -0.11166363623E+02 -0.31831156603E+03  0.33132195676E+03  0.00000000000E+00 0. -1.
</event>
<event>
 7    1  0.2626349E-009  0.1149507E+03  0.7561462E-02  0.1251667E+00
          4   -1    0    0  501    0  0.00000000000E+00  0.00000000000E+00  0.74265822365E+02  0.74265822365E+02  0.00000000000E+00 0. -1.
         -4   -1    0    0    0  501 -0.00000000000E+00 -0.00000000000E+00 -0.19878883581E+03  0.19878883581E+03  0.00000000000E+00 0.  1.
         25    2    1    2    0    0 -0.49384514487E+02  0.22198600283E+02 -0.76576159697E+02  0.15634126374E+03  0.12508826639E+03 0.  0.
          5    1    3    3  502    0 -0.21997305245E+01 -0.42995481538E+02  0.26466733553E+01  0.43335061173E+02  0.41800000000E+01 0.  1.
         -5    1    3    3    0  502 -0.47184783962E+02  0.65194081821E+02 -0.79222833053E+02  0.11300620257E+03  0.41800000000E+01 0.  1.
        -11    1    1    2    0    0  0.66693207379E+02 -0.42729652566E+02 -0.31617230067E+02  0.85284561065E+02  0.00000000000E+00 0.  1.
         11    1    1    2    0    0 -0.17308692892E+02  0.20531052283E+02 -0.16329623684E+02  0.31428833372E+02  0.00000000000E+00 0. -1.
</event>
<event>
 7    1  0.2626349E-009  0.1209833E+03  0.7561462E-02  0.1241484E+00
         -1   -1    0    0    0  501 -0.00000000000E+00  0.00000000000E+00  0.41706425203E+02  0.41706425203E+02  0.00000000000E+00 0.  1.
          1   -1    0    0  501    0  0.00000000000E+00 -0.00000000000E+00 -0.49363884723E+03  0.49363884723E+03  0.00000000000E+00 0. -1.
         25    2    1    2    0    0 -0.62428844823E+02  0.70093170388E+02 -0.23611160241E+03  0.28320837905E+03  0.12509150239E+03 0.  0.
          5    1    3    3  502    0  0.31248862107E+02  0.25760597006E+02 -0.12382681161E+03  0.13034819298E+03  0.41800000000E+01 0.  1.
         -5    1    3    3    0  502 -0.93677706930E+02  0.44332573382E+02 -0.11228479080E+03  0.15286018606E+03  0.41800000000E+01 0.  1.
        -11    1    1    2    0    0  0.35763976601E+02 -0.58252685756E+02 -0.52391526443E+02  0.86123803116E+02  0.00000000000E+00 0.  1.
         11    1    1    2    0    0  0.26664868222E+02 -0.11840484632E+02 -0.16342929318E+03  0.16601309028E+03  0.00000000000E+00 0. -1.
</event>
<event>
 7    1  0.2626349E-009  0.1126827E+03  0.7561462E-02  0.1255681E+00
          2   -1    0    0  501    0  0.00000000000E+00  0.00000000000E+00  0.64146348094E+03  0.64146348094E+03  0.00000000000E+00 0. -1.
         -2   -1    0    0    0  501 -0.00000000000E+00 -0.00000000000E+00 -0.43215403993E+02  0.43215403993E+02  0.00000000000E+00 0.  1.
         25    2    1    2    0    0  0.31426592040E+02  0.92892109559E+02  0.53835932118E+03  0.56133307338E+03  0.12508991111E+03 0.  0.
          5    1    3    3  502    0  0.44566467866E+02  0.14232787095E+02  0.59227899334E+02  0.75592054781E+02  0.41800000000E+01 0. -1.
         -5    1    3    3    0  502 -0.13139875825E+02  0.78659322465E+02  0.47913142185E+03  0.48574101860E+03  0.41800000000E+01 0. -1.
        -11    1    1    2    0    0 -0.13401813886E+02 -0.54498826178E+02  0.85774486393E+01  0.56774142841E+02  0.00000000000E+00 0.  1.
         11    1    1    2    0    0 -0.18024778155E+02 -0.38393283382E+02  0.51311307131E+02  0.66571668717E+02  0.00000000000E+00 0. -1.
</event>
<event>
 7    1  0.2626349E-009  0.9750216E+02  0.7561462E-02  0.1285638E+00
         -2   -1    0    0    0  501 -0.00000000000E+00  0.00000000000E+00  0.15560700273E+03  0.15560700273E+03  0.00000000000E+00 0.  1.
          2   -1    0    0  501    0  0.00000000000E+00 -0.00000000000E+00 -0.93210041386E+02  0.93210041386E+02  0.00000000000E+00 0. -1.
         25    2    1    2    0    0 -0.21171427022E+01  0.27316000399E+02  0.83887669952E+02  0.15308505569E+03  0.12508895608E+03 0.  0.
          5    1    3    3  502    0 -0.56963165831E+02 -0.56981751372E+01  0.15797243231E+02  0.59533996633E+02  0.41800000000E+01 0. -1.
         -5    1    3    3    0  502  0.54846023128E+02  0.33014175537E+02  0.68090426721E+02  0.93551059055E+02  0.41800000000E+01 0. -1.
        -11    1    1    2    0    0 -0.12952714808E+02  0.19981299148E+02 -0.36758165453E+02  0.43797121641E+02  0.00000000000E+00 0. -1.
         11    1    1    2    0    0  0.15069857510E+02 -0.47297299548E+02  0.15267456847E+02  0.51934866789E+02  0.00000000000E+00 0.  1.
</event>
<event>
 7    1  0.2626349E-009  0.1168267E+03  0.7561462E-02  0.1248426E+00
         -2   -1    0    0    0  501 -0.00000000000E+00  0.00000000000E+00  0.14361527937E+03  0.14361527937E+03  0.00000000000E+00 0.  1.
          2   -1    0    0  501    0  0.00000000000E+00 -0.00000000000E+00 -0.22964644751E+03  0.22964644751E+03  0.00000000000E+00 0. -1.
         25    2    1    2    0    0  0.10674087901E+03 -0.24791368295E+02  0.61686442214E+02  0.17737234119E+03  0.12508997991E+03 0.  0.
          5    1    3    3  502    0  0.97269918658E+02 -0.10734905500E+02 -0.14673124982E+02  0.99042658833E+02  0.41800000000E+01 0. -1.
         -5    1    3    3    0  502  0.94709603564E+01 -0.14056462796E+02  0.76359567197E+02  0.78329682361E+02  0.41800000000E+01 0. -1.
        -11    1    1    2    0    0 -0.58211722556E+02 -0.92857552904E+01 -0.35080012022E+02  0.68596188945E+02  0.00000000000E+00 0.  1.
         11    1    1    2    0    0 -0.48529156459E+02  0.34077123586E+02 -0.11263759833E+03  0.12729319674E+03  0.00000000000E+00 0. -1.
</event>
<event>
 7    1  0.2626349E-009  0.8108475E+02  0.7561462E-02  0.1326001E+00
         -3   -1    0    0    0  501 -0.00000000000E+00  0.00000000000E+00  0.22869813883E+03  0.22869813883E+03  0.00000000000E+00 0.  1.
          3   -1    0    0  501    0  0.00000000000E+00 -0.00000000000E+00 -0.73425727259E+02  0.73425727259E+02  0.00000000000E+00 0. -1.
         25    2    1    2    0    0 -0.76677837996E+01 -0.65922629363E+02  0.94150600815E+02  0.17004877305E+03  0.12509061360E+03 0.  0.
          5    1    3    3  502    0  0.11522541432E+02 -0.53346165080E+02  0.12200450459E+03  0.13372043161E+03  0.41800000000E+01 0. -1.
         -5    1    3    3    0  502 -0.19190325231E+02 -0.12576464283E+02 -0.27853903773E+02  0.36328341440E+02  0.41800000000E+01 0. -1.
        -11    1    1    2    0    0 -0.19826024119E+02  0.10955129651E+02  0.66623928395E+02  0.70369268384E+02  0.00000000000E+00 0.  1.
         11    1    1    2    0    0  0.27493807919E+02  0.54967499712E+02 -0.55021176369E+01  0.61705824660E+02  0.00000000000E+00 0. -1.
</event>
<event>
 7    1  0.2626349E-009  0.1344352E+03  0.7561462E-02  0.1221019E+00
         -3   -1    0    0    0  501 -0.00000000000E+00  0.00000000000E+00  0.37099096855E+03  0.37099096855E+03  0.00000000000E+00 0.  1.
          3   -1    0    0  501    0  0.00000000000E+00 -0.00000000000E+00 -0.57839224614E+02  0.57839224614E+02  0.00000000000E+00 0. -1.
         25    2    1    2    0    0 -0.78696187176E+02 -0.53327078853E+02  0.20655668705E+03  0.25951847232E+03  0.12508918937E+03 0.  0.
          5    1    3    3  502    0 -0.29653145703E+02 -0.77675330599E+02  0.18042435744E+03  0.19870376743E+03  0.41800000000E+01 0. -1.
         -5    1    3    3    0  502 -0.49043041473E+02  0.24348251746E+02  0.26132329607E+02  0.60814704889E+02  0.41800000000E+01 0. -1.
        -11    1    1    2    0    0  0.73508128495E+02 -0.35514044320E+01  0.50477909483E+02  0.89241676217E+02  0.00000000000E+00 0.  1.
         11    1    1    2    0    0  0.51880586811E+01  0.56878483285E+02  0.56117147411E+02  0.80070044631E+02  0.00000000000E+00 0. -1.
</event>
<event>
 7    1  0.2626349E-009  0.9542280E+02  0.7561462E-02  0.1290227E+00
          1   -1    0    0  501    0  0.00000000000E+00  0.00000000000E+00  0.72963518275E+03  0.72963518275E+03  0.00000000000E+00 0. -1.
         -1   -1    0    0    0  501 -0.00000000000E+00 -0.00000000000E+00 -0.18802335704E+02  0.18802335704E+02  0.00000000000E+00 0.  1.
         25    2    1    2    0    0 -0.40687833389E+02  0.64643592516E+01  0.34594804292E+03  0.37016920990E+03  0.12509159774E+03 0.  0.
          5    1    3    3  502    0 -0.98281202496E+01 -0.39126750615E+02  0.28524145629E+03  0.28811049156E+03  0.41800000000E+01 0. -1.
         -5    1    3    3    0  502 -0.30859713140E+02  0.45591109867E+02  0.60706586633E+02  0.82058718334E+02  0.41800000000E+01 0. -1.
        -11    1    1    2    0    0 -0.29903809467E+01  0.34835430096E+02  0.19384107674E+03  0.19696906508E+03  0.00000000000E+00 0. -1.
         11    1    1    2    0    0  0.43678214336E+02 -0.41299789348E+02  0.17104372739E+03  0.18129924348E+03  0.00000000000E+00 0.  1.
</event>
<event>
 7    1  0.2626349E-009  0.1087250E+03  0.7561462E-02  0.1262949E+00
         -1   -1    0    0    0  501 -0.00000000000E+00  0.00000000000E+00  0.13559889413E+03  0.13559889413E+03  0.00000000000E+00 0.  1.
          1   -1    0    0  501    0  0.00000000000E+00 -0.00000000000E+00 -0.29729119222E+03  0.29729119222E+03  0.00000000000E+00 0. -1.
         25    2    1    2    0    0 -0.46997818924E+02  0.78523544007E+02  0.64867406864E+02  0.16802172779E+03  0.12509507820E+03 0.  0.
          5    1    3    3  502    0 -0.16281782046E+02  0.22695687882E+02 -0.37757429850E+02  0.47151739988E+02  0.41800000000E+01 0. -1.
         -5    1    3    3    0  502 -0.30716036878E+02  0.55827856125E+02  0.10262483671E+03  0.12086998780E+03  0.41800000000E+01 0. -1.
        -11    1    1    2    0    0  0.59860163484E+02 -0.90015457262E+02 -0.14144980757E+03  0.17802828365E+03  0.00000000000E+00 0.  1.
         11    1    1    2    0    0 -0.12862344560E+02  0.11491913256E+02 -0.85109897389E+02  0.86840074916E+02  0.00000000000E+00 0. -1.
</event>
<event>
 7    1  0.2626349E-009  0.7299159E+02  0.7561462E-02  0.1350206E+00
          2   -1    0    0  501    0  0.00000000000E+00  0.00000000000E+00  0.88477195795E+02  0.88477195795E+02  0.00000000000E+00 0. -1.
         -2   -1    0    0    0  501 -0.00000000000E+00 -0.00000000000E+00 -0.15952770656E+03  0.15952770656E+03  0.00000000000E+00 0.  1.
         25    2    1    2    0    0 -0.18691411746E+02  0.20153754187E+02  0.40709013681E+01  0.12813853632E+03  0.12508944629E+03 0.  0.
          5    1    3    3  502    0 -0.47056563812E+01  0.40528107106E+02  0.56622511423E+02  0.69916034409E+02  0.41800000000E+01 0. -1.
         -5    1    3    3    0  502 -0.13985755365E+02 -0.20374352919E+02 -0.52551610055E+02  0.58222501916E+02  0.41800000000E+01 0. -1.
        -11    1    1    2    0    0  0.40272549604E+02 -0.35288952587E+02 -0.17219483139E+02  0.56246769026E+02  0.00000000000E+00 0. -1.
         11    1    1    2    0    0 -0.21581137858E+02  0.15135198400E+02 -0.57901928995E+02  0.63619597006E+02  0.00000000000E+00 0.  1.
</event>
<event>
 7    1  0.2626349E-009  0.9589907E+02  0.7561462E-02  0.1289164E+00
         -1   -1    0    0    0  501 -0.00000000000E+00  0.00000000000E+00  0.18196343219E+03  0.18196343219E+03  0.00000000000E+00 0.  1.
          1   -1    0    0  501    0  0.00000000000E+00 -0.00000000000E+00 -0.99714448518E+02  0.99714448518E+02  0.00000000000E+00 0. -1.
         25    2    1    2    0    0  0.43417988388E+02  0.35207614426E+01  0.10057279571E+03  0.16631428772E+03  0.12509211641E+03 0.  0.
          5    1    3    3  502    0 -0.34066461429E+02  0.55549462525E+00 -0.55938714693E+01  0.34779249080E+02  0.41800000000E+01 0.  1.
         -5    1    3    3    0  502  0.77484449816E+02  0.29652668174E+01  0.10616666718E+03  0.13153503864E+03  0.41800000000E+01 0.  1.
        -11    1    1    2    0    0 -0.52588221169E+02 -0.23677887301E+02  0.27931365785E+02  0.64080609762E+02  0.00000000000E+00 0.  1.
         11    1    1    2    0    0  0.91702327819E+01  0.20157125859E+02 -0.46255177828E+02  0.51282983221E+02  0.00000000000E+00 0. -1.
</event>
<event>
 7    1  0.2626349E-009  0.1248606E+03  0.7561462E-02  0.1235287E+00
          2   -1    0    0  501    0  0.00000000000E+00  0.00000000000E+00  0.84385155691E+03  0.84385155691E+03  0.00000000000E+00 0. -1.
         -2   -1    0    0    0  501 -0.00000000000E+00 -0.00000000000E+00 -0.19362974760E+02  0.19362974760E+02  0.00000000000E+00 0.  1.
         25    2    1    2    0    0  0.26787033859E+02 -0.74566710742E+02  0.53703185927E+03  0.55707168388E+03  0.12509158073E+03 0.  0.
          5    1    3    3  502    0 -0.48277447134E+02 -0.19392227540E+02  0.14521553655E+03  0.15431070878E+03  0.41800000000E+01 0.  1.
         -5    1    3    3    0  502  0.75064480993E+02 -0.55174483202E+02  0.39181632273E+03  0.40276097509E+03  0.41800000000E+01 0.  1.
        -11    1    1    2    0    0 -0.24026861601E+01  0.79381175087E+02  0.19904027723E+03  0.21429926695E+03  0.00000000000E+00 0. -1.
         11    1    1    2    0    0 -0.24384347698E+02 -0.48144643448E+01  0.88416445648E+02  0.91843580835E+02  0.00000000000E+00 0.  1.
</event>
<event>
 7    1  0.2626349E-009  0.1153461E+03  0.7561462E-02  0.1250978E+00
          2   -1    0    0  501    0  0.00000000000E+00  0.00000000000E+00  0.60360843584E+03  0.60360843584E+03  0.00000000000E+00 0.  1.
         -2   -1    0    0    0  501 -0.00000000000E+00 -0.00000000000E+00 -0.28055472378E+02  0.28055472378E+02  0.00000000000E+00 0. -1.
         25    2    1    2    0    0  0.45458728834E+02  0.48981244464E+02  0.38396443839E+03  0.40931875220E+03  0.12508993813E+03 0.  0.
          5    1    3    3  502    0  0.73025792911E+02  0.15707462235E+02  0.33765367969E+03  0.34584240718E+03  0.41800000000E+01 0.  1.
         -5    1    3    3    0  502 -0.27567064077E+02  0.33273782230E+02  0.46310758700E+02  0.63476345020E+02  0.41800000000E+01 0.  1.
        -11    1    1    2    0    0  0.23872225945E+01 -0.62659575231E+02  0.11562083147E+03  0.13152983643E+03  0.00000000000E+00 0. -1.
         11    1    1    2    0    0 -0.47845951428E+02  0.13678330766E+02  0.75967693598E+02  0.90815319584E+02  0.00000000000E+00 0.  1.
</event>
<event>
 7    1  0.2626349E-009  0.1445885E+03  0.7561462E-02  0.1207285E+00
          1   -1    0    0  501    0  0.00000000000E+00  0.00000000000E+00  0.34229155601E+03  0.34229155601E+03  0.00000000000E+00 0. -1.
         -1   -1    0    0    0  501 -0.00000000000E+00 -0.00000000000E+00 -0.10439579163E+03  0.10439579163E+03  0.00000000000E+00 0.  1.
         25    2    1    2    0    0  0.10990651617E+02  0.13266284027E+03  0.21887991964E+03  0.28508851815E+03  0.12508725092E+03 0.  0.
          5    1    3    3  502    0  0.12609634731E+02  0.25036144215E+02 -0.11642011658E+02  0.30640173639E+02  0.41800000000E+01 0.  1.
         -5    1    3    3    0  502 -0.16189831137E+01  0.10762669606E+03  0.23052193130E+03  0.25444834451E+03  0.41800000000E+01 0.  1.
        -11    1    1    2    0    0  0.24722841224E+02 -0.10519152991E+03  0.35318549965E+02  0.11368323013E+03  0.00000000000E+00 0.  1.
         11    1    1    2    0    0 -0.35713492841E+02 -0.27471310365E+02 -0.16302705233E+02  0.47915599359E+02  0.00000000000E+00 0. -1.
</event>
<event>
 7    1  0.2626349E-009  0.1001740E+03  0.7561462E-02  0.1279931E+00
          4   -1    0    0  501    0  0.00000000000E+00  0.00000000000E+00  0.40656064876E+03  0.40656064876E+03  0.00000000000E+00 0. -1.
         -4   -1    0    0    0  501 -0.00000000000E+00 -0.00000000000E+00 -0.37416349715E+02  0.37416349715E+02  0.00000000000E+00 0.  1.
         25    2    1    2    0    0  0.44542986150E+02  0.37240094979E+02  0.19130096683E+03  0.23583517408E+03  0.12510502442E+03 0.  0.
          5    1    3    3  502    0  0.51231855058E+01 -0.35388349557E+02  0.12417556460E+03  0.12928892280E+03  0.41800000000E+01 0. -1.
         -5    1    3    3    0  502  0.39419800644E+02  0.72628444536E+02  0.67125402221E+02  0.10654625128E+03  0.41800000000E+01 0. -1.
        -11    1    1    2    0    0 -0.19397143662E+02 -0.49838084273E+02  0.38268250307E+02  0.65761256130E+02  0.00000000000E+00 0.  1.
         11    1    1    2    0    0 -0.25145842488E+02  0.12597989294E+02  0.13957508191E+03  0.14238056826E+03  0.00000000000E+00 0. -1.
</event>
<event>
 7    1  0.2626349E-009  0.1349401E+03  0.7561462E-02  0.1220304E+00
          1   -1    0    0  501    0  0.00000000000E+00  0.00000000000E+00  0.74011358084E+03  0.74011358084E+03  0.00000000000E+00 0. -1.
         -1   -1    0    0    0  501 -0.00000000000E+00 -0.00000000000E+00 -0.33138591117E+02  0.33138591117E+02  0.00000000000E+00 0.  1.
         25    2    1    2    0    0 -0.66502305251E+02 -0.54898105897E+02  0.55675711893E+03  0.57711570719E+03  0.12509073255E+03 0.  0.
          5    1    3    3  502    0  0.21943355031E+02 -0.50759773249E+02  0.30997815673E+03  0.31489997692E+03  0.41800000000E+01 0. -1.
         -5    1    3    3    0  502 -0.88445660282E+02 -0.41383326481E+01  0.24677896220E+03  0.26221573027E+03  0.41800000000E+01 0. -1.
        -11    1    1    2    0    0 -0.11989722978E+02 -0.16011357641E+02  0.18960985166E+02  0.27561494682E+02  0.00000000000E+00 0.  1.
         11    1    1    2    0    0  0.78492028230E+02  0.70909463538E+02  0.13125688563E+03  0.16857497009E+03  0.00000000000E+00 0. -1.
</event>
<event>
 7    1  0.2626349E-009  0.9051323E+02  0.7561462E-02  0.1301614E+00
         -1   -1    0    0    0  501 -0.00000000000E+00  0.00000000000E+00  0.39157342260E+02  0.39157342260E+02  0.00000000000E+00 0.  1.
          1   -1    0    0  501    0  0.00000000000E+00 -0.00000000000E+00 -0.28777467881E+03  0.28777467881E+03  0.00000000000E+00 0. -1.
         25    2    1    2    0    0 -0.35689923269E+01  0.75115701198E+01 -0.13611463608E+03  0.18505471627E+03  0.12509553336E+03 0.  0.
          5    1    3    3  502    0  0.46047781180E+02 -0.22362154422E+02 -0.10997187761E+03  0.12137442221E+03  0.41800000000E+01 0. -1.
         -5    1    3    3    0  502 -0.49616773507E+02  0.29873724542E+02 -0.26142758474E+02  0.63680294063E+02  0.41800000000E+01 0. -1.
        -11    1    1    2    0    0  0.28056808700E+02  0.20234533885E+02 -0.94681961647E+02  0.10080324765E+03  0.00000000000E+00 0. -1.
         11    1    1    2    0    0 -0.24487816373E+02 -0.27746104005E+02 -0.17820738820E+02  0.41074057144E+02  0.00000000000E+00 0.  1.
</event>
<event>
 7    1  0.2626349E-009  0.1293380E+03  0.7561462E-02  0.1228441E+00
          2   -1    0    0  501    0  0.00000000000E+00  0.00000000000E+00  0.14539089144E+04  0.14539089144E+04  0.00000000000E+00 0. -1.
         -2   -1    0    0    0  501 -0.00000000000E+00 -0.00000000000E+00 -0.16070685782E+02  0.16070685782E+02  0.00000000000E+00 0.  1.
         25    2    1    2    0    0 -0.51798905603E+02 -0.94507449189E+02  0.78847840513E+03  0.80558149301E+03  0.12509421225E+03 0.  0.
          5    1    3    3  502    0  0.44209463256E+01 -0.43038381613E+02  0.65661447307E+02  0.78744810119E+02  0.41800000000E+01 0.  1.
         -5    1    3    3    0  502 -0.56219851929E+02 -0.51469067576E+02  0.72281695783E+03  0.72683668289E+03  0.41800000000E+01 0.  1.
        -11    1    1    2    0    0  0.73712834322E+02  0.49430841310E+02  0.46215362470E+03  0.47059851555E+03  0.00000000000E+00 0. -1.
         11    1    1    2    0    0 -0.21913928718E+02  0.45076607879E+02  0.18720619874E+03  0.19379959158E+03  0.00000000000E+00 0.  1.
</event>
<event>
 7    1  0.2626349E-009  0.8092461E+02  0.7561462E-02  0.1326448E+00
         -1   -1    0    0    0  501 -0.00000000000E+00  0.00000000000E+00  0.96054594896E+02  0.96054594896E+02  0.00000000000E+00 0.  1.
          1   -1    0    0  501    0  0.00000000000E+00 -0.00000000000E+00 -0.15941774212E+03  0.15941774212E+03  0.00000000000E+00 0. -1.
         25    2    1    2    0    0 -0.83940312167E+00  0.57661859259E+02 -0.29789759027E+02  0.14092619442E+03  0.12508864026E+03 0.  0.
          5    1    3    3  502    0 -0.18241235738E+02  0.42322576680E+02 -0.76041095331E+02  0.89014963671E+02  0.41800000000E+01 0. -1.
         -5    1    3    3    0  502  0.17401832616E+02  0.15339282579E+02  0.46251336305E+02  0.51911230754E+02  0.41800000000E+01 0. -1.
        -11    1    1    2    0    0  0.27070960204E+02 -0.59842547050E+02  0.71370084004E+01  0.66067421720E+02  0.00000000000E+00 0.  1.
         11    1    1    2    0    0 -0.26231557082E+02  0.21806877909E+01 -0.40710396596E+02  0.48478720870E+02  0.00000000000E+00 0. -1.
</event>
<event>
 7    1  0.2626349E-009  0.6878392E+02  0.7561462E-02  0.1364278E+00
          2   -1    0    0  501    0  0.00000000000E+00  0.00000000000E+00  0.15841089481E+04  0.15841089481E+04  0.00000000000E+00 0. -1.
         -2   -1    0    0    0  501 -0.00000000000E+00 -0.00000000000E+00 -0.11852464302E+02  0.11852464302E+02  0.00000000000E+00 0.  1.
         25    2    1    2    0    0 -0.38484220487E+02  0.20666178725E+02  0.12949979292E+04  0.13017584262E+04  0.12508891858E+03 0.  0.
          5    1    3    3  502    0 -0.59110388004E+01  0.12429943161E+01  0.12538286013E+01  0.74518387484E+01  0.41800000000E+01 0.  1.
         -5    1    3    3    0  502 -0.32573181687E+02  0.19423184409E+02  0.12937441006E+04  0.12943065875E+04  0.41800000000E+01 0.  1.
        -11    1    1    2    0    0  0.56716311248E+02  0.88223766849E+01  0.11806607552E+03  0.13127898720E+03  0.00000000000E+00 0.  1.
         11    1    1    2    0    0 -0.18232090760E+02 -0.29488555410E+02  0.15919247908E+03  0.16292399894E+03  0.00000000000E+00 0. -1.
</event>
<event>
 7    1  0.2626349E-009  0.1419035E+03  0.7561462E-02  0.1210790E+00
          2   -1    0    0  501    0  0.00000000000E+00  0.00000000000E+00  0.10477041656E+03  0.10477041656E+03  0.00000000000E+00 0. -1.
         -2   -1    0    0    0  501 -0.00000000000E+00 -0.00000000000E+00 -0.19777773961E+03  0.19777773961E+03  0.00000000000E+00 0.  1.
         25    2    1    2    0    0  0.89197121118E+02  0.17171865423E+02 -0.58763362485E+02  0.16538918306E+03  0.12509776067E+03 0.  0.
          5    1    3    3  502    0 -0.19113857148E+02  0.37581482696E+02 -0.49268061202E+01  0.42655048884E+02  0.41800000000E+01 0. -1.
         -5    1    3    3    0  502  0.10831097827E+03 -0.20409617274E+02 -0.53836556365E+02  0.12273413417E+03  0.41800000000E+01 0. -1.
        -11    1    1    2    0    0 -0.12128076825E+02  0.35683800166E+02 -0.19876099511E+02  0.42608487106E+02  0.00000000000E+00 0.  1.
         11    1    1    2    0    0 -0.77069044293E+02 -0.52855665588E+02 -0.14367861045E+02  0.94550486006E+02  0.00000000000E+00 0. -1.
</event>
<event>
 7    1  0.2626349E-009  0.1269232E+03  0.7561462E-02  0.1232094E+00
         -1   -1    0    0    0  501 -0.00000000000E+00  0.00000000000E+00  0.30541198071E+03  0.30541198071E+03  0.00000000000E+00 0.  1.
          1   -1    0    0  501    0  0.00000000000E+00 -0.00000000000E+00 -0.87729963450E+02  0.87729963450E+02  0.00000000000E+00 0. -1.
         25    2    1    2    0    0 -0.63220113560E+02 -0.86874332621E+02  0.45759588934E+02  0.17113091747E+03  0.12509164045E+03 0.  0.
          5    1    3    3  502    0 -0.11436152089E+02 -0.47331699685E+02 -0.40134294195E+02  0.63240092822E+02  0.41800000000E+01 0.  1.
         -5    1    3    3    0  502 -0.51783961471E+02 -0.39542632936E+02  0.85893883129E+02  0.10789082465E+03  0.41800000000E+01 0.  1.
        -11    1    1    2    0    0  0.66444944136E+02  0.10336638667E+03  0.15819286790E+03  0.20031106796E+03  0.00000000000E+00 0.  1.
         11    1    1    2    0    0 -0.32248305756E+01 -0.16492054048E+02  0.13729560424E+02  0.21699958719E+02  0.00000000000E+00 0. -1.
</event>
<event>
 7    1  0.3353666E-009  0.1677487E+03  0.7561462E-02  0.1180216E+00
         -2   -1    0    0    0  501 -0.00000000000E+00  0.00000000000E+00  0.15862794767E+03  0.15862794767E+03  0.00000000000E+00 0.  1.
          2   -1    0    0  501    0  0.00000000000E+00 -0.00000000000E+00 -0.20355422201E+03  0.20355422201E+03  0.00000000000E+00 0. -1.
         25    2    1    2    0    0  0.68093862155E+01 -0.13392083108E+03  0.25880464250E+02  0.18519812853E+03  0.12508953452E+03 0.  0.
          5    1    3    3  502    0  0.40245236120E+02 -0.13719133990E+03  0.39993628276E+02  0.14851971410E+03  0.41800000000E+01 0.  1.
         -5    1    3    3    0  502 -0.33435849905E+02  0.32705088197E+01 -0.14113164025E+02  0.36678414437E+02  0.41800000000E+01 0.  1.
        -11    1    1    2    0    0  0.34425674344E+02  0.26186935267E+02 -0.34215751343E+01  0.43388821245E+02  0.00000000000E+00 0.  1.
         11    1    1    2    0    0 -0.41235060559E+02  0.10773389581E+03 -0.67385163455E+02  0.13359521990E+03  0.00000000000E+00 0. -1.
</event>
<event>
 7    1  0.2626349E-009  0.2283725E+03  0.7561462E-02  0.1127791E+00
         -2   -1    0    0    0  501 -0.00000000000E+00  0.00000000000E+00  0.26763815094E+03  0.26763815094E+03  0.00000000000E+00 0.  1.
          2   -1    0    0  501    0  0.00000000000E+00 -0.00000000000E+00 -0.21652175707E+03  0.21652175707E+03  0.00000000000E+00 0. -1.
         25    2    1    2    0    0  0.98784856696E+02  0.18903430758E+03  0.39388162187E+02  0.25038324819E+03  0.12509167158E+03 0.  0.
          5    1    3    3  502    0  0.31087609799E+02  0.10888241872E+02  0.49374780454E+02  0.59500711248E+02  0.41800000000E+01 0.  1.
         -5    1    3    3    0  502  0.67697246897E+02  0.17814606571E+03 -0.99866182674E+01  0.19088253695E+03  0.41800000000E+01 0.  1.
        -11    1    1    2    0    0  0.24215901313E+01 -0.94182349325E+02  0.12704456303E+02  0.95066199215E+02  0.00000000000E+00 0.  1.
         11    1    1    2    0    0 -0.10120644683E+03 -0.94851958260E+02 -0.97622461927E+00  0.13871046060E+03  0.00000000000E+00 0. -1.
</event>
<event>
 7    1  0.2626349E-009  0.1028578E+03  0.7561462E-02  0.1274399E+00
         -3   -1    0    0    0  501 -0.00000000000E+00  0.00000000000E+00  0.32569901983E+03  0.32569901983E+03  0.00000000000E+00 0.  1.
          3   -1    0    0  501    0  0.00000000000E+00 -0.00000000000E+00 -0.54878321294E+02  0.54878321294E+02  0.00000000000E+00 0. -1.
         25    2    1    2    0    0 -0.52892400065E+01  0.75462040559E+02  0.12179510099E+03  0.19027702936E+03  0.12509518636E+03 0.  0.
          5    1    3    3  502    0 -0.45368743348E+02  0.48041511532E+02  0.12497678865E+03  0.14143189104E+03  0.41800000000E+01 0. -1.
         -5    1    3    3    0  502  0.40079503342E+02  0.27420529027E+02 -0.31816876609E+01  0.48845138311E+02  0.41800000000E+01 0. -1.
        -11    1    1    2    0    0  0.16973969612E+02 -0.77116828803E+02  0.15721839537E+03  0.17593392160E+03  0.00000000000E+00 0.  1.
         11    1    1    2    0    0 -0.11684729605E+02  0.16547882439E+01 -0.81927978235E+01  0.14366390161E+02  0.00000000000E+00 0. -1.
</event>
<event>
 7    1  0.2626349E-009  0.1100362E+03  0.7561462E-02  0.1260503E+00
         -1   -1    0    0    0  501 -0.00000000000E+00  0.00000000000E+00  0.34412387097E+03  0.34412387097E+03  0.00000000000E+00 0.  1.
          1   -1    0    0  501    0  0.00000000000E+00 -0.00000000000E+00 -0.37269523612E+02  0.37269523612E+02  0.00000000000E+00 0. -1.
         25    2    1    2    0    0 -0.26786096026E+02 -0.21070991304E+02  0.15772333005E+03  0.20417040995E+03  0.12508967120E+03 0.  0.
          5    1    3    3  502    0  0.45407212646E+02  0.15098682580E+02  0.69691260319E+02  0.84641179935E+02  0.41800000000E+01 0. -1.
         -5    1    3    3    0  502 -0.72193308672E+02 -0.36169673885E+02  0.88032069734E+02  0.11952923001E+03  0.41800000000E+01 0. -1.
        -11    1    1    2    0    0  0.13588741932E+01 -0.32161111205E+02  0.80644729536E+02  0.86831768466E+02  0.00000000000E+00 0.  1.
         11    1    1    2    0    0  0.25427221833E+02  0.53232102509E+02  0.68486287766E+02  0.90391216164E+02  0.00000000000E+00 0. -1.
</event>
<event>
 7    1  0.2626349E-009  0.1057775E+03  0.7561462E-02  0.1268595E+00
          2   -1    0    0  501    0  0.00000000000E+00  0.00000000000E+00  0.30353486563E+02  0.30353486563E+02  0.00000000000E+00 0. -1.
         -2   -1    0    0    0  501 -0.00000000000E+00 -0.00000000000E+00 -0.11088529804E+04  0.11088529804E+04  0.00000000000E+00 0.  1.
         25    2    1    2    0    0  0.64382190053E+02 -0.63783711364E+02 -0.92908646679E+03  0.94184068491E+03  0.12509510281E+03 0.  0.
          5    1    3    3  502    0  0.30440402088E+02 -0.25767603475E+02 -0.82398441571E+03  0.82495962155E+03  0.41800000000E+01 0. -1.
         -5    1    3    3    0  502  0.33941787965E+02 -0.38016107889E+02 -0.10510205109E+03  0.11688106336E+03  0.41800000000E+01 0. -1.
        -11    1    1    2    0    0  0.17913815332E+02  0.33667060602E+01 -0.56342074205E+02  0.59217132785E+02  0.00000000000E+00 0.  1.
         11    1    1    2    0    0 -0.82296005386E+02  0.60417005303E+02 -0.93070952844E+02  0.13814864927E+03  0.00000000000E+00 0. -1.
</event>
<event>
 7    1  0.2626349E-009  0.2138625E+03  0.7561462E-02  0.1138543E+00
          1   -1    0    0  501    0  0.00000000000E+00  0.00000000000E+00  0.48911870050E+03  0.48911870050E+03  0.00000000000E+00 0. -1.
         -1   -1    0    0    0  501 -0.00000000000E+00 -0.00000000000E+00 -0.15688654121E+03  0.15688654121E+03  0.00000000000E+00 0.  1.
         25    2    1    2    0    0  0.19037401688E+03  0.59058754711E+02  0.35462690078E+03  0.42560307129E+03  0.12509009843E+03 0.  0.
          5    1    3    3  502    0  0.15711019628E+03  0.74754775566E+02  0.34642872419E+03  0.38768830726E+03  0.41800000000E+01 0.  1.
         -5    1    3    3    0  502  0.33263820607E+02 -0.15696020856E+02  0.81981765904E+01  0.37914764031E+02  0.41800000000E+01 0.  1.
        -11    1    1    2    0    0 -0.28019047582E+02 -0.45906709293E+02  0.89652462145E+01  0.54524018792E+02  0.00000000000E+00 0. -1.
         11    1    1    2    0    0 -0.16235496930E+03 -0.13152045417E+02 -0.31359987703E+02  0.16587815162E+03  0.00000000000E+00 0.  1.
</event>
<event>
 7    1  0.2626349E-009  0.1618818E+03  0.7561462E-02  0.1186588E+00
          3   -1    0    0  501    0  0.00000000000E+00  0.00000000000E+00  0.87895767789E+02  0.87895767789E+02  0.00000000000E+00 0. -1.
         -3   -1    0    0    0  501 -0.00000000000E+00 -0.00000000000E+00 -0.42015719122E+03  0.42015719122E+03  0.00000000000E+00 0.  1.
         25    2    1    2    0    0 -0.60546768711E+02  0.14534281221E+03 -0.16460455788E+03  0.25987018880E+03  0.12508960904E+03 0.  0.
          5    1    3    3  502    0 -0.64356354520E+02  0.10972255850E+03 -0.45076096701E+02  0.13501891388E+03  0.41800000000E+01 0.  1.
         -5    1    3    3    0  502  0.38095858084E+01  0.35620253706E+02 -0.11952846118E+03  0.12485127492E+03  0.41800000000E+01 0.  1.
        -11    1    1    2    0    0  0.58760398685E+02 -0.10726554315E+03 -0.64633807394E+02  0.13833369170E+03  0.00000000000E+00 0. -1.
         11    1    1    2    0    0  0.17863700264E+01 -0.38077269060E+02 -0.10302305816E+03  0.10984907851E+03  0.00000000000E+00 0.  1.
</event>
<event>
 7    1  0.2626349E-009  0.1298107E+03  0.7561462E-02  0.1227737E+00
         -1   -1    0    0    0  501 -0.00000000000E+00  0.00000000000E+00  0.10608644963E+03  0.10608644963E+03  0.00000000000E+00 0.  1.
          1   -1    0    0  501    0  0.00000000000E+00 -0.00000000000E+00 -0.15936521165E+03  0.15936521165E+03  0.00000000000E+00 0. -1.
         25    2    1    2    0    0  0.70380587600E+02 -0.40210968871E+01 -0.33237298755E+02  0.14737985018E+03  0.12508599393E+03 0.  0.
          5    1    3    3  502    0  0.71654428491E+02  0.51012008426E+02 -0.15628365853E+02  0.89433217236E+02  0.41800000000E+01 0. -1.
         -5    1    3    3    0  502 -0.12738408910E+01 -0.55033105313E+02 -0.17608932902E+02  0.57946632939E+02  0.41800000000E+01 0. -1.
        -11    1    1    2    0    0 -0.46150956256E+02  0.47723286424E+02 -0.11603645168E+02  0.67394861909E+02  0.00000000000E+00 0.  1.
         11    1    1    2    0    0 -0.24229631343E+02 -0.43702189537E+02 -0.84378180908E+01  0.50676949193E+02  0.00000000000E+00 0. -1.
</event>
<event>
 7    1  0.2626349E-009  0.1034843E+03  0.7561462E-02  0.1273135E+00
         -2   -1    0    0    0  501 -0.00000000000E+00  0.00000000000E+00  0.40073894237E+02  0.40073894237E+02  0.00000000000E+00 0.  1.
          2   -1    0    0  501    0  0.00000000000E+00 -0.00000000000E+00 -0.40686028022E+03  0.40686028022E+03  0.00000000000E+00 0. -1.
         25    2    1    2    0    0  0.71014448474E-01  0.64611830570E+02 -0.23269253034E+03  0.27196967225E+03  0.12508795007E+03 0.  0.
          5    1    3    3  502    0  0.38413948577E+02 -0.19223509966E+02 -0.42499949491E+02  0.60571386705E+02  0.41800000000E+01 0.  1.
         -5    1    3    3    0  502 -0.38342934128E+02  0.83835340535E+02 -0.19019258085E+03  0.21139828554E+03  0.41800000000E+01 0.  1.
        -11    1    1    2    0    0  0.15227607640E+02 -0.35862147298E+02 -0.13684357102E+03  0.14228189123E+03  0.00000000000E+00 0.  1.
         11    1    1    2    0    0 -0.15298622088E+02 -0.28749683271E+02  0.27497153720E+01  0.32682610982E+02  0.00000000000E+00 0. -1.
</event>
<event>
 7    1  0.2626349E-009  0.9760771E+02  0.7561462E-02  0.1285409E+00
         -1   -1    0    0    0  501 -0.00000000000E+00  0.00000000000E+00  0.35493599621E+02  0.35493599621E+02  0.00000000000E+00 0.  1.
          1   -1    0    0  501    0  0.00000000000E+00 -0.00000000000E+00 -0.53177917969E+03  0.53177917969E+03  0.00000000000E+00 0. -1.
         25    2    1    2    0    0  0.80376453096E+02 -0.26141277358E+01 -0.22176505375E+03  0.26700834960E+03  0.12508601766E+03 0.  0.
          5    1    3    3  502    0  0.31910052051E+02 -0.29814676369E+02 -0.20377258087E+03  0.20844160684E+03  0.41800000000E+01 0.  1.
         -5    1    3    3    0  502  0.48466401045E+02  0.27200548633E+02 -0.17992472878E+02  0.58566742751E+02  0.41800000000E+01 0.  1.
        -11    1    1    2    0    0 -0.26865468569E+02  0.25840612114E+02 -0.27166628555E+02  0.46125007782E+02  0.00000000000E+00 0.  1.
         11    1    1    2    0    0 -0.53510984528E+02 -0.23226484378E+02 -0.24735389776E+03  0.25413942193E+03  0.00000000000E+00 0. -1.
</event>
<event>
 7    1  0.2626349E-009  0.1390125E+03  0.7561462E-02  0.1214664E+00
          2   -1    0    0  501    0  0.00000000000E+00  0.00000000000E+00  0.13369145491E+04  0.13369145491E+04  0.00000000000E+00 0. -1.
         -2   -1    0    0    0  501 -0.00000000000E+00 -0.00000000000E+00 -0.20787955346E+02  0.20787955346E+02  0.00000000000E+00 0.  1.
         25    2    1    2    0    0  0.12047587396E+03  0.28584132493E+02  0.88342295657E+03  0.90078613494E+03  0.12509217349E+03 0.  0.
          5    1    3    3  502    0  0.36818234155E+02  0.49143671371E+02  0.14749711001E+03  0.15982350473E+03  0.41800000000E+01 0.  1.
         -5    1    3    3    0  502  0.83657639806E+02 -0.20559538878E+02  0.73592584656E+03  0.74096263021E+03  0.41800000000E+01 0.  1.
        -11    1    1    2    0    0 -0.74144214742E+02 -0.37435876442E+02  0.36545028294E+03  0.37477022124E+03  0.00000000000E+00 0.  1.
         11    1    1    2    0    0 -0.46331659219E+02  0.88517439489E+01  0.67253354198E+02  0.82146148223E+02  0.00000000000E+00 0. -1.
</event>
<event>
 7    1  0.2626349E-009  0.1511191E+03  0.7561462E-02  0.1199105E+00
          1   -1    0    0  501    0  0.00000000000E+00  0.00000000000E+00  0.11852501429E+04  0.11852501429E+04  0.00000000000E+00 0. -1.
         -1   -1    0    0    0  501 -0.00000000000E+00 -0.00000000000E+00 -0.30092250467E+02  0.30092250467E+02  0.00000000000E+00 0.  1.
         25    2    1    2    0    0 -0.44190133490E+02  0.10260299458E+03  0.94863478583E+03  0.96334595812E+03  0.12508931103E+03 0.  0.
          5    1    3    3  502    0  0.43013222011E+02  0.37125585241E+02  0.26494191836E+03  0.27099841117E+03  0.41800000000E+01 0.  1.
         -5    1    3    3    0  502 -0.87203355501E+02  0.65477409342E+02  0.68369286747E+03  0.69234754695E+03  0.41800000000E+01 0.  1.
        -11    1    1    2    0    0 -0.70267820182E+01 -0.79738035499E+02  0.77991133426E+02  0.11175932562E+03  0.00000000000E+00 0. -1.
         11    1    1    2    0    0  0.51216915508E+02 -0.22864959084E+02  0.12853197318E+03  0.14023710963E+03  0.00000000000E+00 0.  1.
</event>
<event>
 7    1  0.2626349E-009  0.1734896E+03  0.7561462E-02  0.1174257E+00
         -2   -1    0    0    0  501 -0.00000000000E+00  0.00000000000E+00  0.20908901627E+02  0.20908901627E+02  0.00000000000E+00 0.  1.
          2   -1    0    0  501    0  0.00000000000E+00 -0.00000000000E+00 -0.16758617502E+04  0.16758617502E+04  0.00000000000E+00 0. -1.
         25    2    1    2    0    0  0.10200627688E+03 -0.11257641356E+03 -0.93276872838E+03  0.95330163431E+03  0.12509107057E+03 0.  0.
          5    1    3    3  502    0  0.64187044774E+02  0.79929209467E+01 -0.21780059436E+03  0.22724091798E+03  0.41800000000E+01 0. -1.
         -5    1    3    3    0  502  0.37819232108E+02 -0.12056933450E+03 -0.71496813402E+03  0.72606071633E+03  0.41800000000E+01 0. -1.
        -11    1    1    2    0    0 -0.82117930788E+02  0.66925415238E+02 -0.62857809692E+03  0.63744238147E+03  0.00000000000E+00 0. -1.
         11    1    1    2    0    0 -0.19888346094E+02  0.45650998320E+02 -0.93606023279E+02  0.10602663605E+03  0.00000000000E+00 0.  1.
</event>
<event>
 7    1  0.2626349E-009  0.1272759E+03  0.7561462E-02  0.1231555E+00
          4   -1    0    0  501    0  0.00000000000E+00  0.00000000000E+00  0.56912866841E+02  0.56912866841E+02  0.00000000000E+00 0.  1.
         -4   -1    0    0    0  501 -0.00000000000E+00 -0.00000000000E+00 -0.29805692673E+03  0.29805692673E+03  0.00000000000E+00 0. -1.
         25    2    1    2    0    0 -0.52471484293E+02  0.49722658229E+02 -0.13973191049E+03  0.20099160604E+03  0.12508804692E+03 0.  0.
          5    1    3    3  502    0 -0.75489386746E+02  0.76968994659E+02 -0.11290266511E+03  0.15616452170E+03  0.41800000000E+01 0. -1.
         -5    1    3    3    0  502  0.23017902452E+02 -0.27246336429E+02 -0.26829245381E+02  0.44827084334E+02  0.41800000000E+01 0. -1.
        -11    1    1    2    0    0  0.48432476684E+02  0.11185746428E+02 -0.23448190483E+02  0.54960379891E+02  0.00000000000E+00 0.  1.
         11    1    1    2    0    0  0.40390076095E+01 -0.60908404657E+02 -0.77963958913E+02  0.99017807639E+02  0.00000000000E+00 0. -1.
</event>
<event>
 7    1  0.2626349E-009  0.1284087E+03  0.7561462E-02  0.1229836E+00
          1   -1    0    0  501    0  0.00000000000E+00  0.00000000000E+00  0.40732797929E+03  0.40732797929E+03  0.00000000000E+00 0. -1.
         -1   -1    0    0    0  501 -0.00000000000E+00 -0.00000000000E+00 -0.71031339170E+02  0.71031339170E+02  0.00000000000E+00 0.  1.
         25    2    1    2    0    0  0.45375052489E+02  0.72656667281E+02  0.39946439730E+02  0.15679038302E+03  0.12509843913E+03 0.  0.
          5    1    3    3  502    0 -0.22583406671E+02 -0.16412498532E+02  0.34457320212E+02  0.44543907340E+02  0.41800000000E+01 0. -1.
         -5    1    3    3    0  502  0.67958459159E+02  0.89069165813E+02  0.54891195176E+01  0.11224647568E+03  0.41800000000E+01 0. -1.
        -11    1    1    2    0    0 -0.80906131661E+01 -0.78344179605E+02  0.24825450982E+03  0.26044878603E+03  0.00000000000E+00 0. -1.
         11    1    1    2    0    0 -0.37284439322E+02  0.56875123241E+01  0.48095690568E+02  0.61120149404E+02  0.00000000000E+00 0.  1.
</event>
<event>
 7    1  0.2626349E-009  0.2121076E+03  0.7561462E-02  0.1139908E+00
          1   -1    0    0  501    0  0.00000000000E+00  0.00000000000E+00  0.57322437419E+03  0.57322437419E+03  0.00000000000E+00 0. -1.
         -1   -1    0    0    0  501 -0.00000000000E+00 -0.00000000000E+00 -0.97835693762E+02  0.97835693762E+02  0.00000000000E+00 0.  1.
         25    2    1    2    0    0  0.87004447415E+02  0.18773920587E+03  0.19280462667E+03  0.30925198543E+03  0.12508950052E+03 0.  0.
          5    1    3    3  502    0  0.91539178742E+02  0.18793624233E+03  0.20672366396E+03  0.29402652613E+03  0.41800000000E+01 0. -1.
         -5    1    3    3    0  502 -0.45347313276E+01 -0.19703646746E+00 -0.13919037298E+02  0.15225459300E+02  0.41800000000E+01 0. -1.
        -11    1    1    2    0    0 -0.83089393532E+02 -0.15393018439E+03  0.16897163238E+03  0.24320723988E+03  0.00000000000E+00 0.  1.
         11    1    1    2    0    0 -0.39150538833E+01 -0.33809021473E+02  0.11361242139E+03  0.11860084263E+03  0.00000000000E+00 0. -1.
</event>
<event>
 7    1  0.2626349E-009  0.2373179E+03  0.7561462E-02  0.1121593E+00
          2   -1    0    0  501    0  0.00000000000E+00  0.00000000000E+00  0.28688267817E+04  0.28688267817E+04  0.00000000000E+00 0. -1.
         -2   -1    0    0    0  501 -0.00000000000E+00 -0.00000000000E+00 -0.22748489301E+02  0.22748489301E+02  0.00000000000E+00 0.  1.
         25    2    1    2    0    0  0.53789831834E+02 -0.22000978543E+03  0.17112368916E+04  0.17306868920E+04  0.12509103706E+03 0.  0.
          5    1    3    3  502    0  0.14514289070E+02 -0.13454052016E+02  0.56221507190E+03  0.56257882610E+03  0.41800000000E+01 0. -1.
         -5    1    3    3    0  502  0.39275542764E+02 -0.20655573341E+03  0.11490218197E+04  0.11681080659E+04  0.41800000000E+01 0. -1.
        -11    1    1    2    0    0  0.16037723342E+02  0.12593642678E+03  0.62424189430E+03  0.63702051361E+03  0.00000000000E+00 0. -1.
         11    1    1    2    0    0 -0.69827555176E+02  0.94073358652E+02  0.51059950656E+03  0.52386786537E+03  0.00000000000E+00 0.  1.
</event>
<event>
 7    1  0.2626349E-009  0.4981859E+02  0.7561462E-02  0.1446322E+00
          1   -1    0    0  501    0  0.00000000000E+00  0.00000000000E+00  0.31170540746E+03  0.31170540746E+03  0.00000000000E+00 0. -1.
         -1   -1    0    0    0  501 -0.00000000000E+00 -0.00000000000E+00 -0.56849348960E+02  0.56849348960E+02  0.00000000000E+00 0.  1.
         25    2    1    2    0    0 -0.24959036163E+02  0.71739108969E-01  0.24261439075E+03  0.27410208661E+03  0.12508897895E+03 0.  0.
          5    1    3    3  502    0 -0.52220761957E+01  0.19051464653E+02  0.24543081143E+03  0.24625999266E+03  0.41800000000E+01 0. -1.
         -5    1    3    3    0  502 -0.19736959967E+02 -0.18979725544E+02 -0.28164206779E+01  0.27842093957E+02  0.41800000000E+01 0. -1.
        -11    1    1    2    0    0  0.69973979986E+01 -0.22182135383E+02 -0.33369862992E+02  0.40676264148E+02  0.00000000000E+00 0.  1.
         11    1    1    2    0    0  0.17961638164E+02  0.22110396274E+02  0.45611530744E+02  0.53776405660E+02  0.00000000000E+00 0. -1.
</event>
<event>
 7    1  0.2626349E-009  0.1260067E+03  0.7561462E-02  0.1233504E+00
          2   -1    0    0  501    0  0.00000000000E+00  0.00000000000E+00  0.25528815749E+03  0.25528815749E+03  0.00000000000E+00 0. -1.
         -2   -1    0    0    0  501 -0.00000000000E+00 -0.00000000000E+00 -0.77661149437E+02  0.77661149437E+02  0.00000000000E+00 0.  1.
         25    2    1    2    0    0 -0.34382028863E+02 -0.82701526530E+02  0.89906574362E+02  0.17819348821E+03  0.12509220890E+03 0.  0.
          5    1    3    3  502    0  0.14395130803E+02  0.14676864099E+02  0.62331888970E+02  0.65767521720E+02  0.41800000000E+01 0.  1.
         -5    1    3    3    0  502 -0.48777159666E+02 -0.97378390629E+02  0.27574685392E+02  0.11242596649E+03  0.41800000000E+01 0.  1.
        -11    1    1    2    0    0 -0.24742300167E+02  0.64770936499E+01  0.39118081637E+02  0.46737120907E+02  0.00000000000E+00 0. -1.
         11    1    1    2    0    0  0.59124329030E+02  0.76224432880E+02  0.48602352050E+02  0.10801869781E+03  0.00000000000E+00 0.  1.
</event>
<event>
 7    1  0.2626349E-009  0.1039136E+03  0.7561462E-02  0.1272275E+00
         -2   -1    0    0    0  501 -0.00000000000E+00  0.00000000000E+00  0.32558491510E+02  0.32558491510E+02  0.00000000000E+00 0.  1.
          2   -1    0    0  501    0  0.00000000000E+00 -0.00000000000E+00 -0.40197253924E+03  0.40197253924E+03  0.00000000000E+00 0. -1.
         25    2    1    2    0    0 -0.42758769526E+00 -0.25182810934E+02 -0.16709173005E+03  0.21024234642E+03  0.12509133135E+03 0.  0.
          5    1    3    3  502    0  0.40076168917E+02 -0.51292769151E+02 -0.45910991524E+02  0.79764271606E+02  0.41800000000E+01 0.  1.
         -5    1    3    3    0  502 -0.40503756612E+02  0.26109958216E+02 -0.12118073853E+03  0.13047807482E+03  0.41800000000E+01 0.  1.
        -11    1    1    2    0    0 -0.27768706894E+02  0.49656393204E+02 -0.95891748632E+02  0.11149926423E+03  0.00000000000E+00 0. -1.
         11    1    1    2    0    0  0.28196294589E+02 -0.24473582269E+02 -0.10643056904E+03  0.11278942009E+03  0.00000000000E+00 0.  1.
</event>
<event>
 7    1  0.2626349E-009  0.1143821E+03  0.7561462E-02  0.1252664E+00
          2   -1    0    0  501    0  0.00000000000E+00  0.00000000000E+00  0.50996540400E+03  0.50996540400E+03  0.00000000000E+00 0. -1.
         -2   -1    0    0    0  501 -0.00000000000E+00 -0.00000000000E+00 -0.29025683284E+02  0.29025683284E+02  0.00000000000E+00 0.  1.
         25    2    1    2    0    0  0.55280757088E+02 -0.18414689262E+01  0.29557736051E+03  0.32568792653E+03  0.12508915353E+03 0.  0.
          5    1    3    3  502    0  0.73469726191E+01  0.57264196599E+02  0.96619508661E+02  0.11263200288E+03  0.41800000000E+01 0.  1.
         -5    1    3    3    0  502  0.47933784469E+02 -0.59105665525E+02  0.19895785185E+03  0.21305592365E+03  0.41800000000E+01 0.  1.
        -11    1    1    2    0    0  0.12585922320E+01 -0.29832087476E+02  0.10964845002E+03  0.11364119011E+03  0.00000000000E+00 0. -1.
         11    1    1    2    0    0 -0.56539349320E+02  0.31673556402E+02  0.75713910176E+02  0.99661970635E+02  0.00000000000E+00 0.  1.
</event>
<event>
 7    1  0.2626349E-009  0.1518825E+03  0.7561462E-02  0.1198179E+00
         -2   -1    0    0    0  501 -0.00000000000E+00  0.00000000000E+00  0.26220943963E+02  0.26220943963E+02  0.00000000000E+00 0. -1.
          2   -1    0    0  501    0  0.00000000000E+00 -0.00000000000E+00 -0.11337491053E+04  0.11337491053E+04  0.00000000000E+00 0.  1.
         25    2    1    2    0    0  0.82236769270E+02 -0.77233566368E+02 -0.82919242276E+03  0.84612980739E+03  0.12509063515E+03 0.  0.
          5    1    3    3  502    0  0.76174636651E+02  0.48448614250E+01 -0.26006195401E+03  0.27106408887E+03  0.41800000000E+01 0. -1.
         -5    1    3    3    0  502  0.60621326198E+01 -0.82078427793E+02 -0.56913046875E+03  0.57506571852E+03  0.41800000000E+01 0. -1.
        -11    1    1    2    0    0 -0.33968643303E+02  0.88974626394E+02 -0.17775089533E+03  0.20165746617E+03  0.00000000000E+00 0.  1.
         11    1    1    2    0    0 -0.48268125967E+02 -0.11741060026E+02 -0.10058484330E+03  0.11218277575E+03  0.00000000000E+00 0. -1.
</event>
<event>
 7    1  0.2626349E-009  0.7940585E+02  0.7561462E-02  0.1330746E+00
          1   -1    0    0  501    0  0.00000000000E+00  0.00000000000E+00  0.18433831638E+03  0.18433831638E+03  0.00000000000E+00 0.  1.
         -1   -1    0    0    0  501 -0.00000000000E+00 -0.00000000000E+00 -0.88639309717E+02  0.88639309717E+02  0.00000000000E+00 0. -1.
         25    2    1    2    0    0 -0.57337019138E+02 -0.25920500215E+02  0.79613639296E+02  0.16107258971E+03  0.12508653605E+03 0.  0.
          5    1    3    3  502    0 -0.21089286779E+02  0.24373842499E+02  0.92124522184E+02  0.97689519411E+02  0.41800000000E+01 0.  1.
         -5    1    3    3    0  502 -0.36247732359E+02 -0.50294342715E+02 -0.12510882888E+02  0.63383070302E+02  0.41800000000E+01 0.  1.
        -11    1    1    2    0    0  0.31725385595E+02  0.74244437537E+01 -0.37513880023E+02  0.49688164090E+02  0.00000000000E+00 0. -1.
         11    1    1    2    0    0  0.25611633543E+02  0.18496056462E+02  0.53599247388E+02  0.62216872293E+02  0.00000000000E+00 0.  1.
</event>
<event>
 7    1  0.2626349E-009  0.1242327E+03  0.7561462E-02  0.1236273E+00
         -2   -1    0    0    0  501 -0.00000000000E+00  0.00000000000E+00  0.34393037436E+03  0.34393037436E+03  0.00000000000E+00 0.  1.
          2   -1    0    0  501    0  0.00000000000E+00 -0.00000000000E+00 -0.58888495202E+02  0.58888495202E+02  0.00000000000E+00 0. -1.
         25    2    1    2    0    0  0.78144740063E+02 -0.47314932055E+02  0.16253715668E+03  0.22452526706E+03  0.12509182648E+03 0.  0.
          5    1    3    3  502    0 -0.63311127085E+01 -0.32590466197E+02  0.12746899272E+03  0.13178785217E+03  0.41800000000E+01 0.  1.
         -5    1    3    3    0  502  0.84475852771E+02 -0.14724465858E+02  0.35068163957E+02  0.92737414885E+02  0.41800000000E+01 0.  1.
        -11    1    1    2    0    0 -0.62050402683E+02  0.74870333023E+02  0.98018516108E+02  0.13807044847E+03  0.00000000000E+00 0. -1.
         11    1    1    2    0    0 -0.16094337379E+02 -0.27555400968E+02  0.24486206373E+02  0.40223154038E+02  0.00000000000E+00 0.  1.
</event>
<event>
 7    1  0.2626349E-009  0.2375537E+03  0.7561462E-02  0.1121433E+00
          2   -1    0    0  501    0  0.00000000000E+00  0.00000000000E+00  0.19773557485E+03  0.19773557485E+03  0.00000000000E+00 0. -1.
         -2   -1    0    0    0  501 -0.00000000000E+00 -0.00000000000E+00 -0.28628936305E+03  0.28628936305E+03  0.00000000000E+00 0.  1.
         25    2    1    2    0    0 -0.17703370220E+03 -0.11521354849E+03 -0.38059518537E+02  0.24841704652E+03  0.12508960219E+03 0.  0.
          5    1    3    3  502    0 -0.17525457562E+03 -0.13717396019E+03 -0.30097174798E+02  0.22462006580E+03  0.41800000000E+01 0. -1.
         -5    1    3    3    0  502 -0.17791265831E+01  0.21960411698E+02 -0.79623437396E+01  0.23796980715E+02  0.41800000000E+01 0. -1.
        -11    1    1    2    0    0  0.49558232562E+02 -0.10930010836E+02 -0.13096740576E+02  0.52411908621E+02  0.00000000000E+00 0. -1.
         11    1    1    2    0    0  0.12747546964E+03  0.12614355933E+03 -0.37397529092E+02  0.18319598277E+03  0.00000000000E+00 0.  1.
</event>
<event>
 7    1  0.2626349E-009  0.1041129E+03  0.7561462E-02  0.1271877E+00
         -2   -1    0    0    0  501 -0.00000000000E+00  0.00000000000E+00  0.58324552990E+02  0.58324552990E+02  0.00000000000E+00 0.  1.
          2   -1    0    0  501    0  0.00000000000E+00 -0.00000000000E+00 -0.33604007349E+03  0.33604007349E+03  0.00000000000E+00 0. -1.
         25    2    1    2    0    0 -0.44652214777E+02  0.74661293531E+02 -0.13669111993E+03  0.20469812066E+03  0.12509488118E+03 0.  0.
          5    1    3    3  502    0 -0.41999353121E+02  0.64080775170E+02 -0.16065497502E+03  0.17803871716E+03  0.41800000000E+01 0.  1.
         -5    1    3    3    0  502 -0.26528616565E+01  0.10580518362E+02  0.23963855093E+02  0.26659403495E+02  0.41800000000E+01 0.  1.
        -11    1    1    2    0    0  0.38606891789E+02  0.58735382399E+01 -0.19231246698E+02  0.43529661090E+02  0.00000000000E+00 0.  1.
         11    1    1    2    0    0  0.60453229883E+01 -0.80534831771E+02 -0.12179315387E+03  0.14613684473E+03  0.00000000000E+00 0. -1.
</event>
<event>
 7    1  0.2626349E-009  0.8098132E+02  0.7561462E-02  0.1326289E+00
         -2   -1    0    0    0  501 -0.00000000000E+00  0.00000000000E+00  0.47920591622E+02  0.47920591622E+02  0.00000000000E+00 0.  1.
          2   -1    0    0  501    0  0.00000000000E+00 -0.00000000000E+00 -0.27612551959E+03  0.27612551959E+03  0.00000000000E+00 0. -1.
         25    2    1    2    0    0  0.31007387919E+02 -0.21290118851E+02 -0.13649409651E+03  0.18892674410E+03  0.12509176227E+03 0.  0.
          5    1    3    3  502    0  0.18632935431E+02 -0.55645511224E+02 -0.13230751855E+02  0.60300368132E+02  0.41800000000E+01 0. -1.
         -5    1    3    3    0  502  0.12374452488E+02  0.34355392374E+02 -0.12326334466E+03  0.12862637597E+03  0.41800000000E+01 0. -1.
        -11    1    1    2    0    0 -0.21049973382E+02 -0.16847054985E+02 -0.91827241615E+02  0.95703536736E+02  0.00000000000E+00 0. -1.
         11    1    1    2    0    0 -0.99574145370E+01  0.38137173836E+02  0.11641016330E+00  0.39415830370E+02  0.00000000000E+00 0.  1.
</event>
<event>
 7    1  0.2626349E-009  0.1274548E+03  0.7561462E-02  0.1231282E+00
         -2   -1    0    0    0  501 -0.00000000000E+00  0.00000000000E+00  0.43064000880E+02  0.43064000880E+02  0.00000000000E+00 0. -1.
          2   -1    0    0  501    0  0.00000000000E+00 -0.00000000000E+00 -0.57780217984E+03  0.57780217984E+03  0.00000000000E+00 0.  1.
         25    2    1    2    0    0 -0.95185704017E+02  0.49360630222E+02 -0.23939545084E+03  0.29060985826E+03  0.12508843978E+03 0.  0.
          5    1    3    3  502    0 -0.40573970919E+02  0.74940210354E+02 -0.20262181180E+03  0.21985302650E+03  0.41800000000E+01 0. -1.
         -5    1    3    3    0  502 -0.54611733098E+02 -0.25579580132E+02 -0.36773639037E+02  0.70756831753E+02  0.41800000000E+01 0. -1.
        -11    1    1    2    0    0  0.59490176094E+02 -0.19515762986E+02 -0.27022062586E+03  0.27737904156E+03  0.00000000000E+00 0.  1.
         11    1    1    2    0    0  0.35695527924E+02 -0.29844867236E+02 -0.25122102264E+02  0.52877280908E+02  0.00000000000E+00 0. -1.
</event>
<event>
 7    1  0.2626349E-009  0.9396759E+02  0.7561462E-02  0.1293518E+00
         -2   -1    0    0    0  501 -0.00000000000E+00  0.00000000000E+00  0.69073962539E+02  0.69073962539E+02  0.00000000000E+00 0.  1.
          2   -1    0    0  501    0  0.00000000000E+00 -0.00000000000E+00 -0.18351322716E+03  0.18351322716E+03  0.00000000000E+00 0. -1.
         25    2    1    2    0    0 -0.11245605621E+02 -0.73402564005E+01 -0.10746951561E+03  0.16546169010E+03  0.12509009192E+03 0.  0.
          5    1    3    3  502    0 -0.11945098936E+02  0.47735159270E+02 -0.97552550967E+02  0.10934031013E+03  0.41800000000E+01 0.  1.
         -5    1    3    3    0  502  0.69949331481E+00 -0.55075415671E+02 -0.99169646446E+01  0.56121379972E+02  0.41800000000E+01 0.  1.
        -11    1    1    2    0    0  0.47116419111E+02  0.44134670886E+01 -0.16115774420E+02  0.49991537551E+02  0.00000000000E+00 0. -1.
         11    1    1    2    0    0 -0.35870813490E+02  0.29267893119E+01  0.91460254138E+01  0.37133962042E+02  0.00000000000E+00 0.  1.
</event>
<event>
 7    1  0.2626349E-009  0.1288098E+03  0.7561462E-02  0.1229232E+00
          2   -1    0    0  501    0  0.00000000000E+00  0.00000000000E+00  0.20357493569E+04  0.20357493569E+04  0.00000000000E+00 0. -1.
         -2   -1    0    0    0  501 -0.00000000000E+00 -0.00000000000E+00 -0.11221435399E+02  0.11221435399E+02  0.00000000000E+00 0.  1.
         25    2    1    2    0    0  0.20683048864E+02 -0.95233188638E+02  0.11960412758E+04  0.12065072529E+04  0.12509144307E+03 0.  0.
          5    1    3    3  502    0 -0.33318363252E+01  0.83013877645E+01  0.65688391755E+03  0.65695811717E+03  0.41800000000E+01 0.  1.
         -5    1    3    3    0  502  0.24014885189E+02 -0.10353457640E+03  0.53915735822E+03  0.54954913570E+03  0.41800000000E+01 0.  1.
        -11    1    1    2    0    0 -0.60993301681E+02  0.73747356671E+02  0.56237904353E+03  0.57046388498E+03  0.00000000000E+00 0. -1.
         11    1    1    2    0    0  0.40310252817E+02  0.21485831966E+02  0.26610760216E+03  0.26999965441E+03  0.00000000000E+00 0.  1.
</event>
<event>
 7    1  0.2626349E-009  0.8692270E+02  0.7561462E-02  0.1310480E+00
          1   -1    0    0  501    0  0.00000000000E+00  0.00000000000E+00  0.20919470435E+03  0.20919470435E+03  0.00000000000E+00 0. -1.
         -1   -1    0    0    0  501 -0.00000000000E+00 -0.00000000000E+00 -0.12403884927E+03  0.12403884927E+03  0.00000000000E+00 0.  1.
         25    2    1    2    0    0 -0.60509212695E+01 -0.23935653026E+00  0.16893972034E+03  0.21029358299E+03  0.12508433554E+03 0.  0.
          5    1    3    3  502    0 -0.45059027280E+02  0.30970709946E+00  0.96868719972E+01  0.46278718078E+02  0.41800000000E+01 0. -1.
         -5    1    3    3    0  502  0.39008106010E+02 -0.54906362972E+00  0.15925284835E+03  0.16401486491E+03  0.41800000000E+01 0. -1.
        -11    1    1    2    0    0  0.30528330789E+02  0.35253728788E+02 -0.36545641080E+02  0.59248529569E+02  0.00000000000E+00 0.  1.
         11    1    1    2    0    0 -0.24477409519E+02 -0.35014372257E+02 -0.47238224179E+02  0.63691441065E+02  0.00000000000E+00 0. -1.
</event>
<event>
 7    1  0.2626349E-009  0.1244413E+03  0.7561462E-02  0.1235945E+00
         -2   -1    0    0    0  501 -0.00000000000E+00  0.00000000000E+00  0.38309601542E+02  0.38309601542E+02  0.00000000000E+00 0.  1.
          2   -1    0    0  501    0  0.00000000000E+00 -0.00000000000E+00 -0.78520451277E+03  0.78520451277E+03  0.00000000000E+00 0. -1.
         25    2    1    2    0    0 -0.10589585727E+03 -0.40690250082E+02 -0.57086618476E+03  0.59531948146E+03  0.12508978799E+03 0.  0.
          5    1    3    3  502    0 -0.23511752605E+02 -0.45402124537E+02 -0.65271708598E+02  0.83018213462E+02  0.41800000000E+01 0.  1.
         -5    1    3    3    0  502 -0.82384104668E+02  0.47118744557E+01 -0.50559447616E+03  0.51230126800E+03  0.41800000000E+01 0.  1.
        -11    1    1    2    0    0  0.28325928116E+02  0.23292234852E+01 -0.12401222652E+03  0.12722741769E+03  0.00000000000E+00 0. -1.
         11    1    1    2    0    0  0.77569929158E+02  0.38361026596E+02 -0.52016499945E+02  0.10096721516E+03  0.00000000000E+00 0.  1.
</event>
<event>
 7    1  0.2626349E-009  0.1155990E+03  0.7561462E-02  0.1250539E+00
          2   -1    0    0  501    0  0.00000000000E+00  0.00000000000E+00  0.28497669814E+03  0.28497669814E+03  0.00000000000E+00 0. -1.
         -2   -1    0    0    0  501 -0.00000000000E+00 -0.00000000000E+00 -0.80411867747E+02  0.80411867747E+02  0.00000000000E+00 0.  1.
         25    2    1    2    0    0 -0.10367996738E+03 -0.14049174695E+02  0.11230853799E+03  0.19800881651E+03  0.12508944306E+03 0.  0.
          5    1    3    3  502    0 -0.52111299766E+02 -0.42447315456E+02 -0.41291719417E+01  0.67467656055E+02  0.41800000000E+01 0. -1.
         -5    1    3    3    0  502 -0.51568667616E+02  0.28398140761E+02  0.11643770993E+03  0.13054116046E+03  0.41800000000E+01 0. -1.
        -11    1    1    2    0    0  0.59743702250E+02  0.11400626760E+02 -0.45955601066E+01  0.60995109818E+02  0.00000000000E+00 0.  1.
         11    1    1    2    0    0  0.43936265132E+02  0.26485479343E+01  0.96851852508E+02  0.10638463956E+03  0.00000000000E+00 0. -1.
</event>
<event>
 7    1  0.2626349E-009  0.1040886E+03  0.7561462E-02  0.1271926E+00
         -1   -1    0    0    0  501 -0.00000000000E+00  0.00000000000E+00  0.23976890706E+02  0.23976890706E+02  0.00000000000E+00 0.  1.
          1   -1    0    0  501    0  0.00000000000E+00 -0.00000000000E+00 -0.71712579331E+03  0.71712579331E+03  0.00000000000E+00 0. -1.
         25    2    1    2    0    0  0.61411497316E+02 -0.94093995046E+01 -0.49286817387E+03  0.51227569997E+03  0.12508975644E+03 0.  0.
          5    1    3    3  502    0  0.63602377030E+02 -0.34441568274E+02 -0.13254650432E+03  0.15105473246E+03  0.41800000000E+01 0. -1.
         -5    1    3    3    0  502 -0.21908797146E+01  0.25032168769E+02 -0.36032166955E+03  0.36122096752E+03  0.41800000000E+01 0. -1.
        -11    1    1    2    0    0 -0.52859692122E+02 -0.36059839443E+02 -0.12597426797E+03  0.14129393215E+03  0.00000000000E+00 0. -1.
         11    1    1    2    0    0 -0.85518051941E+01  0.45469238948E+02 -0.74306460758E+02  0.87533051889E+02  0.00000000000E+00 0.  1.
</event>
<event>
 7    1  0.2626349E-009  0.1059741E+03  0.7561462E-02  0.1268212E+00
          2   -1    0    0  501    0  0.00000000000E+00  0.00000000000E+00  0.21914110366E+03  0.21914110366E+03  0.00000000000E+00 0.  1.
         -2   -1    0    0    0  501 -0.00000000000E+00 -0.00000000000E+00 -0.58521220997E+02  0.58521220997E+02  0.00000000000E+00 0. -1.
         25    2    1    2    0    0  0.84574649043E+01 -0.57031685128E+01  0.12983920813E+03  0.18058178724E+03  0.12508999588E+03 0.  0.
          5    1    3    3  502    0  0.56951400522E+02  0.30543291253E+02  0.64276514576E+02  0.91243067617E+02  0.41800000000E+01 0.  1.
         -5    1    3    3    0  502 -0.48493935618E+02 -0.36246459766E+02  0.65562693552E+02  0.89338719618E+02  0.41800000000E+01 0.  1.
        -11    1    1    2    0    0 -0.32961919235E+02  0.35153282427E+02  0.33473135332E+02  0.58674459298E+02  0.00000000000E+00 0.  1.
         11    1    1    2    0    0  0.24504454330E+02 -0.29450113914E+02 -0.26924607989E+01  0.38406078122E+02  0.00000000000E+00 0. -1.
</event>
<event>
 7    1  0.2626349E-009  0.1472746E+03  0.7561462E-02  0.1203863E+00
          1   -1    0    0  501    0  0.00000000000E+00  0.00000000000E+00  0.32799597736E+03  0.32799597736E+03  0.00000000000E+00 0. -1.
         -1   -1    0    0    0  501 -0.00000000000E+00 -0.00000000000E+00 -0.66510756516E+02  0.66510756516E+02  0.00000000000E+00 0.  1.
         25    2    1    2    0    0 -0.99909138364E+02  0.41195713883E+01  0.14764809825E+03  0.21782070957E+03  0.12508834399E+03 0.  0.
          5    1    3    3  502    0  0.15387064598E+02  0.36313711854E+02  0.28221459821E+02  0.48676181239E+02  0.41800000000E+01 0.  1.
         -5    1    3    3    0  502 -0.11529620296E+03 -0.32194140465E+02  0.11942663842E+03  0.16914452833E+03  0.41800000000E+01 0.  1.
        -11    1    1    2    0    0  0.67608880337E+02  0.41412587073E+02  0.65437201485E+02  0.10280073155E+03  0.00000000000E+00 0.  1.
         11    1    1    2    0    0  0.32300258028E+02 -0.45532158461E+02  0.48399921113E+02  0.73885292762E+02  0.00000000000E+00 0. -1.
</event>
<event>
 7    1  0.2626349E-009  0.1265504E+03  0.7561462E-02  0.1232666E+00
          1   -1    0    0  501    0  0.00000000000E+00  0.00000000000E+00  0.23963230147E+03  0.23963230147E+03  0.00000000000E+00 0. -1.
         -1   -1    0    0    0  501 -0.00000000000E+00 -0.00000000000E+00 -0.75529879438E+02  0.75529879438E+02  0.00000000000E+00 0.  1.
         25    2    1    2    0    0 -0.63955039793E+02  0.22618862439E+02  0.43478985753E+02  0.14879386713E+03  0.12508929867E+03 0.  0.
          5    1    3    3  502    0  0.58993473807E+00  0.62429532759E+02  0.36702692008E+02  0.72542088363E+02  0.41800000000E+01 0.  1.
         -5    1    3    3    0  502 -0.64544974532E+02 -0.39810670319E+02  0.67762937451E+01  0.76251778769E+02  0.41800000000E+01 0.  1.
        -11    1    1    2    0    0  0.50408013987E+02 -0.57910443306E+02  0.80557765265E+02  0.11128405484E+03  0.00000000000E+00 0.  1.
         11    1    1    2    0    0  0.13547025807E+02  0.35291580867E+02  0.40065671011E+02  0.55084258930E+02  0.00000000000E+00 0. -1.
</event>
<event>
 7    1  0.2626349E-009  0.1224613E+03  0.7561462E-02  0.1239091E+00
          1   -1    0    0  501    0  0.00000000000E+00  0.00000000000E+00  0.60838489894E+03  0.60838489894E+03  0.00000000000E+00 0. -1.
         -1   -1    0    0    0  501 -0.00000000000E+00 -0.00000000000E+00 -0.34364517579E+02  0.34364517579E+02  0.00000000000E+00 0.  1.
         25    2    1    2    0    0 -0.48071778295E+02  0.28897164103E+02  0.14324781326E+03  0.19827780230E+03  0.12509280123E+03 0.  0.
          5    1    3    3  502    0 -0.65568143904E+02 -0.31326570426E+02  0.62409294577E+02  0.95879757818E+02  0.41800000000E+01 0.  1.
         -5    1    3    3    0  502  0.17496365609E+02  0.60223734529E+02  0.80838518687E+02  0.10239804448E+03  0.41800000000E+01 0.  1.
        -11    1    1    2    0    0  0.74975680600E+02 -0.83694999890E+01  0.28412792382E+03  0.29397292104E+03  0.00000000000E+00 0. -1.
         11    1    1    2    0    0 -0.26903902305E+02 -0.20527664114E+02  0.14664464427E+03  0.15049869318E+03  0.00000000000E+00 0.  1.
</event>
<event>
 7    1  0.2626349E-009  0.8446407E+02  0.7561462E-02  0.1316840E+00
         -1   -1    0    0    0  501 -0.00000000000E+00  0.00000000000E+00  0.58917300557E+03  0.58917300557E+03  0.00000000000E+00 0.  1.
          1   -1    0    0  501    0  0.00000000000E+00 -0.00000000000E+00 -0.22733196877E+02  0.22733196877E+02  0.00000000000E+00 0. -1.
         25    2    1    2    0    0 -0.33784556709E+02 -0.18417138100E+02  0.29939981873E+03  0.32674738237E+03  0.12507203198E+03 0.  0.
          5    1    3    3  502    0 -0.45945316420E+02 -0.28051616989E+02  0.40867553950E+02  0.67716280778E+02  0.41800000000E+01 0.  1.
         -5    1    3    3    0  502  0.12160759710E+02  0.96344788892E+01  0.25853226478E+03  0.25903110159E+03  0.41800000000E+01 0.  1.
        -11    1    1    2    0    0  0.11055277804E+02  0.54834560824E+02  0.17214863007E+03  0.18100883698E+03  0.00000000000E+00 0.  1.
         11    1    1    2    0    0  0.22729278906E+02 -0.36417422724E+02  0.94891359894E+02  0.10414998310E+03  0.00000000000E+00 0. -1.
</event>
<event>
 7    1  0.2626349E-009  0.7305971E+02  0.7561462E-02  0.1349987E+00
         -2   -1    0    0    0  501 -0.00000000000E+00  0.00000000000E+00  0.89501328501E+02  0.89501328501E+02  0.00000000000E+00 0.  1.
          2   -1    0    0  501    0  0.00000000000E+00 -0.00000000000E+00 -0.16764973907E+03  0.16764973907E+03  0.00000000000E+00 0. -1.
         25    2    1    2    0    0 -0.50008965182E+02  0.27931578735E+02 -0.22508716024E+02  0.13940234688E+03  0.12508118295E+03 0.  0.
          5    1    3    3  502    0 -0.53904760350E+02 -0.18747011042E+01  0.41751007123E+02  0.68336349686E+02  0.41800000000E+01 0.  1.
         -5    1    3    3    0  502  0.38957951676E+01  0.29806279839E+02 -0.64259723146E+02  0.71065997190E+02  0.41800000000E+01 0.  1.
        -11    1    1    2    0    0  0.17111173965E+02 -0.22595758672E+02  0.20269468608E+02  0.34845544078E+02  0.00000000000E+00 0.  1.
         11    1    1    2    0    0  0.32897791217E+02 -0.53358200629E+01 -0.75909163153E+02  0.82903176617E+02  0.00000000000E+00 0. -1.
</event>
<event>
 7    1  0.2626349E-009  0.3553549E+03  0.7561462E-02  0.1060438E+00
         -1   -1    0    0    0  501 -0.00000000000E+00  0.00000000000E+00  0.41195479459E+03  0.41195479459E+03  0.00000000000E+00 0.  1.
          1   -1    0    0  501    0  0.00000000000E+00 -0.00000000000E+00 -0.39905219709E+03  0.39905219709E+03  0.00000000000E+00 0. -1.
         25    2    1    2    0    0 -0.11001694497E+03  0.32981801832E+03  0.18088340783E+03  0.41140288709E+03  0.12509946001E+03 0.  0.
          5    1    3    3  502    0 -0.86402457944E+02  0.11303662051E+03  0.28035848809E+02  0.14507289042E+03  0.41800000000E+01 0. -1.
         -5    1    3    3    0  502 -0.23614487021E+02  0.21678139780E+03  0.15284755902E+03  0.26632999667E+03  0.41800000000E+01 0. -1.
        -11    1    1    2    0    0  0.93348698474E+01 -0.85638195400E+02  0.81853135725E+00  0.86149348808E+02  0.00000000000E+00 0.  1.
         11    1    1    2    0    0  0.10068207512E+03 -0.24417982291E+03 -0.16879934169E+03  0.31345475578E+03  0.00000000000E+00 0. -1.
</event>
<event>
 7    1  0.2626349E-009  0.1078065E+03  0.7561462E-02  0.1264687E+00
         -1   -1    0    0    0  501 -0.00000000000E+00  0.00000000000E+00  0.16007336946E+03  0.16007336946E+03  0.00000000000E+00 0.  1.
          1   -1    0    0  501    0  0.00000000000E+00 -0.00000000000E+00 -0.11627272531E+03  0.11627272531E+03  0.00000000000E+00 0. -1.
         25    2    1    2    0    0  0.51880415361E+02 -0.20483529691E+02 -0.38917765971E+02  0.14238049493E+03  0.12508581191E+03 0.  0.
          5    1    3    3  502    0 -0.20385130176E+02  0.21847015041E+02 -0.49387576716E+02  0.57874439370E+02  0.41800000000E+01 0.  1.
         -5    1    3    3    0  502  0.72265545537E+02 -0.42330544733E+02  0.10469810746E+02  0.84506055559E+02  0.41800000000E+01 0.  1.
        -11    1    1    2    0    0 -0.48473836662E+02 -0.25980883042E+02  0.62288905183E+02  0.83094084226E+02  0.00000000000E+00 0.  1.
         11    1    1    2    0    0 -0.34065786981E+01  0.46464412733E+02  0.20429504933E+02  0.50871515614E+02  0.00000000000E+00 0. -1.
</event>
<event>
 7    1  0.2626349E-009  0.9920404E+02  0.7561462E-02  0.1281979E+00
          1   -1    0    0  501    0  0.00000000000E+00  0.00000000000E+00  0.46027619585E+02  0.46027619585E+02  0.00000000000E+00 0. -1.
         -1   -1    0    0    0  501 -0.00000000000E+00 -0.00000000000E+00 -0.33890000811E+03  0.33890000811E+03  0.00000000000E+00 0.  1.
         25    2    1    2    0    0 -0.29541967521E+02  0.43885394074E+02 -0.11698084853E+03  0.17924393095E+03  0.12508082267E+03 0.  0.
          5    1    3    3  502    0  0.29846873772E+01 -0.20506186308E+02 -0.10362401189E+03  0.10575831067E+03  0.41800000000E+01 0. -1.
         -5    1    3    3    0  502 -0.32526654898E+02  0.64391580382E+02 -0.13356836646E+02  0.73485620281E+02  0.41800000000E+01 0. -1.
        -11    1    1    2    0    0  0.25909846573E+02 -0.72071701381E+02 -0.11117375243E+03  0.13500093896E+03  0.00000000000E+00 0.  1.
         11    1    1    2    0    0  0.36321209479E+01  0.28186307307E+02 -0.64717787560E+02  0.70682757790E+02  0.00000000000E+00 0. -1.
</event>
<event>
 7    1  0.2626349E-009  0.1214631E+03  0.7561462E-02  0.1240703E+00
         -1   -1    0    0    0  501 -0.00000000000E+00  0.00000000000E+00  0.25110072680E+02  0.25110072680E+02  0.00000000000E+00 0.  1.
          1   -1    0    0  501    0  0.00000000000E+00 -0.00000000000E+00 -0.83218989051E+03  0.83218989051E+03  0.00000000000E+00 0. -1.
         25    2    1    2    0    0  0.18894979655E+02  0.72841340094E+02 -0.60510708487E+03  0.62246697471E+03  0.12509064458E+03 0.  0.
          5    1    3    3  502    0 -0.28954845044E+02 -0.10682325191E+02 -0.48894763894E+02  0.57971246832E+02  0.41800000000E+01 0.  1.
         -5    1    3    3    0  502  0.47849824699E+02  0.83523665284E+02 -0.55621232098E+03  0.56449572788E+03  0.41800000000E+01 0.  1.
        -11    1    1    2    0    0  0.34493158581E+02 -0.39710836014E+02 -0.12399848233E+03  0.13469354887E+03  0.00000000000E+00 0. -1.
         11    1    1    2    0    0 -0.53388138236E+02 -0.33130504079E+02 -0.77974250625E+02  0.10013943961E+03  0.00000000000E+00 0.  1.
</event>
<event>
 7    1  0.2626349E-009  0.2691734E+03  0.7561462E-02  0.1101754E+00
         -2   -1    0    0    0  501 -0.00000000000E+00  0.00000000000E+00  0.48335388563E+02  0.48335388563E+02  0.00000000000E+00 0. -1.
          2   -1    0    0  501    0  0.00000000000E+00 -0.00000000000E+00 -0.18404806065E+04  0.18404806065E+04  0.00000000000E+00 0.  1.
         25    2    1    2    0    0  0.21584099290E+03 -0.13580830413E+03 -0.56847971402E+03  0.63548895651E+03  0.12508316795E+03 0.  0.
          5    1    3    3  502    0  0.52474023300E+02 -0.10328356661E+03 -0.26571622560E+03  0.28990274784E+03  0.41800000000E+01 0.  1.
         -5    1    3    3    0  502  0.16336696960E+03 -0.32524737514E+02 -0.30276348842E+03  0.34558620867E+03  0.41800000000E+01 0.  1.
        -11    1    1    2    0    0 -0.13148837409E+03  0.94135432890E+02 -0.95662669070E+03  0.97019858668E+03  0.00000000000E+00 0.  1.
         11    1    1    2    0    0 -0.84352618807E+02  0.41672871236E+02 -0.26703881326E+03  0.28312845191E+03  0.00000000000E+00 0. -1.
</event>
<event>
 7    1  0.2626349E-009  0.2279416E+03  0.7561462E-02  0.1128097E+00
         -1   -1    0    0    0  501 -0.00000000000E+00  0.00000000000E+00  0.17664394559E+03  0.17664394559E+03  0.00000000000E+00 0.  1.
          1   -1    0    0  501    0  0.00000000000E+00 -0.00000000000E+00 -0.36777894119E+03  0.36777894119E+03  0.00000000000E+00 0. -1.
         25    2    1    2    0    0  0.20561729266E+03 -0.78767852373E+02 -0.21872379211E+02  0.25418347866E+03  0.12509194316E+03 0.  0.
          5    1    3    3  502    0  0.11033545426E+03 -0.83352835373E+02  0.35451330737E+02  0.14281413404E+03  0.41800000000E+01 0.  1.
         -5    1    3    3    0  502  0.95281838402E+02  0.45849830006E+01 -0.57323709949E+02  0.11136934462E+03  0.41800000000E+01 0.  1.
        -11    1    1    2    0    0 -0.22507032221E+02  0.18950191918E+02 -0.64656997461E+02  0.71036635575E+02  0.00000000000E+00 0. -1.
         11    1    1    2    0    0 -0.18311026044E+03  0.59817660454E+02 -0.10460561893E+03  0.21920277255E+03  0.00000000000E+00 0.  1.
</event>
<event>
 7    1  0.2626349E-009  0.1249953E+03  0.7561462E-02  0.1235077E+00
         -1   -1    0    0    0  501 -0.00000000000E+00  0.00000000000E+00  0.31663593978E+03  0.31663593978E+03  0.00000000000E+00 0.  1.
          1   -1    0    0  501    0  0.00000000000E+00 -0.00000000000E+00 -0.63757629229E+02  0.63757629229E+02  0.00000000000E+00 0. -1.
         25    2    1    2    0    0 -0.41182107472E+02  0.61493614902E+02  0.21128132192E+03  0.25645479933E+03  0.12510729978E+03 0.  0.
          5    1    3    3  502    0 -0.81403885412E+02  0.23541455382E+02  0.93413047757E+02  0.12619137281E+03  0.41800000000E+01 0. -1.
         -5    1    3    3    0  502  0.40221777941E+02  0.37952159521E+02  0.11786827417E+03  0.13026342652E+03  0.41800000000E+01 0. -1.
        -11    1    1    2    0    0  0.33562328715E+02  0.12119351765E+02  0.34431074793E+02  0.49586364127E+02  0.00000000000E+00 0.  1.
         11    1    1    2    0    0  0.76197787571E+01 -0.73612966667E+02  0.71659138348E+01  0.74352405549E+02  0.00000000000E+00 0. -1.
</event>
<event>
 7    1  0.2626349E-009  0.6699581E+02  0.7561462E-02  0.1370618E+00
          2   -1    0    0  501    0  0.00000000000E+00  0.00000000000E+00  0.60840464988E+03  0.60840464988E+03  0.00000000000E+00 0. -1.
         -2   -1    0    0    0  501 -0.00000000000E+00 -0.00000000000E+00 -0.19526890571E+02  0.19526890571E+02  0.00000000000E+00 0.  1.
         25    2    1    2    0    0 -0.43248991531E+02 -0.14896761518E+02  0.34959669789E+03  0.37410955282E+03  0.12509083724E+03 0.  0.
          5    1    3    3  502    0  0.62012448842E+01 -0.14607014902E+02  0.31049582525E+03  0.31092917235E+03  0.41800000000E+01 0.  1.
         -5    1    3    3    0  502 -0.49450236415E+02 -0.28974661610E+00  0.39100872639E+02  0.63180380465E+02  0.41800000000E+01 0.  1.
        -11    1    1    2    0    0 -0.91506127150E+01  0.12510825348E+02  0.96107528445E+01  0.18237901036E+02  0.00000000000E+00 0.  1.
         11    1    1    2    0    0  0.52399604246E+02  0.23859361694E+01  0.22967030858E+03  0.23558408660E+03  0.00000000000E+00 0. -1.
</event>
<event>
 7    1  0.2626349E-009  0.7417468E+02  0.7561462E-02  0.1346446E+00
          2   -1    0    0  501    0  0.00000000000E+00  0.00000000000E+00  0.44106781564E+03  0.44106781564E+03  0.00000000000E+00 0. -1.
         -2   -1    0    0    0  501 -0.00000000000E+00 -0.00000000000E+00 -0.27813029394E+02  0.27813029394E+02  0.00000000000E+00 0.  1.
         25    2    1    2    0    0  0.15564153814E+02 -0.10256620679E+02  0.25518190006E+03  0.28480317234E+03  0.12509038214E+03 0.  0.
          5    1    3    3  502    0  0.24274515940E+01  0.40056857426E+02  0.21553615275E+03  0.21928007180E+03  0.41800000000E+01 0.  1.
         -5    1    3    3    0  502  0.13136702220E+02 -0.50313478105E+02  0.39645747314E+02  0.65523100539E+02  0.41800000000E+01 0.  1.
        -11    1    1    2    0    0 -0.91169767159E+00 -0.21154146697E+02 -0.10732439619E+01  0.21200966198E+02  0.00000000000E+00 0.  1.
         11    1    1    2    0    0 -0.14652456142E+02  0.31410767376E+02  0.15914613015E+03  0.16287670650E+03  0.00000000000E+00 0. -1.
</event>
<event>
 7    1  0.2626349E-009  0.1226104E+03  0.7561462E-02  0.1238852E+00
          2   -1    0    0  501    0  0.00000000000E+00  0.00000000000E+00  0.13309590782E+03  0.13309590782E+03  0.00000000000E+00 0. -1.
         -2   -1    0    0    0  501 -0.00000000000E+00 -0.00000000000E+00 -0.12602278963E+03  0.12602278963E+03  0.00000000000E+00 0.  1.
         25    2    1    2    0    0  0.65126755964E+02  0.10371274422E+02  0.83891927509E+01  0.14165578188E+03  0.12508766650E+03 0.  0.
          5    1    3    3  502    0  0.49789846342E+02  0.66425041815E+02  0.62116297458E+01  0.83350895155E+02  0.41800000000E+01 0.  1.
         -5    1    3    3    0  502  0.15336909621E+02 -0.56053767394E+02  0.21775630051E+01  0.58304886728E+02  0.41800000000E+01 0.  1.
        -11    1    1    2    0    0 -0.11614591175E+01  0.28805044646E+02  0.24809832719E+02  0.38034292209E+02  0.00000000000E+00 0. -1.
         11    1    1    2    0    0 -0.63965296846E+02 -0.39176319067E+02 -0.26125907283E+02  0.79428623352E+02  0.00000000000E+00 0.  1.
</event>
<event>
 7    1  0.2626349E-009  0.9111036E+02  0.7561462E-02  0.1300185E+00
         -1   -1    0    0    0  501 -0.00000000000E+00  0.00000000000E+00  0.15389933975E+02  0.15389933975E+02  0.00000000000E+00 0.  1.
          1   -1    0    0  501    0  0.00000000000E+00 -0.00000000000E+00 -0.77275085108E+03  0.77275085108E+03  0.00000000000E+00 0. -1.
         25    2    1    2    0    0  0.62960544353E+01  0.58650464775E+01 -0.41145728322E+03  0.43013890184E+03  0.12509332474E+03 0.  0.
          5    1    3    3  502    0  0.47976561216E+02  0.97611895763E+01 -0.66814268107E+02  0.82937627593E+02  0.41800000000E+01 0.  1.
         -5    1    3    3    0  502 -0.41680506781E+02 -0.38961430987E+01 -0.34464301511E+03  0.34720127425E+03  0.41800000000E+01 0.  1.
        -11    1    1    2    0    0  0.31250876637E+02 -0.32415837986E+02 -0.20076656324E+03  0.20575377702E+03  0.00000000000E+00 0. -1.
         11    1    1    2    0    0 -0.37546931073E+02  0.26550791509E+02 -0.14513707064E+03  0.15224810619E+03  0.00000000000E+00 0.  1.
</event>
<event>
 7    1  0.2626349E-009  0.1187265E+03  0.7561462E-02  0.1245213E+00
          1   -1    0    0  501    0  0.00000000000E+00  0.00000000000E+00  0.33468514483E+02  0.33468514483E+02  0.00000000000E+00 0. -1.
         -1   -1    0    0    0  501 -0.00000000000E+00 -0.00000000000E+00 -0.54126427635E+03  0.54126427635E+03  0.00000000000E+00 0.  1.
         25    2    1    2    0    0  0.76737470451E+02 -0.10829701531E+00 -0.26578289296E+03  0.30360466521E+03  0.12508635196E+03 0.  0.
          5    1    3    3  502    0  0.20515822844E+02  0.41276312173E+02 -0.20740330929E+03  0.21250467769E+03  0.41800000000E+01 0. -1.
         -5    1    3    3    0  502  0.56221647606E+02 -0.41384609188E+02 -0.58379583665E+02  0.91099987520E+02  0.41800000000E+01 0. -1.
        -11    1    1    2    0    0  0.53586783772E+01  0.32529627383E+02 -0.82110385007E+02  0.88481678429E+02  0.00000000000E+00 0.  1.
         11    1    1    2    0    0 -0.82096148828E+02 -0.32421330368E+02 -0.15990248390E+03  0.18264644720E+03  0.00000000000E+00 0. -1.
</event>
<event>
 7    1  0.2626349E-009  0.7227338E+02  0.7561462E-02  0.1352529E+00
         -2   -1    0    0    0  501 -0.00000000000E+00  0.00000000000E+00  0.24675665001E+02  0.24675665001E+02  0.00000000000E+00 0.  1.
          2   -1    0    0  501    0  0.00000000000E+00 -0.00000000000E+00 -0.63487477824E+03  0.63487477824E+03  0.00000000000E+00 0. -1.
         25    2    1    2    0    0 -0.31248519023E+02  0.37830739553E+02 -0.45421058733E+03  0.47366891123E+03  0.12508934817E+03 0.  0.
          5    1    3    3  502    0 -0.26832770393E+02  0.52959584993E+02 -0.83176154057E+02  0.10227639128E+03  0.41800000000E+01 0. -1.
         -5    1    3    3    0  502 -0.44157486303E+01 -0.15128845439E+02 -0.37103443328E+03  0.37139251995E+03  0.41800000000E+01 0. -1.
        -11    1    1    2    0    0  0.38343011943E+02 -0.94758876413E+01 -0.15118687656E+03  0.15626084172E+03  0.00000000000E+00 0.  1.
         11    1    1    2    0    0 -0.70944929196E+01 -0.28354851912E+02 -0.48016493473E+01  0.29620690289E+02  0.00000000000E+00 0. -1.
</event>
<event>
 7    1  0.2626349E-009  0.1010753E+03  0.7561462E-02  0.1278051E+00
         -1   -1    0    0    0  501 -0.00000000000E+00  0.00000000000E+00  0.58023770133E+02  0.58023770133E+02  0.00000000000E+00 0.  1.
          1   -1    0    0  501    0  0.00000000000E+00 -0.00000000000E+00 -0.32297522273E+03  0.32297522273E+03  0.00000000000E+00 0. -1.
         25    2    1    2    0    0 -0.42113449261E+02 -0.60325482891E+02 -0.90481569880E+02  0.17102036512E+03  0.12509334236E+03 0.  0.
          5    1    3    3  502    0 -0.48119532598E+02 -0.32617899692E+02 -0.11779904173E+03  0.13142870094E+03  0.41800000000E+01 0.  1.
         -5    1    3    3    0  502  0.60060833377E+01 -0.27707583199E+02  0.27317471853E+02  0.39591664176E+02  0.41800000000E+01 0.  1.
        -11    1    1    2    0    0  0.20965319168E+02 -0.21894705334E+02 -0.31605174217E+02  0.43792804966E+02  0.00000000000E+00 0. -1.
         11    1    1    2    0    0  0.21148130093E+02  0.82220188224E+02 -0.14286470850E+03  0.16618582278E+03  0.00000000000E+00 0.  1.
</event>
<event>
 7    1  0.2626349E-009  0.8418374E+02  0.7561462E-02  0.1317581E+00
         -1   -1    0    0    0  501 -0.00000000000E+00  0.00000000000E+00  0.18812531907E+03  0.18812531907E+03  0.00000000000E+00 0.  1.
          1   -1    0    0  501    0  0.00000000000E+00 -0.00000000000E+00 -0.70592388313E+02  0.70592388313E+02  0.00000000000E+00 0. -1.
         25    2    1    2    0    0  0.30729343790E+02 -0.24627374291E+02  0.60716637928E+02  0.14450967957E+03  0.12508292143E+03 0.  0.
          5    1    3    3  502    0  0.35065818231E+02 -0.56756814653E+02 -0.90580844248E+01  0.67457163528E+02  0.41800000000E+01 0.  1.
         -5    1    3    3    0  502 -0.43364744412E+01  0.32129440362E+02  0.69774722352E+02  0.77052516039E+02  0.41800000000E+01 0.  1.
        -11    1    1    2    0    0 -0.47422096535E+02  0.20322576701E+02 -0.32709089134E+01  0.51696820102E+02  0.00000000000E+00 0. -1.
         11    1    1    2    0    0  0.16692752745E+02  0.43047975896E+01  0.60087201747E+02  0.62511207718E+02  0.00000000000E+00 0.  1.
</event>
<event>
 7    1  0.2626349E-009  0.1590422E+03  0.7561462E-02  0.1189782E+00
         -3   -1    0    0    0  501 -0.00000000000E+00  0.00000000000E+00  0.18217177371E+03  0.18217177371E+03  0.00000000000E+00 0.  1.
          3   -1    0    0  501    0  0.00000000000E+00 -0.00000000000E+00 -0.20392620839E+03  0.20392620839E+03  0.00000000000E+00 0. -1.
         25    2    1    2    0    0 -0.98588309290E+01  0.14679980446E+03 -0.72024613695E+02  0.20611298739E+03  0.12509052505E+03 0.  0.
          5    1    3    3  502    0  0.59372939346E+01  0.13323133097E+02  0.32451903570E+02  0.35823955394E+02  0.41800000000E+01 0. -1.
         -5    1    3    3    0  502 -0.15796124864E+02  0.13347667136E+03 -0.10447651727E+03  0.17028903199E+03  0.41800000000E+01 0. -1.
        -11    1    1    2    0    0  0.43940259461E+02 -0.54251984771E+02  0.40911227015E+02  0.80918185527E+02  0.00000000000E+00 0.  1.
         11    1    1    2    0    0 -0.34081428532E+02 -0.92547819685E+02  0.93589520073E+01  0.99066809184E+02  0.00000000000E+00 0. -1.
</event>
<event>
 7    1  0.2626349E-009  0.1255971E+03  0.7561462E-02  0.1234139E+00
          1   -1    0    0  501    0  0.00000000000E+00  0.00000000000E+00  0.73327581218E+02  0.73327581218E+02  0.00000000000E+00 0. -1.
         -1   -1    0    0    0  501 -0.00000000000E+00 -0.00000000000E+00 -0.24602996059E+03  0.24602996059E+03  0.00000000000E+00 0.  1.
         25    2    1    2    0    0  0.17825808216E+02  0.69700082260E+02 -0.12942641312E+03  0.19384742462E+03  0.12509902763E+03 0.  0.
          5    1    3    3  502    0 -0.36985379660E+02  0.69692194887E+02 -0.11023141781E+03  0.13562211549E+03  0.41800000000E+01 0.  1.
         -5    1    3    3    0  502  0.54811187876E+02  0.78873730973E-02 -0.19194995310E+02  0.58225309133E+02  0.41800000000E+01 0.  1.
        -11    1    1    2    0    0  0.36355169209E+02 -0.44493817321E+02 -0.14902847453E+02  0.59359017598E+02  0.00000000000E+00 0. -1.
         11    1    1    2    0    0 -0.54180977425E+02 -0.25206264939E+02 -0.28373118803E+02  0.66151099594E+02  0.00000000000E+00 0.  1.
</event>
<event>
 7    1  0.2626349E-009  0.1054693E+03  0.7561462E-02  0.1269198E+00
          1   -1    0    0  501    0  0.00000000000E+00  0.00000000000E+00  0.11604074899E+03  0.11604074899E+03  0.00000000000E+00 0. -1.
         -1   -1    0    0    0  501 -0.00000000000E+00 -0.00000000000E+00 -0.17842322729E+03  0.17842322729E+03  0.00000000000E+00 0.  1.
         25    2    1    2    0    0 -0.29535867779E+02  0.55019074252E+02 -0.10382853040E+03  0.17414092967E+03  0.12508090839E+03 0.  0.
          5    1    3    3  502    0 -0.67790004084E+02  0.69535468682E+02 -0.60973092968E+02  0.11474256632E+03  0.41800000000E+01 0. -1.
         -5    1    3    3    0  502  0.38254136305E+02 -0.14516394430E+02 -0.42855437436E+02  0.59398363357E+02  0.41800000000E+01 0. -1.
        -11    1    1    2    0    0  0.38233085523E+02 -0.40593277214E+02  0.68577307701E+02  0.88387952319E+02  0.00000000000E+00 0. -1.
         11    1    1    2    0    0 -0.86972177437E+01 -0.14425797038E+02 -0.27131255602E+02  0.31935094288E+02  0.00000000000E+00 0.  1.
</event>
<event>
 7    1  0.2626349E-009  0.1155265E+03  0.7561462E-02  0.1250665E+00
         -1   -1    0    0    0  501 -0.00000000000E+00  0.00000000000E+00  0.64168434988E+02  0.64168434988E+02  0.00000000000E+00 0.  1.
          1   -1    0    0  501    0  0.00000000000E+00 -0.00000000000E+00 -0.40197223461E+03  0.40197223461E+03  0.00000000000E+00 0. -1.
         25    2    1    2    0    0 -0.10683735898E+03 -0.17808945050E+02 -0.11602521511E+03  0.20209158036E+03  0.12509107288E+03 0.  0.
          5    1    3    3  502    0 -0.19061061252E+02 -0.15633076220E+02 -0.11128693777E+03  0.11406126444E+03  0.41800000000E+01 0.  1.
         -5    1    3    3    0  502 -0.87776297732E+02 -0.21758688304E+01 -0.47382773423E+01  0.88030315920E+02  0.41800000000E+01 0.  1.
        -11    1    1    2    0    0  0.28225449113E+02 -0.16143359371E+02 -0.14640127810E+03  0.14996872427E+03  0.00000000000E+00 0. -1.
         11    1    1    2    0    0  0.78611909872E+02  0.33952304421E+02 -0.75377306410E+02  0.11408036497E+03  0.00000000000E+00 0.  1.
</event>
<event>
 7    1  0.2823813E-009  0.1479306E+03  0.7561462E-02  0.1203039E+00
          2   -1    0    0  501    0  0.00000000000E+00  0.00000000000E+00  0.20183185734E+03  0.20183185734E+03  0.00000000000E+00 0. -1.
         -2   -1    0    0    0  501 -0.00000000000E+00 -0.00000000000E+00 -0.14130027142E+03  0.14130027142E+03  0.00000000000E+00 0.  1.
         25    2    1    2    0    0  0.64448094389E+02 -0.10974826144E+03  0.91457031280E+01  0.17868954573E+03  0.12509225439E+03 0.  0.
          5    1    3    3  502    0  0.89672140919E+02 -0.72352254487E+02  0.42021805636E+02  0.12271612011E+03  0.41800000000E+01 0.  1.
         -5    1    3    3    0  502 -0.25224046530E+02 -0.37396006956E+02 -0.32876102508E+02  0.55973425621E+02  0.41800000000E+01 0.  1.
        -11    1    1    2    0    0  0.42998877861E+01  0.28542021843E+02 -0.21052206095E+02  0.35725780990E+02  0.00000000000E+00 0.  1.
         11    1    1    2    0    0 -0.68747982175E+02  0.81206239600E+02  0.72438088892E+02  0.12871680203E+03  0.00000000000E+00 0. -1.
</event>
<event>
 7    1  0.2626349E-009  0.1125738E+03  0.7561462E-02  0.1255877E+00
          2   -1    0    0  501    0  0.00000000000E+00  0.00000000000E+00  0.26075848856E+03  0.26075848856E+03  0.00000000000E+00 0. -1.
         -2   -1    0    0    0  501 -0.00000000000E+00 -0.00000000000E+00 -0.54353456838E+02  0.54353456838E+02  0.00000000000E+00 0.  1.
         25    2    1    2    0    0 -0.19979495936E+02 -0.25727373002E+02  0.67784486390E+02  0.14595503844E+03  0.12508820356E+03 0.  0.
          5    1    3    3  502    0  0.29323258300E+02 -0.61047716194E+02  0.28644902120E+02  0.73652426622E+02  0.41800000000E+01 0. -1.
         -5    1    3    3    0  502 -0.49302754236E+02  0.35320343192E+02  0.39139584270E+02  0.72302611815E+02  0.41800000000E+01 0. -1.
        -11    1    1    2    0    0 -0.35898855561E+02  0.24954122820E+01  0.44026668421E+02  0.56862135426E+02  0.00000000000E+00 0. -1.
         11    1    1    2    0    0  0.55878351497E+02  0.23231960720E+02  0.94593876917E+02  0.11229477154E+03  0.00000000000E+00 0.  1.
</event>
<event>
 7    1  0.2626349E-009  0.8757822E+02  0.7561462E-02  0.1308825E+00
         -1   -1    0    0    0  501 -0.00000000000E+00  0.00000000000E+00  0.13416444868E+03  0.13416444868E+03  0.00000000000E+00 0.  1.
          1   -1    0    0  501    0  0.00000000000E+00 -0.00000000000E+00 -0.13060361654E+03  0.13060361654E+03  0.00000000000E+00 0. -1.
         25    2    1    2    0    0  0.38118438432E+02 -0.64093184693E+02  0.20969775191E+02  0.14713694655E+03  0.12509435597E+03 0.  0.
          5    1    3    3  502    0  0.46709071837E+02 -0.42421988709E+02 -0.44625645659E+02  0.77396919631E+02  0.41800000000E+01 0.  1.
         -5    1    3    3    0  502 -0.85906334048E+01 -0.21671195984E+02  0.65595420850E+02  0.69740026915E+02  0.41800000000E+01 0.  1.
        -11    1    1    2    0    0 -0.25808200686E+02  0.30771032119E+01  0.29775095045E+02  0.39523259883E+02  0.00000000000E+00 0.  1.
         11    1    1    2    0    0 -0.12310237745E+02  0.61016081482E+02 -0.47184038100E+02  0.78107858786E+02  0.00000000000E+00 0. -1.
</event>
<event>
 7    1  0.2626349E-009  0.8182131E+02  0.7561462E-02  0.1323961E+00
          2   -1    0    0  501    0  0.00000000000E+00  0.00000000000E+00  0.17216283120E+03  0.17216283120E+03  0.00000000000E+00 0. -1.
         -2   -1    0    0    0  501 -0.00000000000E+00 -0.00000000000E+00 -0.79205700475E+02  0.79205700475E+02  0.00000000000E+00 0.  1.
         25    2    1    2    0    0  0.38936694978E+02  0.14607109005E+02  0.50250865929E+02  0.14107649078E+03  0.12509193769E+03 0.  0.
          5    1    3    3  502    0 -0.22145791270E+02  0.26258078220E+02  0.67979628099E+02  0.76279912030E+02  0.41800000000E+01 0.  1.
         -5    1    3    3    0  502  0.61082486247E+02 -0.11650969215E+02 -0.17728762170E+02  0.64796578752E+02  0.41800000000E+01 0.  1.
        -11    1    1    2    0    0 -0.13569630075E+02  0.19778002708E+02 -0.22134492812E+02  0.32638015006E+02  0.00000000000E+00 0.  1.
         11    1    1    2    0    0 -0.25367064902E+02 -0.34385111713E+02  0.64840757610E+02  0.77654025889E+02  0.00000000000E+00 0. -1.
</event>
<event>
 7    1  0.2626349E-009  0.1015888E+03  0.7561462E-02  0.1276990E+00
         -3   -1    0    0    0  501 -0.00000000000E+00  0.00000000000E+00  0.25857876480E+03  0.25857876480E+03  0.00000000000E+00 0.  1.
          3   -1    0    0  501    0  0.00000000000E+00 -0.00000000000E+00 -0.79515328558E+02  0.79515328558E+02  0.00000000000E+00 0. -1.
         25    2    1    2    0    0 -0.50837164639E+02  0.53842907443E+02  0.29620301028E+02  0.14836037656E+03  0.12509981259E+03 0.  0.
          5    1    3    3  502    0 -0.69253817415E+02  0.51268683099E+02  0.65107429722E+02  0.10807876248E+03  0.41800000000E+01 0.  1.
         -5    1    3    3    0  502  0.18416652775E+02  0.25742243435E+01 -0.35487128694E+02  0.40281614086E+02  0.41800000000E+01 0.  1.
        -11    1    1    2    0    0  0.10898466780E+02  0.14832621119E+02  0.86331690194E+02  0.88271988531E+02  0.00000000000E+00 0.  1.
         11    1    1    2    0    0  0.39938697860E+02 -0.68675528562E+02  0.63111445015E+02  0.10146172826E+03  0.00000000000E+00 0. -1.
</event>
<event>
 7    1  0.2626349E-009  0.9222179E+02  0.7561462E-02  0.1297559E+00
         -1   -1    0    0    0  501 -0.00000000000E+00  0.00000000000E+00  0.33890408923E+02  0.33890408923E+02  0.00000000000E+00 0.  1.
          1   -1    0    0  501    0  0.00000000000E+00 -0.00000000000E+00 -0.39983051352E+03  0.39983051352E+03  0.00000000000E+00 0. -1.
         25    2    1    2    0    0 -0.36258914224E+01 -0.42290414544E+02 -0.16495160537E+03  0.21132641461E+03  0.12509274619E+03 0.  0.
          5    1    3    3  502    0  0.28691680172E+02  0.17927556914E+02 -0.15103945457E+01  0.34122770984E+02  0.41800000000E+01 0.  1.
         -5    1    3    3    0  502 -0.32317571594E+02 -0.60217971457E+02 -0.16344121082E+03  0.17720364363E+03  0.41800000000E+01 0.  1.
        -11    1    1    2    0    0  0.36825083091E+02  0.20118748768E+02 -0.45642226859E+02  0.62000513460E+02  0.00000000000E+00 0.  1.
         11    1    1    2    0    0 -0.33199191669E+02  0.22171665776E+02 -0.15534627236E+03  0.16039399437E+03  0.00000000000E+00 0. -1.
</event>
<event>
 7    1  0.2626349E-009  0.8585809E+02  0.7561462E-02  0.1313204E+00
          3   -1    0    0  501    0  0.00000000000E+00  0.00000000000E+00  0.22796388723E+02  0.22796388723E+02  0.00000000000E+00 0. -1.
         -3   -1    0    0    0  501 -0.00000000000E+00 -0.00000000000E+00 -0.64517721999E+03  0.64517721999E+03  0.00000000000E+00 0.  1.
         25    2    1    2    0    0 -0.38971733482E+02  0.53461475840E+01 -0.45508009381E+03  0.47359638752E+03  0.12509304211E+03 0.  0.
          5    1    3    3  502    0 -0.97910289123E+01  0.40594111363E+02 -0.47292683469E+02  0.63228288243E+02  0.41800000000E+01 0. -1.
         -5    1    3    3    0  502 -0.29180704569E+02 -0.35247963779E+02 -0.40778741034E+03  0.41036809928E+03  0.41800000000E+01 0. -1.
        -11    1    1    2    0    0  0.56085650880E+02 -0.21691087166E+02 -0.15781155343E+03  0.16888040115E+03  0.00000000000E+00 0.  1.
         11    1    1    2    0    0 -0.17113917399E+02  0.16344939582E+02 -0.94891840233E+01  0.25496820039E+02  0.00000000000E+00 0. -1.
</event>
<event>
 7    1  0.2626349E-009  0.1128612E+03  0.7561462E-02  0.1255361E+00
         -2   -1    0    0    0  501 -0.00000000000E+00  0.00000000000E+00  0.36411944543E+03  0.36411944543E+03  0.00000000000E+00 0.  1.
          2   -1    0    0  501    0  0.00000000000E+00 -0.00000000000E+00 -0.48119317895E+02  0.48119317895E+02  0.00000000000E+00 0. -1.
         25    2    1    2    0    0  0.71643401051E+02 -0.22554342759E+02  0.15053451642E+03  0.20964213137E+03  0.12509079630E+03 0.  0.
          5    1    3    3  502    0 -0.84993831992E+01 -0.51533359191E+02  0.92962154424E+02  0.10671157941E+03  0.41800000000E+01 0. -1.
         -5    1    3    3    0  502  0.80142784250E+02  0.28979016432E+02  0.57572361999E+02  0.10293055196E+03  0.41800000000E+01 0. -1.
        -11    1    1    2    0    0 -0.16677171256E+02 -0.14180305509E+02  0.12090268214E+03  0.12286849740E+03  0.00000000000E+00 0.  1.
         11    1    1    2    0    0 -0.54966229795E+02  0.36734648269E+02  0.44562928974E+02  0.79728134558E+02  0.00000000000E+00 0. -1.
</event>
<event>
 7    1  0.2626349E-009  0.8350498E+02  0.7561462E-02  0.1319389E+00
         -1   -1    0    0    0  501 -0.00000000000E+00  0.00000000000E+00  0.45554980377E+02  0.45554980377E+02  0.00000000000E+00 0.  1.
          1   -1    0    0  501    0  0.00000000000E+00 -0.00000000000E+00 -0.28303161882E+03  0.28303161882E+03  0.00000000000E+00 0. -1.
         25    2    1    2    0    0 -0.18051000004E+02  0.10588867556E+02 -0.10121042618E+03  0.16226780268E+03  0.12509726895E+03 0.  0.
          5    1    3    3  502    0 -0.15322296650E+02  0.51095321762E+02 -0.39900722488E+00  0.53508282419E+02  0.41800000000E+01 0.  1.
         -5    1    3    3    0  502 -0.27287033537E+01 -0.40506454206E+02 -0.10081141896E+03  0.10875952026E+03  0.41800000000E+01 0.  1.
        -11    1    1    2    0    0 -0.11551328723E+02 -0.33385512596E+02 -0.12083743051E+03  0.12589563240E+03  0.00000000000E+00 0. -1.
         11    1    1    2    0    0  0.29602328727E+02  0.22796645040E+02 -0.15428781758E+02  0.40423164122E+02  0.00000000000E+00 0.  1.
</event>
<event>
 7    1  0.2626349E-009  0.1564579E+03  0.7561462E-02  0.1192755E+00
         -1   -1    0    0    0  501 -0.00000000000E+00  0.00000000000E+00  0.46280208397E+03  0.46280208397E+03  0.00000000000E+00 0.  1.
          1   -1    0    0  501    0  0.00000000000E+00 -0.00000000000E+00 -0.63510043866E+02  0.63510043866E+02  0.00000000000E+00 0. -1.
         25    2    1    2    0    0 -0.12049430740E+03  0.51304385739E+02  0.18759029042E+03  0.26074795525E+03  0.12509340907E+03 0.  0.
          5    1    3    3  502    0  0.84972749631E+01 -0.20700226478E+02  0.64550851290E+02  0.68446971155E+02  0.41800000000E+01 0.  1.
         -5    1    3    3    0  502 -0.12899158237E+03  0.72004612217E+02  0.12303943914E+03  0.19230098410E+03  0.41800000000E+01 0.  1.
        -11    1    1    2    0    0  0.39512027613E+02  0.10044971058E+02  0.12670245316E+03  0.13310001280E+03  0.00000000000E+00 0.  1.
         11    1    1    2    0    0  0.80982279789E+02 -0.61349356797E+02  0.84999296514E+02  0.13246415978E+03  0.00000000000E+00 0. -1.
</event>
<event>
 7    1  0.2626349E-009  0.1324883E+03  0.7561462E-02  0.1223810E+00
         -2   -1    0    0    0  501 -0.00000000000E+00  0.00000000000E+00  0.23762514983E+02  0.23762514983E+02  0.00000000000E+00 0.  1.
          2   -1    0    0  501    0  0.00000000000E+00 -0.00000000000E+00 -0.12811379651E+04  0.12811379651E+04  0.00000000000E+00 0. -1.
         25    2    1    2    0    0 -0.11393391928E+03  0.51937164252E+02 -0.87676008678E+03  0.89444548273E+03  0.12508423088E+03 0.  0.
          5    1    3    3  502    0 -0.42323774528E+02  0.21499416430E+02 -0.74682286831E+02  0.88591439561E+02  0.41800000000E+01 0. -1.
         -5    1    3    3    0  502 -0.71610144754E+02  0.30437747822E+02 -0.80207779995E+03  0.80585404317E+03  0.41800000000E+01 0. -1.
        -11    1    1    2    0    0  0.75810290263E+02 -0.10533589234E+01 -0.11804238263E+03  0.14029366975E+03  0.00000000000E+00 0.  1.
         11    1    1    2    0    0  0.38123629020E+02 -0.50883805329E+02 -0.26257298066E+03  0.27016132756E+03  0.00000000000E+00 0. -1.
</event>
<event>
 7    1  0.2626349E-009  0.9690663E+02  0.7561462E-02  0.1286939E+00
          4   -1    0    0  501    0  0.00000000000E+00  0.00000000000E+00  0.16350767940E+03  0.16350767940E+03  0.00000000000E+00 0. -1.
         -4   -1    0    0    0  501 -0.00000000000E+00 -0.00000000000E+00 -0.82502058446E+02  0.82502058446E+02  0.00000000000E+00 0.  1.
         25    2    1    2    0    0 -0.63957240907E+01 -0.32665923478E+02  0.73637700487E+02  0.14892248048E+03  0.12508967350E+03 0.  0.
          5    1    3    3  502    0  0.48716634080E+02 -0.17972192954E+02  0.75469203043E+02  0.91702688966E+02  0.41800000000E+01 0.  1.
         -5    1    3    3    0  502 -0.55112358171E+02 -0.14693730524E+02 -0.18315025557E+01  0.57219791519E+02  0.41800000000E+01 0.  1.
        -11    1    1    2    0    0  0.42144124460E+02  0.19448135543E+02 -0.19614347368E+02  0.50389282841E+02  0.00000000000E+00 0.  1.
         11    1    1    2    0    0 -0.35748400369E+02  0.13217787935E+02  0.26982267839E+02  0.46697974523E+02  0.00000000000E+00 0. -1.
</event>
<event>
 7    1  0.2626349E-009  0.9335953E+02  0.7561462E-02  0.1294914E+00
         -2   -1    0    0    0  501 -0.00000000000E+00  0.00000000000E+00  0.40140573608E+02  0.40140573608E+02  0.00000000000E+00 0.  1.
          2   -1    0    0  501    0  0.00000000000E+00 -0.00000000000E+00 -0.43107698512E+03  0.43107698512E+03  0.00000000000E+00 0. -1.
         25    2    1    2    0    0 -0.63795985960E+02  0.26042412156E+02 -0.17037796369E+03  0.22231649428E+03  0.12509131889E+03 0.  0.
          5    1    3    3  502    0  0.19335101757E+02  0.22295182447E+02  0.30003776184E+01  0.29956568331E+02  0.41800000000E+01 0. -1.
         -5    1    3    3    0  502 -0.83131087717E+02  0.37472297088E+01 -0.17337834131E+03  0.19235992594E+03  0.41800000000E+01 0. -1.
        -11    1    1    2    0    0  0.54464985827E+02 -0.10505130231E+02 -0.22372842125E+03  0.23050205838E+03  0.00000000000E+00 0. -1.
         11    1    1    2    0    0  0.93310001325E+01 -0.15537281925E+02  0.31699734210E+01  0.18399006076E+02  0.00000000000E+00 0.  1.
</event>
<event>
 7    1  0.2626349E-009  0.1232379E+03  0.7561462E-02  0.1237849E+00
         -1   -1    0    0    0  501 -0.00000000000E+00  0.00000000000E+00  0.39305378955E+02  0.39305378955E+02  0.00000000000E+00 0.  1.
          1   -1    0    0  501    0  0.00000000000E+00 -0.00000000000E+00 -0.85997227141E+03  0.85997227141E+03  0.00000000000E+00 0. -1.
         25    2    1    2    0    0 -0.10814775921E+03  0.22938402888E+02 -0.67252641990E+03  0.69293820298E+03  0.12509779993E+03 0.  0.
          5    1    3    3  502    0 -0.52130194146E+02  0.63187305393E+01 -0.58649655146E+03  0.58885750464E+03  0.41800000000E+01 0.  1.
         -5    1    3    3    0  502 -0.56017565061E+02  0.16619672349E+02 -0.86029868438E+02  0.10408069834E+03  0.41800000000E+01 0.  1.
        -11    1    1    2    0    0  0.94425234191E+01 -0.34563537527E+02 -0.12011560313E+02  0.37789905478E+02  0.00000000000E+00 0. -1.
         11    1    1    2    0    0  0.98705235788E+02  0.11625134638E+02 -0.13612891225E+03  0.16854954191E+03  0.00000000000E+00 0.  1.
</event>
<event>
 7    1  0.2626349E-009  0.1145609E+03  0.7561462E-02  0.1252349E+00
         -1   -1    0    0    0  501 -0.00000000000E+00  0.00000000000E+00  0.71095085509E+02  0.71095085509E+02  0.00000000000E+00 0.  1.
          1   -1    0    0  501    0  0.00000000000E+00 -0.00000000000E+00 -0.21812236798E+03  0.21812236798E+03  0.00000000000E+00 0. -1.
         25    2    1    2    0    0  0.23918825912E+02 -0.50198193739E+02 -0.53448236752E+02  0.14695613554E+03  0.12508965934E+03 0.  0.
          5    1    3    3  502    0  0.36351364198E+02 -0.88772121741E+02 -0.40448267879E+02  0.10418947189E+03  0.41800000000E+01 0.  1.
         -5    1    3    3    0  502 -0.12432538286E+02  0.38573928002E+02 -0.12999968873E+02  0.42766663658E+02  0.41800000000E+01 0.  1.
        -11    1    1    2    0    0 -0.48760366747E+02  0.46253885915E+02 -0.95785265805E+02  0.11701201850E+03  0.00000000000E+00 0. -1.
         11    1    1    2    0    0  0.24841540835E+02  0.39443078244E+01  0.22062200899E+01  0.25249299443E+02  0.00000000000E+00 0.  1.
</event>
<event>
 7    1  0.2626349E-009  0.1042076E+03  0.7561462E-02  0.1271689E+00
          2   -1    0    0  501    0  0.00000000000E+00  0.00000000000E+00  0.10800305186E+03  0.10800305186E+03  0.00000000000E+00 0. -1.
         -2   -1    0    0    0  501 -0.00000000000E+00 -0.00000000000E+00 -0.19058374125E+03  0.19058374125E+03  0.00000000000E+00 0.  1.
         25    2    1    2    0    0  0.92504903996E+02 -0.67371334014E+01 -0.58712728742E+02  0.16642513900E+03  0.12509035192E+03 0.  0.
          5    1    3    3  502    0 -0.89540409058E+01 -0.50309915246E+01  0.29744445748E+02  0.31744136106E+02  0.41800000000E+01 0.  1.
         -5    1    3    3    0  502  0.10145894490E+03 -0.17061418768E+01 -0.88457174490E+02  0.13468100289E+03  0.41800000000E+01 0.  1.
        -11    1    1    2    0    0 -0.78141773738E+02 -0.33537164645E+01 -0.55555901155E+02  0.95936658115E+02  0.00000000000E+00 0.  1.
         11    1    1    2    0    0 -0.14363130258E+02  0.10090849866E+02  0.31687940505E+02  0.36224996001E+02  0.00000000000E+00 0. -1.
</event>
<event>
 7    1  0.2626349E-009  0.1040102E+03  0.7561462E-02  0.1272082E+00
         -1   -1    0    0    0  501 -0.00000000000E+00  0.00000000000E+00  0.16502367893E+03  0.16502367893E+03  0.00000000000E+00 0.  1.
          1   -1    0    0  501    0  0.00000000000E+00 -0.00000000000E+00 -0.11125796347E+03  0.11125796347E+03  0.00000000000E+00 0. -1.
         25    2    1    2    0    0 -0.40665013405E+01  0.56719707357E+02 -0.43093929985E+02  0.14401073366E+03  0.12509333704E+03 0.  0.
          5    1    3    3  502    0  0.49045692195E+02  0.36971903919E+02 -0.58726968922E+02  0.85080731550E+02  0.41800000000E+01 0. -1.
         -5    1    3    3    0  502 -0.53112193535E+02  0.19747803438E+02  0.15633038937E+02  0.58930002114E+02  0.41800000000E+01 0. -1.
        -11    1    1    2    0    0  0.19233281637E+02 -0.68045163253E+02  0.70812994360E+02  0.10007269125E+03  0.00000000000E+00 0. -1.
         11    1    1    2    0    0 -0.15166780296E+02  0.11325455895E+02  0.26046651094E+02  0.32198217482E+02  0.00000000000E+00 0.  1.
</event>
<event>
 7    1  0.2626349E-009  0.1284241E+03  0.7561462E-02  0.1229813E+00
         -1   -1    0    0    0  501 -0.00000000000E+00  0.00000000000E+00  0.39460157101E+02  0.39460157101E+02  0.00000000000E+00 0.  1.
          1   -1    0    0  501    0  0.00000000000E+00 -0.00000000000E+00 -0.63281106400E+03  0.63281106400E+03  0.00000000000E+00 0. -1.
         25    2    1    2    0    0  0.96390682497E+02 -0.22497088368E+02 -0.45451323549E+03  0.48169198577E+03  0.12509038839E+03 0.  0.
          5    1    3    3  502    0  0.98685181878E+02 -0.62932099058E+02 -0.30434569958E+03  0.32610273146E+03  0.41800000000E+01 0. -1.
         -5    1    3    3    0  502 -0.22944993817E+01  0.40435010689E+02 -0.15016753591E+03  0.15558925431E+03  0.41800000000E+01 0. -1.
        -11    1    1    2    0    0 -0.37826342796E+02  0.10121274761E+02  0.25043504361E+00  0.39157823354E+02  0.00000000000E+00 0.  1.
         11    1    1    2    0    0 -0.58564339701E+02  0.12375813607E+02 -0.13908810646E+03  0.15142141198E+03  0.00000000000E+00 0. -1.
</event>
<event>
 7    1  0.2626349E-009  0.1111286E+03  0.7561462E-02  0.1258494E+00
         -1   -1    0    0    0  501 -0.00000000000E+00  0.00000000000E+00  0.29527309614E+02  0.29527309614E+02  0.00000000000E+00 0.  1.
          1   -1    0    0  501    0  0.00000000000E+00 -0.00000000000E+00 -0.48768799950E+03  0.48768799950E+03  0.00000000000E+00 0. -1.
         25    2    1    2    0    0  0.37547447110E+02  0.33865205819E+02 -0.24797570631E+03  0.28230541486E+03  0.12509090051E+03 0.  0.
          5    1    3    3  502    0 -0.39596952157E+02  0.10549018416E+02 -0.33315498003E+02  0.52977308508E+02  0.41800000000E+01 0. -1.
         -5    1    3    3    0  502  0.77144399267E+02  0.23316187404E+02 -0.21466020831E+03  0.22932810635E+03  0.41800000000E+01 0. -1.
        -11    1    1    2    0    0  0.26389667427E+02 -0.24004878166E+02 -0.44442997119E+02  0.56989724649E+02  0.00000000000E+00 0. -1.
         11    1    1    2    0    0 -0.63937114537E+02 -0.98603276537E+01 -0.16574198646E+03  0.17792016960E+03  0.00000000000E+00 0.  1.
</event>
<event>
 7    1  0.2626349E-009  0.1229584E+03  0.7561462E-02  0.1238295E+00
         -1   -1    0    0    0  501 -0.00000000000E+00  0.00000000000E+00  0.69270481771E+02  0.69270481771E+02  0.00000000000E+00 0.  1.
          1   -1    0    0  501    0  0.00000000000E+00 -0.00000000000E+00 -0.37766415816E+03  0.37766415816E+03  0.00000000000E+00 0. -1.
         25    2    1    2    0    0 -0.20065793158E+02  0.73354894455E+02 -0.29186932867E+03  0.32652393333E+03  0.12508635987E+03 0.  0.
          5    1    3    3  502    0 -0.42659371464E+02 -0.12772524563E+02 -0.16840756445E+03  0.17424562985E+03  0.41800000000E+01 0. -1.
         -5    1    3    3    0  502  0.22593578305E+02  0.86127419018E+02 -0.12346176422E+03  0.15227830348E+03  0.41800000000E+01 0. -1.
        -11    1    1    2    0    0 -0.32118145747E+02 -0.33315484659E+02  0.13358711042E+02  0.48165879676E+02  0.00000000000E+00 0.  1.
         11    1    1    2    0    0  0.52183938905E+02 -0.40039409797E+02 -0.29883058762E+02  0.72244826925E+02  0.00000000000E+00 0. -1.
</event>
<event>
 7    1  0.2626349E-009  0.1068576E+03  0.7561462E-02  0.1266502E+00
          2   -1    0    0  501    0  0.00000000000E+00  0.00000000000E+00  0.59635375547E+03  0.59635375547E+03  0.00000000000E+00 0. -1.
         -2   -1    0    0    0  501 -0.00000000000E+00 -0.00000000000E+00 -0.25136824418E+02  0.25136824418E+02  0.00000000000E+00 0.  1.
         25    2    1    2    0    0  0.14848834865E+00  0.33555730106E+02  0.20863291984E+03  0.24556285459E+03  0.12508961283E+03 0.  0.
          5    1    3    3  502    0  0.39852643935E+02  0.59504629924E+02  0.16905397589E+03  0.18364572790E+03  0.41800000000E+01 0. -1.
         -5    1    3    3    0  502 -0.39704155586E+02 -0.25948899819E+02  0.39578943949E+02  0.61917126684E+02  0.41800000000E+01 0. -1.
        -11    1    1    2    0    0  0.18153553204E+02 -0.59726818896E+02  0.17866179735E+03  0.18925348668E+03  0.00000000000E+00 0.  1.
         11    1    1    2    0    0 -0.18302041553E+02  0.26171088790E+02  0.18392221386E+03  0.18667423862E+03  0.00000000000E+00 0. -1.
</event>
<event>
 7    1  0.2626349E-009  0.1232645E+03  0.7561462E-02  0.1237807E+00
          2   -1    0    0  501    0  0.00000000000E+00  0.00000000000E+00  0.75499421111E+03  0.75499421111E+03  0.00000000000E+00 0. -1.
         -2   -1    0    0    0  501 -0.00000000000E+00 -0.00000000000E+00 -0.22784218179E+02  0.22784218179E+02  0.00000000000E+00 0.  1.
         25    2    1    2    0    0 -0.53932677821E+02 -0.25149370788E+02  0.31567298585E+03  0.34472795252E+03  0.12508678053E+03 0.  0.
          5    1    3    3  502    0 -0.53671384050E+01 -0.71146453577E+02  0.16640262973E+03  0.18110199229E+03  0.41800000000E+01 0.  1.
         -5    1    3    3    0  502 -0.48565539416E+02  0.45997082789E+02  0.14927035612E+03  0.16362596023E+03  0.41800000000E+01 0.  1.
        -11    1    1    2    0    0  0.11047890925E+01  0.49749853607E+02  0.10608399634E+03  0.11717543588E+03  0.00000000000E+00 0.  1.
         11    1    1    2    0    0  0.52827888728E+02 -0.24600482819E+02  0.31045301074E+03  0.31587504090E+03  0.00000000000E+00 0. -1.
</event>
<event>
 7    1  0.2626349E-009  0.1001034E+03  0.7561462E-02  0.1280079E+00
          2   -1    0    0  501    0  0.00000000000E+00  0.00000000000E+00  0.12173842119E+04  0.12173842119E+04  0.00000000000E+00 0. -1.
         -2   -1    0    0    0  501 -0.00000000000E+00 -0.00000000000E+00 -0.20587216860E+02  0.20587216860E+02  0.00000000000E+00 0.  1.
         25    2    1    2    0    0  0.19953991252E+02  0.76529440307E+02  0.97850593469E+03  0.98963457359E+03  0.12509119881E+03 0.  0.
          5    1    3    3  502    0 -0.93992303303E+01  0.22633023643E+02  0.29251304663E+02  0.38388937397E+02  0.41800000000E+01 0. -1.
         -5    1    3    3    0  502  0.29353221582E+02  0.53896416665E+02  0.94925463003E+03  0.95124563619E+03  0.41800000000E+01 0. -1.
        -11    1    1    2    0    0 -0.26698095797E+02 -0.92617004318E+02  0.15362826826E+03  0.18136246198E+03  0.00000000000E+00 0.  1.
         11    1    1    2    0    0  0.67441045448E+01  0.16087564010E+02  0.64662792075E+02  0.66974393172E+02  0.00000000000E+00 0. -1.
</event>
<event>
 7    1  0.2626349E-009  0.1851737E+03  0.7561462E-02  0.1162888E+00
          1   -1    0    0  501    0  0.00000000000E+00  0.00000000000E+00  0.36711431404E+03  0.36711431404E+03  0.00000000000E+00 0. -1.
         -1   -1    0    0    0  501 -0.00000000000E+00 -0.00000000000E+00 -0.10528709421E+03  0.10528709421E+03  0.00000000000E+00 0.  1.
         25    2    1    2    0    0  0.11671560342E+03  0.11241695337E+03  0.16457669151E+03  0.26266541851E+03  0.12509009235E+03 0.  0.
          5    1    3    3  502    0  0.13432783280E+03  0.12304995843E+03  0.13682629877E+03  0.22786875031E+03  0.41800000000E+01 0.  1.
         -5    1    3    3    0  502 -0.17612229374E+02 -0.10633005065E+02  0.27750392740E+02  0.34796668195E+02  0.41800000000E+01 0.  1.
        -11    1    1    2    0    0 -0.62838090512E+02 -0.32471590985E+02 -0.28119729867E+01  0.70787972371E+02  0.00000000000E+00 0.  1.
         11    1    1    2    0    0 -0.53877512911E+02 -0.79945362383E+02  0.10006250131E+03  0.13894801738E+03  0.00000000000E+00 0. -1.
</event>
<event>
 7    1  0.2626349E-009  0.6648701E+02  0.7561462E-02  0.1372464E+00
         -2   -1    0    0    0  501 -0.00000000000E+00  0.00000000000E+00  0.35808358714E+02  0.35808358714E+02  0.00000000000E+00 0.  1.
          2   -1    0    0  501    0  0.00000000000E+00 -0.00000000000E+00 -0.38476115966E+03  0.38476115966E+03  0.00000000000E+00 0. -1.
         25    2    1    2    0    0 -0.13587295512E+01  0.17175972042E+02 -0.27194434361E+03  0.29983144978E+03  0.12509321364E+03 0.  0.
          5    1    3    3  502    0 -0.68157449760E+01  0.46658661692E+02 -0.26443733272E+03  0.26864113688E+03  0.41800000000E+01 0. -1.
         -5    1    3    3    0  502  0.54570154248E+01 -0.29482689650E+02 -0.75070108890E+01  0.31190312901E+02  0.41800000000E+01 0. -1.
        -11    1    1    2    0    0 -0.17420842236E+02 -0.28521635892E+02 -0.89467933476E+02  0.95506442602E+02  0.00000000000E+00 0. -1.
         11    1    1    2    0    0  0.18779571787E+02  0.11345663850E+02  0.12459476132E+02  0.25231625992E+02  0.00000000000E+00 0.  1.
</event>
<event>
 7    1  0.2626349E-009  0.1085827E+03  0.7561462E-02  0.1263217E+00
         -4   -1    0    0    0  501 -0.00000000000E+00  0.00000000000E+00  0.28020917127E+03  0.28020917127E+03  0.00000000000E+00 0.  1.
          4   -1    0    0  501    0  0.00000000000E+00 -0.00000000000E+00 -0.47335824816E+02  0.47335824816E+02  0.00000000000E+00 0. -1.
         25    2    1    2    0    0 -0.97434555891E+01 -0.28128395644E+02  0.95681040216E+02  0.16027312506E+03  0.12508585688E+03 0.  0.
          5    1    3    3  502    0  0.48127059288E+02  0.20178000074E+02  0.30901197261E+02  0.60792449489E+02  0.41800000000E+01 0.  1.
         -5    1    3    3    0  502 -0.57870514877E+02 -0.48306395719E+02  0.64779842954E+02  0.99480675574E+02  0.41800000000E+01 0.  1.
        -11    1    1    2    0    0  0.22500331657E+02  0.55078602552E+02  0.11700622292E+03  0.13126451762E+03  0.00000000000E+00 0.  1.
         11    1    1    2    0    0 -0.12756876068E+02 -0.26950206907E+02  0.20186083318E+02  0.36007353403E+02  0.00000000000E+00 0. -1.
</event>
<event>
 7    1  0.2626349E-009  0.8788933E+02  0.7561462E-02  0.1308045E+00
         -2   -1    0    0    0  501 -0.00000000000E+00  0.00000000000E+00  0.30055048046E+02  0.30055048046E+02  0.00000000000E+00 0.  1.
          2   -1    0    0  501    0  0.00000000000E+00 -0.00000000000E+00 -0.44459601381E+03  0.44459601381E+03  0.00000000000E+00 0. -1.
         25    2    1    2    0    0 -0.39257924568E+02  0.77253458798E+00 -0.21710734735E+03  0.25362099709E+03  0.12508488494E+03 0.  0.
          5    1    3    3  502    0 -0.13606989710E+02  0.32832641953E+02 -0.20838887993E+03  0.21143918801E+03  0.41800000000E+01 0. -1.
         -5    1    3    3    0  502 -0.25650934858E+02 -0.32060107365E+02 -0.87184674170E+01  0.42181809082E+02  0.41800000000E+01 0. -1.
        -11    1    1    2    0    0  0.11384841354E+02  0.44293332383E+02 -0.10411408946E+03  0.11371568727E+03  0.00000000000E+00 0. -1.
         11    1    1    2    0    0  0.27873083214E+02 -0.45065866971E+02 -0.93319528954E+02  0.10731437750E+03  0.00000000000E+00 0.  1.
</event>
<event>
 7    1  0.2626349E-009  0.9510363E+02  0.7561462E-02  0.1290943E+00
         -2   -1    0    0    0  501 -0.00000000000E+00  0.00000000000E+00  0.12897409981E+03  0.12897409981E+03  0.00000000000E+00 0.  1.
          2   -1    0    0  501    0  0.00000000000E+00 -0.00000000000E+00 -0.92579532198E+02  0.92579532198E+02  0.00000000000E+00 0. -1.
         25    2    1    2    0    0  0.59293578179E+01  0.13145013648E+01  0.10675464039E+02  0.12569580355E+03  0.12509430163E+03 0.  0.
          5    1    3    3  502    0  0.43555665154E+02 -0.26257952969E+02  0.44674226589E+02  0.67822083295E+02  0.41800000000E+01 0.  1.
         -5    1    3    3    0  502 -0.37626307336E+02  0.27572454334E+02 -0.33998762550E+02  0.57873720260E+02  0.41800000000E+01 0.  1.
        -11    1    1    2    0    0 -0.26944473887E+02  0.38693976067E+02  0.13171387417E+02  0.48956244785E+02  0.00000000000E+00 0.  1.
         11    1    1    2    0    0  0.21015116069E+02 -0.40008477432E+02  0.12547716157E+02  0.46901583668E+02  0.00000000000E+00 0. -1.
</event>
<event>
 7    1  0.2626349E-009  0.8877253E+02  0.7561462E-02  0.1305852E+00
          2   -1    0    0  501    0  0.00000000000E+00  0.00000000000E+00  0.12559762558E+03  0.12559762558E+03  0.00000000000E+00 0. -1.
         -2   -1    0    0    0  501 -0.00000000000E+00 -0.00000000000E+00 -0.11513959889E+03  0.11513959889E+03  0.00000000000E+00 0.  1.
         25    2    1    2    0    0  0.25438491468E+02 -0.35324387196E+02 -0.22552516223E+02  0.13435589168E+03  0.12509180814E+03 0.  0.
          5    1    3    3  502    0  0.33389156071E+02 -0.49373846263E+02 -0.65276133697E+02  0.88493267927E+02  0.41800000000E+01 0. -1.
         -5    1    3    3    0  502 -0.79506646030E+01  0.14049459068E+02  0.42723617474E+02  0.45862623756E+02  0.41800000000E+01 0. -1.
        -11    1    1    2    0    0  0.99203016349E+01 -0.27386018925E+02  0.10211573170E+02  0.30865557563E+02  0.00000000000E+00 0.  1.
         11    1    1    2    0    0 -0.35358793103E+02  0.62710406121E+02  0.22798969746E+02  0.75515775219E+02  0.00000000000E+00 0. -1.
</event>
<event>
 7    1  0.2626349E-009  0.2980568E+03  0.7561462E-02  0.1086216E+00
          1   -1    0    0  501    0  0.00000000000E+00  0.00000000000E+00  0.31851692379E+03  0.31851692379E+03  0.00000000000E+00 0. -1.
         -1   -1    0    0    0  501 -0.00000000000E+00 -0.00000000000E+00 -0.32504919630E+03  0.32504919630E+03  0.00000000000E+00 0.  1.
         25    2    1    2    0    0  0.28525579154E+03 -0.51213672915E+02 -0.90796646433E+02  0.32845795394E+03  0.12508752775E+03 0.  0.
          5    1    3    3  502    0  0.93016174077E+01  0.41575009587E+01  0.22481609815E+02  0.25033978519E+02  0.41800000000E+01 0. -1.
         -5    1    3    3    0  502  0.27595417414E+03 -0.55371173874E+02 -0.11327825625E+03  0.30342397542E+03  0.41800000000E+01 0. -1.
        -11    1    1    2    0    0 -0.77493578011E+02 -0.26343929130E+02  0.24202688089E+02  0.85352371646E+02  0.00000000000E+00 0.  1.
         11    1    1    2    0    0 -0.20776221353E+03  0.77557602046E+02  0.60061685835E+02  0.22975579451E+03  0.00000000000E+00 0. -1.
</event>
<event>
 7    1  0.2626349E-009  0.1575864E+03  0.7561462E-02  0.1191449E+00
          2   -1    0    0  501    0  0.00000000000E+00  0.00000000000E+00  0.60028034441E+03  0.60028034441E+03  0.00000000000E+00 0. -1.
         -2   -1    0    0    0  501 -0.00000000000E+00 -0.00000000000E+00 -0.53992298090E+02  0.53992298090E+02  0.00000000000E+00 0.  1.
         25    2    1    2    0    0  0.27585137298E+02  0.14127027006E+03  0.26685141354E+03  0.32798776351E+03  0.12509223439E+03 0.  0.
          5    1    3    3  502    0 -0.27566934340E+02  0.62322904936E+02  0.34632783788E+02  0.76557053636E+02  0.41800000000E+01 0.  1.
         -5    1    3    3    0  502  0.55152071638E+02  0.78947365120E+02  0.23221862975E+03  0.25143070988E+03  0.41800000000E+01 0.  1.
        -11    1    1    2    0    0 -0.20293769595E+02 -0.18329979983E+02  0.12899711754E+03  0.13186387521E+03  0.00000000000E+00 0. -1.
         11    1    1    2    0    0 -0.72913677023E+01 -0.12294029007E+03  0.15043951524E+03  0.19442100378E+03  0.00000000000E+00 0.  1.
</event>
<event>
 7    1  0.2626349E-009  0.7157756E+02  0.7561462E-02  0.1354809E+00
         -1   -1    0    0    0  501 -0.00000000000E+00  0.00000000000E+00  0.11021821638E+03  0.11021821638E+03  0.00000000000E+00 0. -1.
          1   -1    0    0  501    0  0.00000000000E+00 -0.00000000000E+00 -0.13872589155E+03  0.13872589155E+03  0.00000000000E+00 0.  1.
         25    2    1    2    0    0 -0.37264972859E+02 -0.45017502898E+02  0.53540628394E+01  0.13817412774E+03  0.12509264494E+03 0.  0.
          5    1    3    3  502    0 -0.22555160260E+02 -0.51267426188E+02  0.59346892383E+02  0.81710527338E+02  0.41800000000E+01 0.  1.
         -5    1    3    3    0  502 -0.14709812599E+02  0.62499232897E+01 -0.53992829544E+02  0.56463600398E+02  0.41800000000E+01 0.  1.
        -11    1    1    2    0    0  0.33731571700E+02  0.98713703877E+01  0.24295223910E+02  0.42726113648E+02  0.00000000000E+00 0. -1.
         11    1    1    2    0    0  0.35334011596E+01  0.35146132510E+02 -0.58156961926E+02  0.68043866547E+02  0.00000000000E+00 0.  1.
</event>
<event>
 7    1  0.2626349E-009  0.1988681E+03  0.7561462E-02  0.1150698E+00
         -2   -1    0    0    0  501 -0.00000000000E+00  0.00000000000E+00  0.65873191662E+02  0.65873191662E+02  0.00000000000E+00 0.  1.
          2   -1    0    0  501    0  0.00000000000E+00 -0.00000000000E+00 -0.87685987193E+03  0.87685987193E+03  0.00000000000E+00 0. -1.
         25    2    1    2    0    0 -0.93275411239E+02  0.16165069844E+03 -0.21231791536E+03  0.30912691954E+03  0.12509718044E+03 0.  0.
          5    1    3    3  502    0  0.61997641970E+01  0.35951200834E+02  0.70590152824E+01  0.37392887215E+02  0.41800000000E+01 0. -1.
         -5    1    3    3    0  502 -0.99475175436E+02  0.12569949761E+03 -0.21937693064E+03  0.27173403232E+03  0.41800000000E+01 0. -1.
        -11    1    1    2    0    0  0.30215215150E+02 -0.12309585461E+03 -0.29510368602E+03  0.32117243679E+03  0.00000000000E+00 0.  1.
         11    1    1    2    0    0  0.63060196089E+02 -0.38554843829E+02 -0.30356507890E+03  0.31243370727E+03  0.00000000000E+00 0. -1.
</event>
<event>
 7    1  0.2626349E-009  0.1056630E+03  0.7561462E-02  0.1268819E+00
          2   -1    0    0  501    0  0.00000000000E+00  0.00000000000E+00  0.68068591219E+03  0.68068591219E+03  0.00000000000E+00 0.  1.
         -2   -1    0    0    0  501 -0.00000000000E+00 -0.00000000000E+00 -0.27292899165E+02  0.27292899165E+02  0.00000000000E+00 0. -1.
         25    2    1    2    0    0  0.76658329546E+02 -0.27129785086E+02  0.41552984032E+03  0.44150690214E+03  0.12510304437E+03 0.  0.
          5    1    3    3  502    0  0.59013329583E+02  0.11292620792E+01  0.40027904751E+03  0.40462901105E+03  0.41800000000E+01 0.  1.
         -5    1    3    3    0  502  0.17644999963E+02 -0.28259047165E+02  0.15250792810E+02  0.36877891096E+02  0.41800000000E+01 0.  1.
        -11    1    1    2    0    0 -0.19939267424E+02  0.52711118108E+02  0.13444638606E+03  0.14578020127E+03  0.00000000000E+00 0. -1.
         11    1    1    2    0    0 -0.56719062122E+02 -0.25581333022E+02  0.10341678664E+03  0.12069170794E+03  0.00000000000E+00 0.  1.
</event>
<event>
 7    1  0.2626349E-009  0.1268096E+03  0.7561462E-02  0.1232268E+00
         -1   -1    0    0    0  501 -0.00000000000E+00  0.00000000000E+00  0.91415647911E+02  0.91415647911E+02  0.00000000000E+00 0.  1.
          1   -1    0    0  501    0  0.00000000000E+00 -0.00000000000E+00 -0.26299429468E+03  0.26299429468E+03  0.00000000000E+00 0. -1.
         25    2    1    2    0    0  0.62041967047E+02  0.37808453052E+01 -0.51503753536E+01  0.13977557637E+03  0.12508870819E+03 0.  0.
          5    1    3    3  502    0 -0.54430790937E+01 -0.51675635253E+02  0.67730654972E+00  0.52133765767E+02  0.41800000000E+01 0. -1.
         -5    1    3    3    0  502  0.67485046141E+02  0.55456480559E+02 -0.58276819034E+01  0.87641810598E+02  0.41800000000E+01 0. -1.
        -11    1    1    2    0    0 -0.85276435568E+02 -0.17508367361E+02 -0.62261346209E+02  0.10702844773E+03  0.00000000000E+00 0. -1.
         11    1    1    2    0    0  0.23234468521E+02  0.13727522055E+02 -0.10416692521E+03  0.10760591850E+03  0.00000000000E+00 0.  1.
</event>
<event>
 7    1  0.2626349E-009  0.1249171E+03  0.7561462E-02  0.1235199E+00
         -1   -1    0    0    0  501 -0.00000000000E+00  0.00000000000E+00  0.82870291686E+02  0.82870291686E+02  0.00000000000E+00 0.  1.
          1   -1    0    0  501    0  0.00000000000E+00 -0.00000000000E+00 -0.27899913574E+03  0.27899913574E+03  0.00000000000E+00 0. -1.
         25    2    1    2    0    0 -0.40942941084E+02  0.87422884116E+02 -0.13442094497E+03  0.20745092905E+03  0.12509121642E+03 0.  0.
          5    1    3    3  502    0 -0.82771266589E+02  0.66021744076E+02 -0.67704572006E+02  0.12574312997E+03  0.41800000000E+01 0.  1.
         -5    1    3    3    0  502  0.41828325505E+02  0.21401140040E+02 -0.66716372967E+02  0.81707799085E+02  0.41800000000E+01 0.  1.
        -11    1    1    2    0    0  0.15125543980E+02 -0.38959957498E+02  0.27239948882E+02  0.49886623298E+02  0.00000000000E+00 0.  1.
         11    1    1    2    0    0  0.25817397103E+02 -0.48462926618E+02 -0.88947847967E+02  0.10453187508E+03  0.00000000000E+00 0. -1.
</event>
<event>
 7    1  0.2626349E-009  0.2071112E+03  0.7561462E-02  0.1143874E+00
          2   -1    0    0  501    0  0.00000000000E+00  0.00000000000E+00  0.35184392971E+03  0.35184392971E+03  0.00000000000E+00 0.  1.
         -2   -1    0    0    0  501 -0.00000000000E+00 -0.00000000000E+00 -0.22509095048E+03  0.22509095048E+03  0.00000000000E+00 0. -1.
         25    2    1    2    0    0 -0.22599639945E+02 -0.18393008674E+03 -0.12049994537E+03  0.25398520785E+03  0.12508888215E+03 0.  0.
          5    1    3    3  502    0 -0.59628562902E+02 -0.34825075016E+02 -0.46909921675E+02  0.83584475324E+02  0.41800000000E+01 0.  1.
         -5    1    3    3    0  502  0.37028922957E+02 -0.14910501173E+03 -0.73590023692E+02  0.17040073252E+03  0.41800000000E+01 0.  1.
        -11    1    1    2    0    0  0.13636225743E+02  0.93320950646E+01 -0.38629597562E+01  0.16969299010E+02  0.00000000000E+00 0. -1.
         11    1    1    2    0    0  0.89634142017E+01  0.17459799168E+03  0.25111588435E+03  0.30598037333E+03  0.00000000000E+00 0.  1.
</event>
<event>
 7    1  0.2626349E-009  0.1464067E+03  0.7561462E-02  0.1204959E+00
         -1   -1    0    0    0  501 -0.00000000000E+00  0.00000000000E+00  0.21502546739E+02  0.21502546739E+02  0.00000000000E+00 0.  1.
          1   -1    0    0  501    0  0.00000000000E+00 -0.00000000000E+00 -0.14206464152E+04  0.14206464152E+04  0.00000000000E+00 0. -1.
         25    2    1    2    0    0  0.19350332807E+02  0.12909069089E+03 -0.93125467870E+03  0.94864263026E+03  0.12509484998E+03 0.  0.
          5    1    3    3  502    0 -0.27388052103E+02  0.40522748159E+02 -0.10033484164E+03  0.11169937943E+03  0.41800000000E+01 0. -1.
         -5    1    3    3    0  502  0.46738384910E+02  0.88567942727E+02 -0.83091983705E+03  0.83694325083E+03  0.41800000000E+01 0. -1.
        -11    1    1    2    0    0  0.10493138261E+02 -0.10393363427E+03 -0.23231685744E+03  0.25472225763E+03  0.00000000000E+00 0.  1.
         11    1    1    2    0    0 -0.29843471068E+02 -0.25157056617E+02 -0.23557233233E+03  0.23878407406E+03  0.00000000000E+00 0. -1.
</event>
<event>
 7    1  0.2626349E-009  0.1189442E+03  0.7561462E-02  0.1244849E+00
         -2   -1    0    0    0  501 -0.00000000000E+00  0.00000000000E+00  0.35736220498E+02  0.35736220498E+02  0.00000000000E+00 0.  1.
          2   -1    0    0  501    0  0.00000000000E+00 -0.00000000000E+00 -0.44349798573E+03  0.44349798573E+03  0.00000000000E+00 0. -1.
         25    2    1    2    0    0 -0.19073395821E+02  0.54701120339E+02 -0.28238699828E+03  0.31423765632E+03  0.12508749283E+03 0.  0.
          5    1    3    3  502    0  0.46269628590E+02 -0.30475550839E+01 -0.13651092809E+03  0.14423200758E+03  0.41800000000E+01 0.  1.
         -5    1    3    3    0  502 -0.65343024412E+02  0.57748675423E+02 -0.14587607019E+03  0.17000564875E+03  0.41800000000E+01 0.  1.
        -11    1    1    2    0    0 -0.55616130865E+01  0.22402468080E+02 -0.12958428940E+02  0.26471172939E+02  0.00000000000E+00 0.  1.
         11    1    1    2    0    0  0.24635008908E+02 -0.77103588419E+02 -0.11241633802E+03  0.13852537697E+03  0.00000000000E+00 0. -1.
</event>
<event>
 7    1  0.2626349E-009  0.8818453E+02  0.7561462E-02  0.1307309E+00
         -2   -1    0    0    0  501 -0.00000000000E+00  0.00000000000E+00  0.22454956793E+02  0.22454956793E+02  0.00000000000E+00 0.  1.
          2   -1    0    0  501    0  0.00000000000E+00 -0.00000000000E+00 -0.55166616824E+03  0.55166616824E+03  0.00000000000E+00 0. -1.
         25    2    1    2    0    0 -0.10430987515E+02  0.24639302180E+02 -0.30551970968E+03  0.33121903755E+03  0.12509139506E+03 0.  0.
          5    1    3    3  502    0 -0.40827241950E+02 -0.20713663303E+01 -0.25721596019E+02  0.48479141344E+02  0.41800000000E+01 0. -1.
         -5    1    3    3    0  502  0.30396254435E+02  0.26710668510E+02 -0.27979811366E+03  0.28273989620E+03  0.41800000000E+01 0. -1.
        -11    1    1    2    0    0 -0.22497048222E+02  0.25881148369E+02 -0.76348286402E+02  0.83695948863E+02  0.00000000000E+00 0. -1.
         11    1    1    2    0    0  0.32928035737E+02 -0.50520450549E+02 -0.14734321536E+03  0.15920613862E+03  0.00000000000E+00 0.  1.
</event>
<event>
 7    1  0.2626349E-009  0.9259919E+02  0.7561462E-02  0.1296677E+00
          1   -1    0    0  501    0  0.00000000000E+00  0.00000000000E+00  0.21252518896E+03  0.21252518896E+03  0.00000000000E+00 0. -1.
         -1   -1    0    0    0  501 -0.00000000000E+00 -0.00000000000E+00 -0.69859136308E+02  0.69859136308E+02  0.00000000000E+00 0.  1.
         25    2    1    2    0    0  0.50613258619E+01 -0.47528921435E+02  0.58460948827E+02  0.14611928436E+03  0.12509415386E+03 0.  0.
          5    1    3    3  502    0  0.21146699220E+02  0.31170015361E+02 -0.11406890647E+02  0.39577042585E+02  0.41800000000E+01 0. -1.
         -5    1    3    3    0  502 -0.16085373358E+02 -0.78698936796E+02  0.69867839474E+02  0.10654224177E+03  0.41800000000E+01 0. -1.
        -11    1    1    2    0    0  0.14593756163E+02  0.44683353944E+02  0.10025668735E+03  0.11072932402E+03  0.00000000000E+00 0. -1.
         11    1    1    2    0    0 -0.19655082025E+02  0.28455674911E+01 -0.16051583525E+02  0.25535716896E+02  0.00000000000E+00 0.  1.
</event>
<event>
 7    1  0.2626349E-009  0.1141067E+03  0.7561462E-02  0.1253148E+00
         -2   -1    0    0    0  501 -0.00000000000E+00  0.00000000000E+00  0.95562231145E+02  0.95562231145E+02  0.00000000000E+00 0.  1.
          2   -1    0    0  501    0  0.00000000000E+00 -0.00000000000E+00 -0.18490509211E+03  0.18490509211E+03  0.00000000000E+00 0. -1.
         25    2    1    2    0    0 -0.69219852364E+02  0.32328483496E+02 -0.42225019725E+02  0.15253410511E+03  0.12508869702E+03 0.  0.
          5    1    3    3  502    0  0.13363738082E+02 -0.33354926878E+02  0.56026217034E+01  0.36606043388E+02  0.41800000000E+01 0.  1.
         -5    1    3    3    0  502 -0.82583590445E+02  0.65683410374E+02 -0.47827641428E+02  0.11592806172E+03  0.41800000000E+01 0.  1.
        -11    1    1    2    0    0  0.16274519750E+02  0.96042400061E+01  0.23541028581E+02  0.30187438544E+02  0.00000000000E+00 0.  1.
         11    1    1    2    0    0  0.52945332613E+02 -0.41932723502E+02 -0.70658869820E+02  0.97745779602E+02  0.00000000000E+00 0. -1.
</event>
<event>
 7    1  0.2626349E-009  0.8248918E+02  0.7561462E-02  0.1322132E+00
          2   -1    0    0  501    0  0.00000000000E+00  0.00000000000E+00  0.11750369888E+03  0.11750369888E+03  0.00000000000E+00 0. -1.
         -2   -1    0    0    0  501 -0.00000000000E+00 -0.00000000000E+00 -0.13414871287E+03  0.13414871287E+03  0.00000000000E+00 0.  1.
         25    2    1    2    0    0 -0.24767422296E+02 -0.51599340192E+02  0.15527454131E+02  0.13843546703E+03  0.12508940636E+03 0.  0.
          5    1    3    3  502    0 -0.16668046957E+02  0.19326302994E+02  0.52064115147E+02  0.58133245762E+02  0.41800000000E+01 0.  1.
         -5    1    3    3    0  502 -0.80993753385E+01 -0.70925643186E+02 -0.36536661017E+02  0.80302221267E+02  0.41800000000E+01 0.  1.
        -11    1    1    2    0    0  0.27310036986E+02  0.15465371723E+02 -0.59883542855E+02  0.67609574378E+02  0.00000000000E+00 0.  1.
         11    1    1    2    0    0 -0.25426146904E+01  0.36133968469E+02  0.27711074736E+02  0.45607370345E+02  0.00000000000E+00 0. -1.
</event>
<event>
 7    1  0.2626349E-009  0.1710375E+03  0.7561462E-02  0.1176770E+00
          2   -1    0    0  501    0  0.00000000000E+00  0.00000000000E+00  0.12855348802E+04  0.12855348802E+04  0.00000000000E+00 0. -1.
         -2   -1    0    0    0  501 -0.00000000000E+00 -0.00000000000E+00 -0.32047078234E+02  0.32047078234E+02  0.00000000000E+00 0.  1.
         25    2    1    2    0    0 -0.14373749602E+03 -0.27329050777E+02  0.94231673528E+03  0.96177749782E+03  0.12509109056E+03 0.  0.
          5    1    3    3  502    0  0.11195485636E+02  0.19361895533E+02  0.50490639093E+02  0.55380492354E+02  0.41800000000E+01 0.  1.
         -5    1    3    3    0  502 -0.15493298166E+03 -0.46690946310E+02  0.89182609619E+03  0.90639700547E+03  0.41800000000E+01 0.  1.
        -11    1    1    2    0    0  0.10853392496E+03  0.45677478330E+02  0.15493907335E+03  0.19460771142E+03  0.00000000000E+00 0.  1.
         11    1    1    2    0    0  0.35203571065E+02 -0.18348427553E+02  0.15623199334E+03  0.16119674920E+03  0.00000000000E+00 0. -1.
</event>
<event>
 7    1  0.2626349E-009  0.1110621E+03  0.7561462E-02  0.1258616E+00
          2   -1    0    0  501    0  0.00000000000E+00  0.00000000000E+00  0.11504899735E+04  0.11504899735E+04  0.00000000000E+00 0. -1.
         -2   -1    0    0    0  501 -0.00000000000E+00 -0.00000000000E+00 -0.13756024609E+02  0.13756024609E+02  0.00000000000E+00 0.  1.
         25    2    1    2    0    0  0.49010542782E+02 -0.38351945239E+02  0.68448509469E+03  0.69859890126E+03  0.12509066707E+03 0.  0.
          5    1    3    3  502    0  0.60759120862E+02 -0.60478110464E+02  0.26950190694E+03  0.28283921733E+03  0.41800000000E+01 0.  1.
         -5    1    3    3    0  502 -0.11748578080E+02  0.22126165225E+02  0.41498318774E+03  0.41575968393E+03  0.41800000000E+01 0.  1.
        -11    1    1    2    0    0 -0.70251984308E+02  0.50413911082E+02  0.35185662003E+03  0.36232579923E+03  0.00000000000E+00 0. -1.
         11    1    1    2    0    0  0.21241441526E+02 -0.12061965843E+02  0.10039223414E+03  0.10332129758E+03  0.00000000000E+00 0.  1.
</event>
<event>
 7    1  0.2626349E-009  0.1081454E+03  0.7561462E-02  0.1264043E+00
          1   -1    0    0  501    0  0.00000000000E+00  0.00000000000E+00  0.22148152196E+03  0.22148152196E+03  0.00000000000E+00 0. -1.
         -1   -1    0    0    0  501 -0.00000000000E+00 -0.00000000000E+00 -0.65621426438E+02  0.65621426438E+02  0.00000000000E+00 0.  1.
         25    2    1    2    0    0  0.49382833223E+02  0.99211096132E+01  0.69797119615E+02  0.15184493328E+03  0.12509257861E+03 0.  0.
          5    1    3    3  502    0  0.79982316180E+02 -0.25433896432E+02  0.61594496295E+02  0.10418929102E+03  0.41800000000E+01 0. -1.
         -5    1    3    3    0  502 -0.30599482957E+02  0.35355006045E+02  0.82026233195E+01  0.47655642258E+02  0.41800000000E+01 0. -1.
        -11    1    1    2    0    0 -0.47720782057E+02 -0.35627603136E+02  0.91266203447E+02  0.10897760796E+03  0.00000000000E+00 0. -1.
         11    1    1    2    0    0 -0.16620511661E+01  0.25706493523E+02 -0.52032275444E+01  0.26280407155E+02  0.00000000000E+00 0.  1.
</event>
<event>
 7    1  0.2626349E-009  0.8121817E+02  0.7561462E-02  0.1325630E+00
          2   -1    0    0  501    0  0.00000000000E+00  0.00000000000E+00  0.70449072659E+03  0.70449072659E+03  0.00000000000E+00 0. -1.
         -2   -1    0    0    0  501 -0.00000000000E+00 -0.00000000000E+00 -0.20061005748E+02  0.20061005748E+02  0.00000000000E+00 0.  1.
         25    2    1    2    0    0 -0.29710207330E+02  0.36523989798E+02  0.40186003441E+03  0.42350446923E+03  0.12509136643E+03 0.  0.
          5    1    3    3  502    0  0.14834527743E+02  0.33253373998E+02  0.36090546822E+03  0.36276173928E+03  0.41800000000E+01 0.  1.
         -5    1    3    3    0  502 -0.44544735072E+02  0.32706157998E+01  0.40954566193E+02  0.60742729955E+02  0.41800000000E+01 0.  1.
        -11    1    1    2    0    0  0.39329140638E+02  0.37602210973E+01  0.44949303072E+02  0.59844468522E+02  0.00000000000E+00 0.  1.
         11    1    1    2    0    0 -0.96189333085E+01 -0.40284210895E+02  0.23762038336E+03  0.24120279458E+03  0.00000000000E+00 0. -1.
</event>
<event>
 7    1  0.2626349E-009  0.9882487E+02  0.7561462E-02  0.1282787E+00
         -2   -1    0    0    0  501 -0.00000000000E+00  0.00000000000E+00  0.17056245101E+02  0.17056245101E+02  0.00000000000E+00 0.  1.
          2   -1    0    0  501    0  0.00000000000E+00 -0.00000000000E+00 -0.71920382501E+03  0.71920382501E+03  0.00000000000E+00 0. -1.
         25    2    1    2    0    0 -0.13550686217E+02 -0.15281492983E+02 -0.45915745416E+03  0.47633273534E+03  0.12510060721E+03 0.  0.
          5    1    3    3  502    0 -0.50005155071E+02  0.24138252815E+02 -0.11260347865E+03  0.12561921265E+03  0.41800000000E+01 0. -1.
         -5    1    3    3    0  502  0.36454468854E+02 -0.39419745797E+02 -0.34655397551E+03  0.35071352269E+03  0.41800000000E+01 0. -1.
        -11    1    1    2    0    0 -0.21875431349E+02  0.39531665515E+02 -0.16298625179E+03  0.16913250825E+03  0.00000000000E+00 0. -1.
         11    1    1    2    0    0  0.35426117566E+02 -0.24250172532E+02 -0.80003873964E+02  0.90794826521E+02  0.00000000000E+00 0.  1.
</event>
<event>
 7    1  0.2626349E-009  0.1070529E+03  0.7561462E-02  0.1266127E+00
          1   -1    0    0  501    0  0.00000000000E+00  0.00000000000E+00  0.24165726915E+03  0.24165726915E+03  0.00000000000E+00 0. -1.
         -1   -1    0    0    0  501 -0.00000000000E+00 -0.00000000000E+00 -0.49000505896E+02  0.49000505896E+02  0.00000000000E+00 0.  1.
         25    2    1    2    0    0  0.39098828083E+02  0.24120995522E+02  0.98613703205E+02  0.16577925227E+03  0.12509019642E+03 0.  0.
          5    1    3    3  502    0  0.61199447941E+01  0.73423274339E+02  0.54361423280E+02  0.91657338386E+02  0.41800000000E+01 0. -1.
         -5    1    3    3    0  502  0.32978883288E+02 -0.49302278817E+02  0.44252279924E+02  0.74121913885E+02  0.41800000000E+01 0. -1.
        -11    1    1    2    0    0  0.65577514667E+01 -0.33585411032E+02  0.51032460682E+02  0.61443437255E+02  0.00000000000E+00 0.  1.
         11    1    1    2    0    0 -0.45656579549E+02  0.94644155098E+01  0.43010599370E+02  0.63435085523E+02  0.00000000000E+00 0. -1.
</event>
<event>
 7    1  0.2626349E-009  0.1299027E+03  0.7561462E-02  0.1227600E+00
          2   -1    0    0  501    0  0.00000000000E+00  0.00000000000E+00  0.23385945874E+04  0.23385945874E+04  0.00000000000E+00 0.  1.
         -2   -1    0    0    0  501 -0.00000000000E+00 -0.00000000000E+00 -0.10167578176E+02  0.10167578176E+02  0.00000000000E+00 0. -1.
         25    2    1    2    0    0 -0.55283276769E+02 -0.55289628411E+02  0.18261071958E+04  0.18320557344E+04  0.12509012630E+03 0.  0.
          5    1    3    3  502    0  0.14247917643E+02 -0.68570254758E+02  0.64081601581E+03  0.64464526797E+03  0.41800000000E+01 0.  1.
         -5    1    3    3    0  502 -0.69531194412E+02  0.13280626347E+02  0.11852911800E+04  0.11874104664E+04  0.41800000000E+01 0.  1.
        -11    1    1    2    0    0 -0.15688125223E+02  0.44200328888E+02  0.15092632070E+03  0.15804600795E+03  0.00000000000E+00 0.  1.
         11    1    1    2    0    0  0.70971401993E+02  0.11089299523E+02  0.35139349274E+03  0.35866042325E+03  0.00000000000E+00 0. -1.
</event>
<event>
 7    1  0.2626349E-009  0.2243023E+03  0.7561462E-02  0.1130716E+00
         -1   -1    0    0    0  501 -0.00000000000E+00  0.00000000000E+00  0.46300599755E+02  0.46300599755E+02  0.00000000000E+00 0.  1.
          1   -1    0    0  501    0  0.00000000000E+00 -0.00000000000E+00 -0.12151375291E+04  0.12151375291E+04  0.00000000000E+00 0. -1.
         25    2    1    2    0    0  0.20264137915E+03 -0.13684911360E+02 -0.75151427261E+03  0.78846104552E+03  0.12508522303E+03 0.  0.
          5    1    3    3  502    0  0.20818074657E+03 -0.28613957015E+02 -0.73742315293E+03  0.76679094978E+03  0.41800000000E+01 0.  1.
         -5    1    3    3    0  502 -0.55393674249E+01  0.14929045655E+02 -0.14091119681E+02  0.21670095742E+02  0.41800000000E+01 0.  1.
        -11    1    1    2    0    0 -0.74964856614E+02  0.48917499845E+02 -0.18603419032E+03  0.20644944051E+03  0.00000000000E+00 0. -1.
         11    1    1    2    0    0 -0.12767652253E+03 -0.35232588485E+02 -0.23128846643E+03  0.26652764285E+03  0.00000000000E+00 0.  1.
</event>
<event>
 7    1  0.2626349E-009  0.8281176E+02  0.7561462E-02  0.1321256E+00
         -4   -1    0    0    0  501 -0.00000000000E+00  0.00000000000E+00  0.19464320829E+03  0.19464320829E+03  0.00000000000E+00 0. -1.
          4   -1    0    0  501    0  0.00000000000E+00 -0.00000000000E+00 -0.83740503661E+02  0.83740503661E+02  0.00000000000E+00 0.  1.
         25    2    1    2    0    0  0.60188137568E+02 -0.72444254394E+01  0.29549149543E+02  0.14211147871E+03  0.12508967399E+03 0.  0.
          5    1    3    3  502    0  0.29305970281E+01 -0.34213844871E+02 -0.36672371563E+02  0.50413399170E+02  0.41800000000E+01 0.  1.
         -5    1    3    3    0  502  0.57257540540E+02  0.26969419432E+02  0.66221521107E+02  0.91698079537E+02  0.41800000000E+01 0.  1.
        -11    1    1    2    0    0 -0.30830514981E+02  0.18733893567E+02 -0.11777602749E+02  0.37949853079E+02  0.00000000000E+00 0.  1.
         11    1    1    2    0    0 -0.29357622587E+02 -0.11489468128E+02  0.93131157831E+02  0.98322380162E+02  0.00000000000E+00 0. -1.
</event>
<event>
 7    1  0.2626349E-009  0.9765179E+02  0.7561462E-02  0.1285313E+00
          2   -1    0    0  501    0  0.00000000000E+00  0.00000000000E+00  0.63808797562E+03  0.63808797562E+03  0.00000000000E+00 0.  1.
         -2   -1    0    0    0  501 -0.00000000000E+00 -0.00000000000E+00 -0.16997899657E+02  0.16997899657E+02  0.00000000000E+00 0. -1.
         25    2    1    2    0    0  0.36680107065E+01  0.30981649342E+02  0.40974885612E+03  0.42955098305E+03  0.12508639032E+03 0.  0.
          5    1    3    3  502    0  0.55552262422E+02  0.48509735738E+02  0.22562501503E+03  0.23740970521E+03  0.41800000000E+01 0.  1.
         -5    1    3    3    0  502 -0.51884251715E+02 -0.17528086396E+02  0.18412384109E+03  0.19214127783E+03  0.41800000000E+01 0.  1.
        -11    1    1    2    0    0 -0.29442051804E+02 -0.49101199221E+01  0.37802832908E+02  0.48166356183E+02  0.00000000000E+00 0. -1.
         11    1    1    2    0    0  0.25774041098E+02 -0.26071529420E+02  0.17353838693E+03  0.17736853605E+03  0.00000000000E+00 0.  1.
</event>
<event>
 7    1  0.2626349E-009  0.1124579E+03  0.7561462E-02  0.1256085E+00
         -1   -1    0    0    0  501 -0.00000000000E+00  0.00000000000E+00  0.21438830871E+02  0.21438830871E+02  0.00000000000E+00 0.  1.
          1   -1    0    0  501    0  0.00000000000E+00 -0.00000000000E+00 -0.95359429975E+03  0.95359429975E+03  0.00000000000E+00 0. -1.
         25    2    1    2    0    0  0.12355325662E+02  0.53020603701E+02 -0.76464040939E+03  0.77671522589E+03  0.12509095875E+03 0.  0.
          5    1    3    3  502    0  0.65643978999E+02  0.38969790389E+02 -0.33979392842E+03  0.34828890699E+03  0.41800000000E+01 0. -1.
         -5    1    3    3    0  502 -0.53288653337E+02  0.14050813313E+02 -0.42484648098E+03  0.42842631890E+03  0.41800000000E+01 0. -1.
        -11    1    1    2    0    0  0.21863381471E+02  0.79604764572E+01 -0.87897152062E+01  0.24872388872E+02  0.00000000000E+00 0.  1.
         11    1    1    2    0    0 -0.34218707133E+02 -0.60981080159E+02 -0.15872534428E+03  0.17344551586E+03  0.00000000000E+00 0. -1.
</event>
<event>
 7    1  0.2626349E-009  0.1866695E+03  0.7561462E-02  0.1161500E+00
         -2   -1    0    0    0  501 -0.00000000000E+00  0.00000000000E+00  0.65505456298E+02  0.65505456298E+02  0.00000000000E+00 0.  1.
          2   -1    0    0  501    0  0.00000000000E+00 -0.00000000000E+00 -0.72690940362E+03  0.72690940362E+03  0.00000000000E+00 0. -1.
         25    2    1    2    0    0  0.10657440062E+03 -0.15047777218E+03 -0.41942944963E+03  0.47494247454E+03  0.12509047973E+03 0.  0.
          5    1    3    3  502    0  0.46840527333E+02 -0.64502409886E+02 -0.58102734297E+02  0.98731940195E+02  0.41800000000E+01 0.  1.
         -5    1    3    3    0  502  0.59733873284E+02 -0.85975362299E+02 -0.36132671533E+03  0.37621053434E+03  0.41800000000E+01 0.  1.
        -11    1    1    2    0    0 -0.10032836240E+03  0.11455132943E+03 -0.23549117613E+03  0.28043516436E+03  0.00000000000E+00 0. -1.
         11    1    1    2    0    0 -0.62460382139E+01  0.35926442754E+02 -0.64833215716E+01  0.37037221020E+02  0.00000000000E+00 0.  1.
</event>
<event>
 7    1  0.2626349E-009  0.1112491E+03  0.7561462E-02  0.1258274E+00
         -2   -1    0    0    0  501 -0.00000000000E+00  0.00000000000E+00  0.17194805763E+02  0.17194805763E+02  0.00000000000E+00 0.  1.
          2   -1    0    0  501    0  0.00000000000E+00 -0.00000000000E+00 -0.12746648791E+04  0.12746648791E+04  0.00000000000E+00 0. -1.
         25    2    1    2    0    0 -0.91713976483E+01 -0.36844723738E+02 -0.10795197619E+04  0.10874068217E+04  0.12509608853E+03 0.  0.
          5    1    3    3  502    0  0.45337511687E+02  0.16895438943E+02 -0.58115499070E+03  0.58318053932E+03  0.41800000000E+01 0.  1.
         -5    1    3    3    0  502 -0.54508909335E+02 -0.53740162681E+02 -0.49836477120E+03  0.50422628239E+03  0.41800000000E+01 0.  1.
        -11    1    1    2    0    0 -0.29935348851E+02 -0.14068355594E+02 -0.37358357799E+02  0.49896799871E+02  0.00000000000E+00 0.  1.
         11    1    1    2    0    0  0.39106746499E+02  0.50913079332E+02 -0.14059195362E+03  0.15455606326E+03  0.00000000000E+00 0. -1.
</event>
<event>
 7    1  0.2626349E-009  0.1219852E+03  0.7561462E-02  0.1239858E+00
          2   -1    0    0  501    0  0.00000000000E+00  0.00000000000E+00  0.39004887062E+03  0.39004887062E+03  0.00000000000E+00 0. -1.
         -2   -1    0    0    0  501 -0.00000000000E+00 -0.00000000000E+00 -0.59507598234E+02  0.59507598234E+02  0.00000000000E+00 0.  1.
         25    2    1    2    0    0 -0.50319551423E+01  0.10145028848E+03  0.12850950522E+03  0.20610820113E+03  0.12509362907E+03 0.  0.
          5    1    3    3  502    0  0.22677649999E+02  0.24200698570E+02 -0.18119105522E+02  0.38022677518E+02  0.41800000000E+01 0.  1.
         -5    1    3    3    0  502 -0.27709605141E+02  0.77249589915E+02  0.14662861074E+03  0.16808552361E+03  0.41800000000E+01 0.  1.
        -11    1    1    2    0    0  0.35179510035E+02 -0.89089688528E+02  0.11020848573E+03  0.14601534459E+03  0.00000000000E+00 0. -1.
         11    1    1    2    0    0 -0.30147554893E+02 -0.12360599957E+02  0.91823281437E+02  0.97432923138E+02  0.00000000000E+00 0.  1.
</event>
<event>
 7    1  0.2626349E-009  0.1257540E+03  0.7561462E-02  0.1233896E+00
          1   -1    0    0  501    0  0.00000000000E+00  0.00000000000E+00  0.15745806166E+03  0.15745806166E+03  0.00000000000E+00 0. -1.
         -1   -1    0    0    0  501 -0.00000000000E+00 -0.00000000000E+00 -0.10091416184E+03  0.10091416184E+03  0.00000000000E+00 0.  1.
         25    2    1    2    0    0 -0.20692479026E+00  0.66728900926E+02  0.33920692388E+02  0.14577882564E+03  0.12509222036E+03 0.  0.
          5    1    3    3  502    0  0.11468220130E+02 -0.35935973749E+02  0.14089664384E+02  0.40483395666E+02  0.41800000000E+01 0.  1.
         -5    1    3    3    0  502 -0.11675144920E+02  0.10266487468E+03  0.19831028005E+02  0.10529542997E+03  0.41800000000E+01 0.  1.
        -11    1    1    2    0    0 -0.40995322365E+02 -0.52379819138E+02  0.16552029626E+02  0.68543647360E+02  0.00000000000E+00 0. -1.
         11    1    1    2    0    0  0.41202247155E+02 -0.14349081788E+02  0.60711778056E+01  0.44049750496E+02  0.00000000000E+00 0.  1.
</event>
<event>
 7    1  0.2626349E-009  0.1321850E+03  0.7561462E-02  0.1224249E+00
         -1   -1    0    0    0  501 -0.00000000000E+00  0.00000000000E+00  0.77963387491E+02  0.77963387491E+02  0.00000000000E+00 0.  1.
          1   -1    0    0  501    0  0.00000000000E+00 -0.00000000000E+00 -0.33381467313E+03  0.33381467313E+03  0.00000000000E+00 0. -1.
         25    2    1    2    0    0 -0.11457220665E+03 -0.15569030837E+02 -0.10099871751E+03  0.19803426173E+03  0.12509053771E+03 0.  0.
          5    1    3    3  502    0 -0.29592284171E+02  0.21672209015E+02 -0.98427100076E+02  0.10512256825E+03  0.41800000000E+01 0.  1.
         -5    1    3    3    0  502 -0.84979922476E+02 -0.37241239852E+02 -0.25716174297E+01  0.92911693483E+02  0.41800000000E+01 0.  1.
        -11    1    1    2    0    0  0.53009169177E+02 -0.27234344000E+02 -0.26779806092E+02  0.65336356833E+02  0.00000000000E+00 0.  1.
         11    1    1    2    0    0  0.61563037470E+02  0.42803374837E+02 -0.12807276204E+03  0.14840744205E+03  0.00000000000E+00 0. -1.
</event>
<event>
 7    1  0.2626349E-009  0.1153932E+03  0.7561462E-02  0.1250896E+00
         -2   -1    0    0    0  501 -0.00000000000E+00  0.00000000000E+00  0.13562385947E+02  0.13562385947E+02  0.00000000000E+00 0.  1.
          2   -1    0    0  501    0  0.00000000000E+00 -0.00000000000E+00 -0.18819613670E+04  0.18819613670E+04  0.00000000000E+00 0. -1.
         25    2    1    2    0    0 -0.89866194310E+02  0.35287110258E+02 -0.14115883979E+04  0.14204049154E+04  0.12508879110E+03 0.  0.
          5    1    3    3  502    0 -0.46893712845E+01  0.23519993145E+02 -0.98063937677E+03  0.98094150690E+03  0.41800000000E+01 0. -1.
         -5    1    3    3    0  502 -0.85176823025E+02  0.11767117114E+02 -0.43094902114E+03  0.43946340854E+03  0.41800000000E+01 0. -1.
        -11    1    1    2    0    0  0.65228884801E+02  0.12661694593E+02 -0.15671261982E+03  0.17021742312E+03  0.00000000000E+00 0.  1.
         11    1    1    2    0    0  0.24637309509E+02 -0.47948804851E+02 -0.30009796335E+03  0.30490141442E+03  0.00000000000E+00 0. -1.
</event>
<event>
 7    1  0.2626349E-009  0.1219870E+03  0.7561462E-02  0.1239855E+00
          1   -1    0    0  501    0  0.00000000000E+00  0.00000000000E+00  0.53404200127E+03  0.53404200127E+03  0.00000000000E+00 0. -1.
         -1   -1    0    0    0  501 -0.00000000000E+00 -0.00000000000E+00 -0.29942501864E+02  0.29942501864E+02  0.00000000000E+00 0.  1.
         25    2    1    2    0    0 -0.57895770566E+02  0.12597998806E+02  0.34073456073E+03  0.36777134918E+03  0.12508035249E+03 0.  0.
          5    1    3    3  502    0  0.27599773065E+02  0.37022563664E+02  0.82653882036E+02  0.94771062615E+02  0.41800000000E+01 0.  1.
         -5    1    3    3    0  502 -0.85495543631E+02 -0.24424564858E+02  0.25808067869E+03  0.27300028656E+03  0.41800000000E+01 0.  1.
        -11    1    1    2    0    0  0.77391273850E+02  0.10795726100E+02  0.11395189754E+03  0.13817015569E+03  0.00000000000E+00 0. -1.
         11    1    1    2    0    0 -0.19495503283E+02 -0.23393724906E+02  0.49413041136E+02  0.58042998264E+02  0.00000000000E+00 0.  1.
</event>
<event>
 7    1  0.2626349E-009  0.8809110E+02  0.7561462E-02  0.1307541E+00
          3   -1    0    0  501    0  0.00000000000E+00  0.00000000000E+00  0.12531583584E+03  0.12531583584E+03  0.00000000000E+00 0. -1.
         -3   -1    0    0    0  501 -0.00000000000E+00 -0.00000000000E+00 -0.10186537943E+03  0.10186537943E+03  0.00000000000E+00 0.  1.
         25    2    1    2    0    0 -0.15796218230E+01 -0.89989503921E+01  0.52534989694E+02  0.13597948958E+03  0.12508804951E+03 0.  0.
          5    1    3    3  502    0  0.26543656570E+02  0.45051379478E+02 -0.41954112976E+01  0.52623819444E+02  0.41800000000E+01 0. -1.
         -5    1    3    3    0  502 -0.28123278393E+02 -0.54050329870E+02  0.56730400991E+02  0.83355670132E+02  0.41800000000E+01 0. -1.
        -11    1    1    2    0    0  0.38504448688E+01 -0.26652831191E+02  0.17783173760E+02  0.32271358898E+02  0.00000000000E+00 0. -1.
         11    1    1    2    0    0 -0.22708230457E+01  0.35651781583E+02 -0.46867707043E+02  0.58930366797E+02  0.00000000000E+00 0.  1.
</event>
<event>
 7    1  0.2626349E-009  0.8330825E+02  0.7561462E-02  0.1319917E+00
         -2   -1    0    0    0  501 -0.00000000000E+00  0.00000000000E+00  0.10380567585E+03  0.10380567585E+03  0.00000000000E+00 0.  1.
          2   -1    0    0  501    0  0.00000000000E+00 -0.00000000000E+00 -0.25171563855E+03  0.25171563855E+03  0.00000000000E+00 0. -1.
         25    2    1    2    0    0  0.13710978194E+02  0.34000638799E+01 -0.20842372131E+03  0.24349113843E+03  0.12509170849E+03 0.  0.
          5    1    3    3  502    0  0.65608566126E+02 -0.94157323641E+01 -0.77803427380E+02  0.10229362481E+03  0.41800000000E+01 0.  1.
         -5    1    3    3    0  502 -0.51897587931E+02  0.12815796244E+02 -0.13062029393E+03  0.14119751362E+03  0.41800000000E+01 0.  1.
        -11    1    1    2    0    0  0.33325143416E+01 -0.21480301161E+02  0.78436989067E+02  0.81393305890E+02  0.00000000000E+00 0.  1.
         11    1    1    2    0    0 -0.17043492536E+02  0.18080237281E+02 -0.17923230455E+02  0.30636870073E+02  0.00000000000E+00 0. -1.
</event>
<event>
 7    1  0.2626349E-009  0.2470135E+03  0.7561462E-02  0.1115207E+00
          1   -1    0    0  501    0  0.00000000000E+00  0.00000000000E+00  0.16748893074E+04  0.16748893074E+04  0.00000000000E+00 0. -1.
         -1   -1    0    0    0  501 -0.00000000000E+00 -0.00000000000E+00 -0.41926227753E+02  0.41926227753E+02  0.00000000000E+00 0.  1.
         25    2    1    2    0    0  0.14100720434E+03  0.19110315764E+03  0.97935830960E+03  0.10154767245E+04  0.12508729343E+03 0.  0.
          5    1    3    3  502    0  0.13321436353E+03  0.16117089062E+03  0.61107517718E+03  0.64587341423E+03  0.41800000000E+01 0. -1.
         -5    1    3    3    0  502  0.77928408079E+01  0.29932267017E+02  0.36828313242E+03  0.36960331032E+03  0.41800000000E+01 0. -1.
        -11    1    1    2    0    0 -0.49817380877E+02 -0.14118627917E+03  0.40993195944E+03  0.43641671397E+03  0.00000000000E+00 0. -1.
         11    1    1    2    0    0 -0.91189823462E+02 -0.49916878468E+02  0.24367281065E+03  0.26492209668E+03  0.00000000000E+00 0.  1.
</event>
<event>
 7    1  0.2626349E-009  0.1285939E+03  0.7561462E-02  0.1229557E+00
         -1   -1    0    0    0  501 -0.00000000000E+00  0.00000000000E+00  0.31880630718E+03  0.31880630718E+03  0.00000000000E+00 0.  1.
          1   -1    0    0  501    0  0.00000000000E+00 -0.00000000000E+00 -0.52654980955E+02  0.52654980955E+02  0.00000000000E+00 0. -1.
         25    2    1    2    0    0  0.74932495283E+01  0.70752488786E+02  0.13900616370E+03  0.20008035162E+03  0.12508944840E+03 0.  0.
          5    1    3    3  502    0  0.47127213053E+02 -0.14457260695E+02  0.41233222613E+02  0.64402155585E+02  0.41800000000E+01 0. -1.
         -5    1    3    3    0  502 -0.39633963524E+02  0.85209749481E+02  0.97772941090E+02  0.13567819604E+03  0.41800000000E+01 0. -1.
        -11    1    1    2    0    0  0.38922701534E+02 -0.16574758972E+02  0.59971682561E+02  0.73391430282E+02  0.00000000000E+00 0. -1.
         11    1    1    2    0    0 -0.46415951062E+02 -0.54177729815E+02  0.67173479964E+02  0.97989506231E+02  0.00000000000E+00 0.  1.
</event>
<event>
 7    1  0.2626349E-009  0.9527875E+02  0.7561462E-02  0.1290550E+00
          1   -1    0    0  501    0  0.00000000000E+00  0.00000000000E+00  0.68012011831E+03  0.68012011831E+03  0.00000000000E+00 0. -1.
         -1   -1    0    0    0  501 -0.00000000000E+00 -0.00000000000E+00 -0.21874231971E+02  0.21874231971E+02  0.00000000000E+00 0.  1.
         25    2    1    2    0    0  0.23094720906E+02  0.46137292534E+02  0.45895260648E+03  0.47848464616E+03  0.12509214891E+03 0.  0.
          5    1    3    3  502    0 -0.36458114812E+02 -0.66770395308E+01  0.53175103435E+02  0.64952605936E+02  0.41800000000E+01 0.  1.
         -5    1    3    3    0  502  0.59552835718E+02  0.52814332065E+02  0.40577750304E+03  0.41353204022E+03  0.41800000000E+01 0.  1.
        -11    1    1    2    0    0 -0.29417784396E+02 -0.25739185099E+01  0.13315728511E+02  0.32393513564E+02  0.00000000000E+00 0.  1.
         11    1    1    2    0    0  0.63230634901E+01 -0.43563374024E+02  0.18597755135E+03  0.19111619056E+03  0.00000000000E+00 0. -1.
</event>
<event>
 7    1  0.2626349E-009  0.1010144E+03  0.7561462E-02  0.1278177E+00
         -1   -1    0    0    0  501 -0.00000000000E+00  0.00000000000E+00  0.34102475240E+03  0.34102475240E+03  0.00000000000E+00 0.  1.
          1   -1    0    0  501    0  0.00000000000E+00 -0.00000000000E+00 -0.49518507650E+02  0.49518507650E+02  0.00000000000E+00 0. -1.
         25    2    1    2    0    0 -0.25987969780E+02 -0.60320154323E+02  0.19535001171E+03  0.24109046863E+03  0.12509632848E+03 0.  0.
          5    1    3    3  502    0  0.18241811840E+02  0.23971873042E+02  0.10668592793E+03  0.11093590047E+03  0.41800000000E+01 0.  1.
         -5    1    3    3    0  502 -0.44229781620E+02 -0.84292027365E+02  0.88664083786E+02  0.13015456816E+03  0.41800000000E+01 0.  1.
        -11    1    1    2    0    0  0.19795593019E+02  0.46687801595E+01 -0.14809736618E+02  0.25159318549E+02  0.00000000000E+00 0. -1.
         11    1    1    2    0    0  0.61923767609E+01  0.55651374163E+02  0.11096596966E+03  0.12429347287E+03  0.00000000000E+00 0.  1.
</event>
<event>
 7    1  0.2626349E-009  0.1631854E+03  0.7561462E-02  0.1185147E+00
          2   -1    0    0  501    0  0.00000000000E+00  0.00000000000E+00  0.98123918064E+03  0.98123918064E+03  0.00000000000E+00 0.  1.
         -2   -1    0    0    0  501 -0.00000000000E+00 -0.00000000000E+00 -0.36910384274E+02  0.36910384274E+02  0.00000000000E+00 0. -1.
         25    2    1    2    0    0  0.65825592538E+02  0.11474647234E+03  0.75452688330E+03  0.77618152155E+03  0.12508866947E+03 0.  0.
          5    1    3    3  502    0 -0.66052975263E+01  0.10618423447E+03  0.50900317326E+03  0.52001963847E+03  0.41800000000E+01 0.  1.
         -5    1    3    3    0  502  0.72430890064E+02  0.85622378729E+01  0.24552371004E+03  0.25616188308E+03  0.41800000000E+01 0.  1.
        -11    1    1    2    0    0  0.68660464931E+01 -0.46932202586E+02  0.39302516871E+02  0.61599205080E+02  0.00000000000E+00 0.  1.
         11    1    1    2    0    0 -0.72691639031E+02 -0.67814269756E+02  0.15049939619E+03  0.18036883828E+03  0.00000000000E+00 0. -1.
</event>
<event>
 7    1  0.2626349E-009  0.9206930E+02  0.7561462E-02  0.1297917E+00
         -2   -1    0    0    0  501 -0.00000000000E+00  0.00000000000E+00  0.29948906637E+02  0.29948906637E+02  0.00000000000E+00 0.  1.
          2   -1    0    0  501    0  0.00000000000E+00 -0.00000000000E+00 -0.12088865823E+04  0.12088865823E+04  0.00000000000E+00 0. -1.
         25    2    1    2    0    0 -0.64639830865E+01 -0.23814542999E+02 -0.11206087131E+04  0.11278382671E+04  0.12508538467E+03 0.  0.
          5    1    3    3  502    0 -0.57164096105E+02 -0.36694935177E+02 -0.44261243646E+03  0.44781412825E+03  0.41800000000E+01 0.  1.
         -5    1    3    3    0  502  0.50700113019E+02  0.12880392178E+02 -0.67799627662E+03  0.68002413889E+03  0.41800000000E+01 0.  1.
        -11    1    1    2    0    0  0.61198920457E+01  0.43493752650E+02 -0.73854856294E+02  0.85928455103E+02  0.00000000000E+00 0. -1.
         11    1    1    2    0    0  0.34409104079E+00 -0.19679209651E+02  0.15525893673E+02  0.25068766732E+02  0.00000000000E+00 0.  1.
</event>
<event>
 7    1  0.2626349E-009  0.1122893E+03  0.7561462E-02  0.1256388E+00
         -2   -1    0    0    0  501 -0.00000000000E+00  0.00000000000E+00  0.33405714235E+03  0.33405714235E+03  0.00000000000E+00 0.  1.
          2   -1    0    0  501    0  0.00000000000E+00 -0.00000000000E+00 -0.51930729838E+02  0.51930729838E+02  0.00000000000E+00 0. -1.
         25    2    1    2    0    0 -0.37754898371E+02 -0.27320435856E+02  0.69155623609E+02  0.15034167093E+03  0.12509308204E+03 0.  0.
          5    1    3    3  502    0 -0.79310158126E+02 -0.41055405858E+02  0.43311848725E+02  0.99343022765E+02  0.41800000000E+01 0. -1.
         -5    1    3    3    0  502  0.41555259754E+02  0.13734970002E+02  0.25843774884E+02  0.50998648163E+02  0.41800000000E+01 0. -1.
        -11    1    1    2    0    0 -0.81032757851E+01 -0.22250023370E+02  0.19327711160E+02  0.30566109289E+02  0.00000000000E+00 0. -1.
         11    1    1    2    0    0  0.45858174156E+02  0.49570459225E+02  0.19364307774E+03  0.20508009197E+03  0.00000000000E+00 0.  1.
</event>
<event>
 7    1  0.2626349E-009  0.1463468E+03  0.7561462E-02  0.1205035E+00
          2   -1    0    0  501    0  0.00000000000E+00  0.00000000000E+00  0.17597467409E+04  0.17597467409E+04  0.00000000000E+00 0. -1.
         -2   -1    0    0    0  501 -0.00000000000E+00 -0.00000000000E+00 -0.23419911052E+02  0.23419911052E+02  0.00000000000E+00 0.  1.
         25    2    1    2    0    0  0.91699695863E+02 -0.74441894497E+02  0.12308222033E+04  0.12427885153E+04  0.12509823247E+03 0.  0.
          5    1    3    3  502    0  0.82576215569E+02 -0.96562250312E+01  0.98038347566E+03  0.98391122862E+03  0.41800000000E+01 0. -1.
         -5    1    3    3    0  502  0.91234802933E+01 -0.64785669466E+02  0.25043872768E+03  0.25887728672E+03  0.41800000000E+01 0. -1.
        -11    1    1    2    0    0 -0.75444652259E+02  0.84375441632E+01  0.43816990706E+03  0.44469759968E+03  0.00000000000E+00 0. -1.
         11    1    1    2    0    0 -0.16255043603E+02  0.66004350334E+02  0.67334719482E+02  0.95680536961E+02  0.00000000000E+00 0.  1.
</event>
<event>
 7    1  0.2626349E-009  0.1318910E+03  0.7561462E-02  0.1224677E+00
         -1   -1    0    0    0  501 -0.00000000000E+00  0.00000000000E+00  0.59243607796E+02  0.59243607796E+02  0.00000000000E+00 0.  1.
          1   -1    0    0  501    0  0.00000000000E+00 -0.00000000000E+00 -0.50928501309E+03  0.50928501309E+03  0.00000000000E+00 0. -1.
         25    2    1    2    0    0 -0.30868710180E+02  0.87068931043E+02 -0.76454558582E+02  0.17328299472E+03  0.12509124954E+03 0.  0.
          5    1    3    3  502    0 -0.25675878591E+02 -0.16918254244E+02 -0.60328964013E+02  0.67841980860E+02  0.41800000000E+01 0. -1.
         -5    1    3    3    0  502 -0.51928315896E+01  0.10398718529E+03 -0.16125594569E+02  0.10544101386E+03  0.41800000000E+01 0. -1.
        -11    1    1    2    0    0  0.62605780848E+02 -0.61946318719E+02 -0.27146279586E+03  0.28539250119E+03  0.00000000000E+00 0. -1.
         11    1    1    2    0    0 -0.31737070667E+02 -0.25122612324E+02 -0.10212405085E+03  0.10985312498E+03  0.00000000000E+00 0.  1.
</event>
<event>
 7    1  0.2626349E-009  0.2238151E+03  0.7561462E-02  0.1131070E+00
          2   -1    0    0  501    0  0.00000000000E+00  0.00000000000E+00  0.67413220345E+03  0.67413220345E+03  0.00000000000E+00 0. -1.
         -2   -1    0    0    0  501 -0.00000000000E+00 -0.00000000000E+00 -0.91198654668E+02  0.91198654668E+02  0.00000000000E+00 0.  1.
         25    2    1    2    0    0  0.21110977354E+03 -0.37395589915E+01  0.40795406523E+03  0.47608299326E+03  0.12508867395E+03 0.  0.
          5    1    3    3  502    0  0.20917473017E+03 -0.20259779016E+02  0.40796711736E+03  0.45893263954E+03  0.41800000000E+01 0.  1.
         -5    1    3    3    0  502  0.19350433713E+01  0.16520220024E+02 -0.13052130387E-01  0.17150353724E+02  0.41800000000E+01 0.  1.
        -11    1    1    2    0    0 -0.45244103899E+02  0.27165363720E+02  0.91938016329E+01  0.53567825344E+02  0.00000000000E+00 0.  1.
         11    1    1    2    0    0 -0.16586566964E+03 -0.23425804728E+02  0.16578568192E+03  0.23568003951E+03  0.00000000000E+00 0. -1.
</event>
<event>
 7    1  0.2626349E-009  0.1688477E+03  0.7561462E-02  0.1179055E+00
          3   -1    0    0  501    0  0.00000000000E+00  0.00000000000E+00  0.69157153168E+03  0.69157153168E+03  0.00000000000E+00 0. -1.
         -3   -1    0    0    0  501 -0.00000000000E+00 -0.00000000000E+00 -0.67076137847E+02  0.67076137847E+02  0.00000000000E+00 0.  1.
         25    2    1    2    0    0  0.13154429712E+03 -0.31864028866E+01  0.55453910997E+03  0.58350372520E+03  0.12509563369E+03 0.  0.
          5    1    3    3  502    0 -0.76927221935E+01 -0.35814226594E+02  0.14805225816E+03  0.15257385211E+03  0.41800000000E+01 0. -1.
         -5    1    3    3    0  502  0.13923701931E+03  0.32627823707E+02  0.40648685181E+03  0.43092987309E+03  0.41800000000E+01 0. -1.
        -11    1    1    2    0    0 -0.52617898765E+02 -0.41539408484E+02  0.13777833929E+02  0.68439713876E+02  0.00000000000E+00 0.  1.
         11    1    1    2    0    0 -0.78926398354E+02  0.44725811371E+02  0.56178449938E+02  0.10670423046E+03  0.00000000000E+00 0. -1.
</event>
<event>
 7    1  0.2626349E-009  0.7939932E+02  0.7561462E-02  0.1330765E+00
          2   -1    0    0  501    0  0.00000000000E+00  0.00000000000E+00  0.17307347006E+03  0.17307347006E+03  0.00000000000E+00 0. -1.
         -2   -1    0    0    0  501 -0.00000000000E+00 -0.00000000000E+00 -0.10286099083E+03  0.10286099083E+03  0.00000000000E+00 0.  1.
         25    2    1    2    0    0 -0.31485594334E+02 -0.51463095326E+02  0.89929975798E+02  0.16544978939E+03  0.12508572833E+03 0.  0.
          5    1    3    3  502    0  0.10389336613E+02  0.82659757484E+01  0.91316583505E+02  0.92371291500E+02  0.41800000000E+01 0. -1.
         -5    1    3    3    0  502 -0.41874930946E+02 -0.59729071074E+02 -0.13866077071E+01  0.73078497891E+02  0.41800000000E+01 0. -1.
        -11    1    1    2    0    0  0.24575253386E+02  0.53043246674E+01 -0.49219763552E+02  0.55269015400E+02  0.00000000000E+00 0.  1.
         11    1    1    2    0    0  0.69103409471E+01  0.46158770658E+02  0.29502266984E+02  0.55215656094E+02  0.00000000000E+00 0. -1.
</event>
<event>
 7    1  0.2626349E-009  0.7751583E+02  0.7561462E-02  0.1336253E+00
          1   -1    0    0  501    0  0.00000000000E+00  0.00000000000E+00  0.61042593711E+03  0.61042593711E+03  0.00000000000E+00 0. -1.
         -1   -1    0    0    0  501 -0.00000000000E+00 -0.00000000000E+00 -0.21077078790E+02  0.21077078790E+02  0.00000000000E+00 0.  1.
         25    2    1    2    0    0  0.14071183359E+01 -0.18897243671E+02  0.33597522186E+03  0.35900654371E+03  0.12508901999E+03 0.  0.
          5    1    3    3  502    0 -0.20266029441E+02  0.59606108286E+01  0.14449257703E+00  0.21534486501E+02  0.41800000000E+01 0. -1.
         -5    1    3    3    0  502  0.21673147777E+02 -0.24857854500E+02  0.33583072928E+03  0.33747205721E+03  0.41800000000E+01 0. -1.
        -11    1    1    2    0    0 -0.26630645659E+02 -0.33087659558E+02  0.10429892386E+03  0.11261549636E+03  0.00000000000E+00 0. -1.
         11    1    1    2    0    0  0.25223527323E+02  0.51984903229E+02  0.14907471260E+03  0.15988097582E+03  0.00000000000E+00 0.  1.
</event>
<event>
 7    1  0.2626349E-009  0.1400851E+03  0.7561462E-02  0.1213215E+00
          1   -1    0    0  501    0  0.00000000000E+00  0.00000000000E+00  0.14429672140E+04  0.14429672140E+04  0.00000000000E+00 0. -1.
         -1   -1    0    0    0  501 -0.00000000000E+00 -0.00000000000E+00 -0.17438356775E+02  0.17438356775E+02  0.00000000000E+00 0.  1.
         25    2    1    2    0    0  0.16303889665E+02  0.27280759976E+02  0.73042142986E+03  0.74173639364E+03  0.12508939108E+03 0.  0.
          5    1    3    3  502    0  0.56209808443E+02  0.20973568656E+02  0.17924167732E+03  0.18906211793E+03  0.41800000000E+01 0.  1.
         -5    1    3    3    0  502 -0.39905918778E+02  0.63071913198E+01  0.55117975255E+03  0.55267427571E+03  0.41800000000E+01 0.  1.
        -11    1    1    2    0    0 -0.86149272442E+02  0.27732933479E+02  0.28458575197E+03  0.29862997667E+03  0.00000000000E+00 0. -1.
         11    1    1    2    0    0  0.69845382777E+02 -0.55013693455E+02  0.41052167542E+03  0.42003920049E+03  0.00000000000E+00 0.  1.
</event>
<event>
 7    1  0.2626349E-009  0.1275195E+03  0.7561462E-02  0.1231183E+00
         -1   -1    0    0    0  501 -0.00000000000E+00  0.00000000000E+00  0.35712453596E+03  0.35712453596E+03  0.00000000000E+00 0.  1.
          1   -1    0    0  501    0  0.00000000000E+00 -0.00000000000E+00 -0.68484398547E+02  0.68484398547E+02  0.00000000000E+00 0. -1.
         25    2    1    2    0    0  0.80511540704E+01 -0.94429354923E+02  0.75070385015E+02  0.17396864129E+03  0.12509117193E+03 0.  0.
          5    1    3    3  502    0  0.23091027630E+02  0.26027105614E+02  0.11549408105E+02  0.36898062432E+02  0.41800000000E+01 0. -1.
         -5    1    3    3    0  502 -0.15039873560E+02 -0.12045646054E+03  0.63520976909E+02  0.13707057886E+03  0.41800000000E+01 0. -1.
        -11    1    1    2    0    0 -0.17697655125E+02  0.71455495555E+02  0.21442422685E+03  0.22670872039E+03  0.00000000000E+00 0.  1.
         11    1    1    2    0    0  0.96465010547E+01  0.22973859368E+02 -0.85447444967E+00  0.24931572824E+02  0.00000000000E+00 0. -1.
</event>
<event>
 7    1  0.2626349E-009  0.1139104E+03  0.7561462E-02  0.1253495E+00
         -1   -1    0    0    0  501 -0.00000000000E+00  0.00000000000E+00  0.21774963543E+02  0.21774963543E+02  0.00000000000E+00 0.  1.
          1   -1    0    0  501    0  0.00000000000E+00 -0.00000000000E+00 -0.72554055365E+03  0.72554055365E+03  0.00000000000E+00 0. -1.
         25    2    1    2    0    0 -0.30627738784E+01  0.40316793256E+02 -0.53858992033E+03  0.55440152855E+03  0.12508848136E+03 0.  0.
          5    1    3    3  502    0 -0.54109007012E+02 -0.12355810024E+02 -0.18194233995E+03  0.19026544129E+03  0.41800000000E+01 0.  1.
         -5    1    3    3    0  502  0.51046233134E+02  0.52672603279E+02 -0.35664758038E+03  0.36413608726E+03  0.41800000000E+01 0.  1.
        -11    1    1    2    0    0  0.23615561841E+02  0.22488851743E+02 -0.42475475582E+02  0.53550062929E+02  0.00000000000E+00 0.  1.
         11    1    1    2    0    0 -0.20552787962E+02 -0.62805644998E+02 -0.12270019420E+03  0.13936392572E+03  0.00000000000E+00 0. -1.
</event>
<event>
 7    1  0.2626349E-009  0.1074016E+03  0.7561462E-02  0.1265459E+00
         -2   -1    0    0    0  501 -0.00000000000E+00  0.00000000000E+00  0.35123809191E+02  0.35123809191E+02  0.00000000000E+00 0.  1.
          2   -1    0    0  501    0  0.00000000000E+00 -0.00000000000E+00 -0.45807320093E+03  0.45807320093E+03  0.00000000000E+00 0. -1.
         25    2    1    2    0    0 -0.10962065015E+02  0.63253783963E+02 -0.26657597792E+03  0.30137913226E+03  0.12508165854E+03 0.  0.
          5    1    3    3  502    0  0.45166566610E+02  0.54343491139E+02 -0.20774853021E+03  0.21947701013E+03  0.41800000000E+01 0.  1.
         -5    1    3    3    0  502 -0.56128631625E+02  0.89102928244E+01 -0.58827447706E+02  0.81902122134E+02  0.41800000000E+01 0.  1.
        -11    1    1    2    0    0  0.33164928274E+02 -0.53126076251E+02 -0.15522972394E+03  0.16738745365E+03  0.00000000000E+00 0. -1.
         11    1    1    2    0    0 -0.22202863259E+02 -0.10127707713E+02 -0.11436898779E+01  0.24430424208E+02  0.00000000000E+00 0.  1.
</event>
<event>
 7    1  0.2626349E-009  0.1125716E+03  0.7561462E-02  0.1255881E+00
         -1   -1    0    0    0  501 -0.00000000000E+00  0.00000000000E+00  0.50051948736E+02  0.50051948736E+02  0.00000000000E+00 0.  1.
          1   -1    0    0  501    0  0.00000000000E+00 -0.00000000000E+00 -0.47472379990E+03  0.47472379990E+03  0.00000000000E+00 0. -1.
         25    2    1    2    0    0 -0.11603197306E+02  0.52266609803E+02 -0.65457239639E+02  0.15099282913E+03  0.12509097306E+03 0.  0.
          5    1    3    3  502    0  0.43152098389E+01 -0.38281397869E+02 -0.12371358814E+01  0.38769696464E+02  0.41800000000E+01 0.  1.
         -5    1    3    3    0  502 -0.15918407145E+02  0.90548007671E+02 -0.64220103758E+02  0.11222313267E+03  0.41800000000E+01 0.  1.
        -11    1    1    2    0    0  0.44832869094E+02 -0.35232585499E+02 -0.28562974018E+03  0.29126563427E+03  0.00000000000E+00 0. -1.
         11    1    1    2    0    0 -0.33229671788E+02 -0.17034024303E+02 -0.73584871343E+02  0.82517285230E+02  0.00000000000E+00 0.  1.
</event>
<event>
 7    1  0.2626349E-009  0.1207410E+03  0.7561462E-02  0.1241880E+00
         -2   -1    0    0    0  501 -0.00000000000E+00  0.00000000000E+00  0.47126254151E+02  0.47126254151E+02  0.00000000000E+00 0.  1.
          2   -1    0    0  501    0  0.00000000000E+00 -0.00000000000E+00 -0.38680876320E+03  0.38680876320E+03  0.00000000000E+00 0. -1.
         25    2    1    2    0    0  0.20183204722E+02  0.75513512870E+02 -0.17131415253E+03  0.22606293731E+03  0.12508501265E+03 0.  0.
          5    1    3    3  502    0 -0.49756750585E+02  0.55385512840E+02 -0.88897382516E+02  0.11603235014E+03  0.41800000000E+01 0. -1.
         -5    1    3    3    0  502  0.69939955307E+02  0.20128000030E+02 -0.82416770011E+02  0.11003058717E+03  0.41800000000E+01 0. -1.
        -11    1    1    2    0    0  0.17841516581E+02 -0.27225703188E+02 -0.45048492958E+01  0.32861106116E+02  0.00000000000E+00 0.  1.
         11    1    1    2    0    0 -0.38024721302E+02 -0.48287809682E+02 -0.16386350723E+03  0.17501097393E+03  0.00000000000E+00 0. -1.
</event>
<event>
 7    1  0.2626349E-009  0.1292719E+03  0.7561462E-02  0.1228540E+00
         -1   -1    0    0    0  501 -0.00000000000E+00  0.00000000000E+00  0.37766570686E+02  0.37766570686E+02  0.00000000000E+00 0.  1.
          1   -1    0    0  501    0  0.00000000000E+00 -0.00000000000E+00 -0.63495163542E+03  0.63495163542E+03  0.00000000000E+00 0. -1.
         25    2    1    2    0    0  0.79417107962E+02 -0.74405132828E+02 -0.28641055220E+03  0.33094045843E+03  0.12508949510E+03 0.  0.
          5    1    3    3  502    0  0.88922682436E+02 -0.31638902977E+02 -0.26628504503E+03  0.28254815738E+03  0.41800000000E+01 0.  1.
         -5    1    3    3    0  502 -0.95055744739E+01 -0.42766229850E+02 -0.20125507174E+02  0.48392301048E+02  0.41800000000E+01 0.  1.
        -11    1    1    2    0    0 -0.35992389693E+02  0.25261225253E+01 -0.24938350209E+02  0.43860628381E+02  0.00000000000E+00 0.  1.
         11    1    1    2    0    0 -0.43424718269E+02  0.71879010302E+02 -0.28583616232E+03  0.29791711929E+03  0.00000000000E+00 0. -1.
</event>
<event>
 7    1  0.2626349E-009  0.1134754E+03  0.7561462E-02  0.1254266E+00
          1   -1    0    0  501    0  0.00000000000E+00  0.00000000000E+00  0.69370580106E+03  0.69370580106E+03  0.00000000000E+00 0. -1.
         -1   -1    0    0    0  501 -0.00000000000E+00 -0.00000000000E+00 -0.20252084534E+02  0.20252084534E+02  0.00000000000E+00 0.  1.
         25    2    1    2    0    0  0.47064892952E+02  0.19190444810E+01  0.35888248958E+03  0.38296436433E+03  0.12508507563E+03 0.  0.
          5    1    3    3  502    0 -0.14652290048E+02  0.45889416622E+02  0.75997332828E+02  0.90075496993E+02  0.41800000000E+01 0.  1.
         -5    1    3    3    0  502  0.61717183001E+02 -0.43970372141E+02  0.28288515675E+03  0.29288886734E+03  0.41800000000E+01 0.  1.
        -11    1    1    2    0    0  0.26518695946E+02  0.96431819975E+01  0.76278881267E+02  0.81330805486E+02  0.00000000000E+00 0.  1.
         11    1    1    2    0    0 -0.73583588898E+02 -0.11562226478E+02  0.23829234569E+03  0.24966271578E+03  0.00000000000E+00 0. -1.
</event>
<event>
 7    1  0.2684301E-009  0.1025264E+03  0.7561462E-02  0.1275071E+00
          2   -1    0    0  501    0  0.00000000000E+00  0.00000000000E+00  0.25981881454E+03  0.25981881454E+03  0.00000000000E+00 0.  1.
         -2   -1    0    0    0  501 -0.00000000000E+00 -0.00000000000E+00 -0.63971213927E+02  0.63971213927E+02  0.00000000000E+00 0. -1.
         25    2    1    2    0    0 -0.12391906974E+02  0.37665319656E+02  0.37150885123E+02  0.13638140499E+03  0.12508982252E+03 0.  0.
          5    1    3    3  502    0 -0.55699558812E+02  0.31465914634E+02 -0.17304641020E+02  0.66403822453E+02  0.41800000000E+01 0. -1.
         -5    1    3    3    0  502  0.43307651838E+02  0.61994050222E+01  0.54455526143E+02  0.69977582538E+02  0.41800000000E+01 0. -1.
        -11    1    1    2    0    0  0.88004978011E+01 -0.66932415288E+02  0.12878697540E+03  0.14540798469E+03  0.00000000000E+00 0.  1.
         11    1    1    2    0    0  0.35914091727E+01  0.29267095632E+02  0.29909740090E+02  0.42000638791E+02  0.00000000000E+00 0. -1.
</event>
<event>
 7    1  0.2626349E-009  0.1876262E+03  0.7561462E-02  0.1160620E+00
          3   -1    0    0  501    0  0.00000000000E+00  0.00000000000E+00  0.45373792642E+02  0.45373792642E+02  0.00000000000E+00 0. -1.
         -3   -1    0    0    0  501 -0.00000000000E+00 -0.00000000000E+00 -0.90643444678E+03  0.90643444678E+03  0.00000000000E+00 0.  1.
         25    2    1    2    0    0 -0.16532567516E+03 -0.23157312517E+02 -0.54053880386E+03  0.57939510857E+03  0.12509058066E+03 0.  0.
          5    1    3    3  502    0 -0.43051319620E+02 -0.61995298422E+02 -0.14457353654E+03  0.16314353501E+03  0.41800000000E+01 0.  1.
         -5    1    3    3    0  502 -0.12227435554E+03  0.38837985905E+02 -0.39596526732E+03  0.41625157356E+03  0.41800000000E+01 0.  1.
        -11    1    1    2    0    0  0.13881332986E+03  0.33567346844E+02 -0.31126413664E+03  0.34246353103E+03  0.00000000000E+00 0.  1.
         11    1    1    2    0    0  0.26512345299E+02 -0.10410034327E+02 -0.92577136410E+01  0.29949599827E+02  0.00000000000E+00 0. -1.
</event>
<event>
 7    1  0.2626349E-009  0.1332434E+03  0.7561462E-02  0.1222721E+00
          2   -1    0    0  501    0  0.00000000000E+00  0.00000000000E+00  0.72851078363E+02  0.72851078363E+02  0.00000000000E+00 0. -1.
         -2   -1    0    0    0  501 -0.00000000000E+00 -0.00000000000E+00 -0.35613936102E+03  0.35613936102E+03  0.00000000000E+00 0.  1.
         25    2    1    2    0    0  0.49494805868E+02 -0.10089768005E+03 -0.10032984960E+03  0.19581448799E+03  0.12508859796E+03 0.  0.
          5    1    3    3  502    0  0.63014835944E+02 -0.11439382734E+03 -0.46753814751E+02  0.13878115462E+03  0.41800000000E+01 0.  1.
         -5    1    3    3    0  502 -0.13520030076E+02  0.13496147296E+02 -0.53576034853E+02  0.57033333373E+02  0.41800000000E+01 0.  1.
        -11    1    1    2    0    0 -0.27389641870E+02  0.84249167572E+02 -0.18531604243E+03  0.20540241065E+03  0.00000000000E+00 0.  1.
         11    1    1    2    0    0 -0.22105163998E+02  0.16648512477E+02  0.23576093831E+01  0.27773540737E+02  0.00000000000E+00 0. -1.
</event>
<event>
 7    1  0.2626349E-009  0.1930312E+03  0.7561462E-02  0.1155755E+00
          2   -1    0    0  501    0  0.00000000000E+00  0.00000000000E+00  0.26288219915E+03  0.26288219915E+03  0.00000000000E+00 0. -1.
         -2   -1    0    0    0  501 -0.00000000000E+00 -0.00000000000E+00 -0.16115504605E+03  0.16115504605E+03  0.00000000000E+00 0.  1.
         25    2    1    2    0    0 -0.16129035755E+03  0.60534236851E+02  0.88057291104E+02  0.23039268412E+03  0.12509088340E+03 0.  0.
          5    1    3    3  502    0  0.20892794310E+02  0.73844818910E+01  0.14531013021E+02  0.26826519832E+02  0.41800000000E+01 0. -1.
         -5    1    3    3    0  502 -0.18218315186E+03  0.53149754960E+02  0.73526278082E+02  0.20356616429E+03  0.41800000000E+01 0. -1.
        -11    1    1    2    0    0  0.12393063031E+03 -0.56200348627E+02 -0.26479820292E+02  0.13863066471E+03  0.00000000000E+00 0.  1.
         11    1    1    2    0    0  0.37359727244E+02 -0.43338882236E+01  0.40149682287E+02  0.55013896377E+02  0.00000000000E+00 0. -1.
</event>
<event>
 7    1  0.2626349E-009  0.6716517E+02  0.7561462E-02  0.1370007E+00
          1   -1    0    0  501    0  0.00000000000E+00  0.00000000000E+00  0.17654369987E+03  0.17654369987E+03  0.00000000000E+00 0. -1.
         -1   -1    0    0    0  501 -0.00000000000E+00 -0.00000000000E+00 -0.88612580948E+02  0.88612580948E+02  0.00000000000E+00 0.  1.
         25    2    1    2    0    0 -0.11453655154E+02  0.22781726762E+02 -0.84405747401E+01  0.12794194764E+03  0.12509078852E+03 0.  0.
          5    1    3    3  502    0  0.21342730665E+02  0.28624510940E+02 -0.57906658855E+02  0.68158112639E+02  0.41800000000E+01 0. -1.
         -5    1    3    3    0  502 -0.32796385819E+02 -0.58427841781E+01  0.49466084115E+02  0.59783835000E+02  0.41800000000E+01 0. -1.
        -11    1    1    2    0    0 -0.14265404589E+02 -0.33906442801E+02 -0.68831093493E-01  0.36785233032E+02  0.00000000000E+00 0.  1.
         11    1    1    2    0    0  0.25719059743E+02  0.11124716039E+02  0.96440524751E+02  0.10042910014E+03  0.00000000000E+00 0. -1.
</event>
<event>
 7    1  0.2626349E-009  0.9124297E+02  0.7561462E-02  0.1299869E+00
         -1   -1    0    0    0  501 -0.00000000000E+00  0.00000000000E+00  0.25396759545E+02  0.25396759545E+02  0.00000000000E+00 0.  1.
          1   -1    0    0  501    0  0.00000000000E+00 -0.00000000000E+00 -0.48382742296E+03  0.48382742296E+03  0.00000000000E+00 0. -1.
         25    2    1    2    0    0  0.12162743997E+02  0.19906869875E+02 -0.24242601136E+03  0.27379042927E+03  0.12508641959E+03 0.  0.
          5    1    3    3  502    0  0.33552366599E+02 -0.41838727227E+02 -0.63289677984E+02  0.83062001779E+02  0.41800000000E+01 0. -1.
         -5    1    3    3    0  502 -0.21389622602E+02  0.61745597102E+02 -0.17913633338E+03  0.19072842749E+03  0.41800000000E+01 0. -1.
        -11    1    1    2    0    0  0.23915256005E+02 -0.75749839937E+01 -0.11840828595E+02  0.27740314961E+02  0.00000000000E+00 0.  1.
         11    1    1    2    0    0 -0.36078000002E+02 -0.12331885881E+02 -0.20416382346E+03  0.20769343828E+03  0.00000000000E+00 0. -1.
</event>
<event>
 7    1  0.2626349E-009  0.1235789E+03  0.7561462E-02  0.1237307E+00
         -1   -1    0    0    0  501 -0.00000000000E+00  0.00000000000E+00  0.22749923736E+03  0.22749923736E+03  0.00000000000E+00 0.  1.
          1   -1    0    0  501    0  0.00000000000E+00 -0.00000000000E+00 -0.71341303356E+02  0.71341303356E+02  0.00000000000E+00 0. -1.
         25    2    1    2    0    0 -0.17642597955E+01  0.64197521112E+02  0.66955464559E+02  0.15574319770E+03  0.12509386502E+03 0.  0.
          5    1    3    3  502    0 -0.13828092505E+02  0.10059800783E+03  0.53767387483E+02  0.11497643097E+03  0.41800000000E+01 0.  1.
         -5    1    3    3    0  502  0.12063832710E+02 -0.36400486716E+02  0.13188077075E+02  0.40766766732E+02  0.41800000000E+01 0.  1.
        -11    1    1    2    0    0  0.19425244023E+02  0.15793615664E+02  0.48252720993E+01  0.25496306633E+02  0.00000000000E+00 0. -1.
         11    1    1    2    0    0 -0.17660984228E+02 -0.79991136776E+02  0.84377197346E+02  0.11760103638E+03  0.00000000000E+00 0.  1.
</event>
<event>
 7    1  0.2626349E-009  0.3170761E+03  0.7561462E-02  0.1077003E+00
         -1   -1    0    0    0  501 -0.00000000000E+00  0.00000000000E+00  0.58799257851E+03  0.58799257851E+03  0.00000000000E+00 0.  1.
          1   -1    0    0  501    0  0.00000000000E+00 -0.00000000000E+00 -0.19237306542E+03  0.19237306542E+03  0.00000000000E+00 0. -1.
         25    2    1    2    0    0 -0.30874083239E+03  0.50177930477E+02  0.26718245841E+03  0.42996829289E+03  0.12509012956E+03 0.  0.
          5    1    3    3  502    0 -0.27622955989E+02  0.27650979672E+02  0.86488759999E+02  0.95002012508E+02  0.41800000000E+01 0. -1.
         -5    1    3    3    0  502 -0.28111787640E+03  0.22526950804E+02  0.18069369841E+03  0.33496628038E+03  0.41800000000E+01 0. -1.
        -11    1    1    2    0    0  0.13454872751E+03 -0.21190663957E+02  0.75910153275E+01  0.13641857582E+03  0.00000000000E+00 0. -1.
         11    1    1    2    0    0  0.17419210488E+03 -0.28987266520E+02  0.12084603935E+03  0.21397877523E+03  0.00000000000E+00 0.  1.
</event>
<event>
 7    1  0.2626349E-009  0.1704121E+03  0.7561462E-02  0.1177419E+00
         -1   -1    0    0    0  501 -0.00000000000E+00  0.00000000000E+00  0.44468937964E+02  0.44468937964E+02  0.00000000000E+00 0.  1.
          1   -1    0    0  501    0  0.00000000000E+00 -0.00000000000E+00 -0.71755342212E+03  0.71755342212E+03  0.00000000000E+00 0. -1.
         25    2    1    2    0    0  0.13066959136E+03  0.41318649416E+02 -0.27512913657E+03  0.33185264706E+03  0.12509342381E+03 0.  0.
          5    1    3    3  502    0 -0.24147544909E+02 -0.86720536391E+00 -0.28614584950E+02  0.37684517274E+02  0.41800000000E+01 0.  1.
         -5    1    3    3    0  502  0.15481713627E+03  0.42185854780E+02 -0.24651455162E+03  0.29416812979E+03  0.41800000000E+01 0.  1.
        -11    1    1    2    0    0 -0.33954090368E+02 -0.48050411679E+02 -0.91852757126E+02  0.10908093925E+03  0.00000000000E+00 0.  1.
         11    1    1    2    0    0 -0.96715500989E+02  0.67317622633E+01 -0.30610259046E+03  0.32108877377E+03  0.00000000000E+00 0. -1.
</event>
<event>
 7    1  0.2626349E-009  0.1905356E+03  0.7561462E-02  0.1157979E+00
          2   -1    0    0  501    0  0.00000000000E+00  0.00000000000E+00  0.88711147737E+03  0.88711147737E+03  0.00000000000E+00 0. -1.
         -2   -1    0    0    0  501 -0.00000000000E+00 -0.00000000000E+00 -0.54026252326E+02  0.54026252326E+02  0.00000000000E+00 0.  1.
         25    2    1    2    0    0  0.15583457999E+03  0.10463648173E+03  0.37518894143E+03  0.43777263981E+03  0.12507970566E+03 0.  0.
          5    1    3    3  502    0  0.96945308809E+02  0.71633248907E+02  0.10715346932E+03  0.16133522131E+03  0.41800000000E+01 0.  1.
         -5    1    3    3    0  502  0.58889271182E+02  0.33003232823E+02  0.26803547211E+03  0.27643741850E+03  0.41800000000E+01 0.  1.
        -11    1    1    2    0    0 -0.57732531549E+02 -0.14329570485E+02  0.63366066456E+02  0.86911680270E+02  0.00000000000E+00 0.  1.
         11    1    1    2    0    0 -0.98102048442E+02 -0.90306911246E+02  0.39453021716E+03  0.41645340961E+03  0.00000000000E+00 0. -1.
</event>
<event>
 7    1  0.2626349E-009  0.1567278E+03  0.7561462E-02  0.1192441E+00
          1   -1    0    0  501    0  0.00000000000E+00  0.00000000000E+00  0.10198909545E+03  0.10198909545E+03  0.00000000000E+00 0. -1.
         -1   -1    0    0    0  501 -0.00000000000E+00 -0.00000000000E+00 -0.31320973123E+03  0.31320973123E+03  0.00000000000E+00 0.  1.
         25    2    1    2    0    0 -0.13983718036E+03 -0.33570316597E+01 -0.84251117384E+02  0.20569146992E+03  0.12508006773E+03 0.  0.
          5    1    3    3  502    0  0.70212471528E+01  0.30957401375E+01  0.22390637410E+02  0.24035277452E+02  0.41800000000E+01 0.  1.
         -5    1    3    3    0  502 -0.14685842752E+03 -0.64527717972E+01 -0.10664175479E+03  0.18165619247E+03  0.41800000000E+01 0.  1.
        -11    1    1    2    0    0  0.10479019263E+03 -0.30283668224E+02 -0.53660059040E+02  0.12156268741E+03  0.00000000000E+00 0.  1.
         11    1    1    2    0    0  0.35046987731E+02  0.33640699884E+02 -0.73309459350E+02  0.87944669355E+02  0.00000000000E+00 0. -1.
</event>
<event>
 7    1  0.2626349E-009  0.1564175E+03  0.7561462E-02  0.1192802E+00
          2   -1    0    0  501    0  0.00000000000E+00  0.00000000000E+00  0.72625903251E+03  0.72625903251E+03  0.00000000000E+00 0. -1.
         -2   -1    0    0    0  501 -0.00000000000E+00 -0.00000000000E+00 -0.61617483284E+02  0.61617483284E+02  0.00000000000E+00 0.  1.
         25    2    1    2    0    0 -0.10289673042E+03 -0.94111833740E+02  0.55989506688E+03  0.59040214499E+03  0.12508969784E+03 0.  0.
          5    1    3    3  502    0 -0.12983229242E+02 -0.36841522213E+02  0.37408799122E+03  0.37614513100E+03  0.41800000000E+01 0. -1.
         -5    1    3    3    0  502 -0.89913501178E+02 -0.57270311527E+02  0.18580707566E+03  0.21425701399E+03  0.41800000000E+01 0. -1.
        -11    1    1    2    0    0  0.10295294586E+03  0.36468997650E+02  0.75999371057E+02  0.13306089303E+03  0.00000000000E+00 0. -1.
         11    1    1    2    0    0 -0.56215444520E-01  0.57642836090E+02  0.28747111288E+02  0.64413477783E+02  0.00000000000E+00 0.  1.
</event>
<event>
 7    1  0.2626349E-009  0.9057113E+02  0.7561462E-02  0.1301474E+00
          1   -1    0    0  501    0  0.00000000000E+00  0.00000000000E+00  0.68410073203E+02  0.68410073203E+02  0.00000000000E+00 0. -1.
         -1   -1    0    0    0  501 -0.00000000000E+00 -0.00000000000E+00 -0.18349002087E+03  0.18349002087E+03  0.00000000000E+00 0.  1.
         25    2    1    2    0    0 -0.23889033661E+02  0.54782493078E+01 -0.77965056075E+02  0.14942443692E+03  0.12509362587E+03 0.  0.
          5    1    3    3  502    0 -0.53985235483E+02  0.15547299841E+02  0.87314468093E+01  0.57007321862E+02  0.41800000000E+01 0.  1.
         -5    1    3    3    0  502  0.30096201821E+02 -0.10069050533E+02 -0.86696502885E+02  0.92417115055E+02  0.41800000000E+01 0.  1.
        -11    1    1    2    0    0  0.51464267238E+02  0.20038362830E+02 -0.99576644356E+01  0.56118284616E+02  0.00000000000E+00 0.  1.
         11    1    1    2    0    0 -0.27575233576E+02 -0.25516612138E+02 -0.27157227152E+02  0.46357372535E+02  0.00000000000E+00 0. -1.
</event>
<event>
 7    1  0.2626349E-009  0.9464013E+02  0.7561462E-02  0.1291989E+00
          1   -1    0    0  501    0  0.00000000000E+00  0.00000000000E+00  0.12406047373E+03  0.12406047373E+03  0.00000000000E+00 0. -1.
         -1   -1    0    0    0  501 -0.00000000000E+00 -0.00000000000E+00 -0.12443990719E+03  0.12443990719E+03  0.00000000000E+00 0.  1.
         25    2    1    2    0    0  0.41406963920E+02  0.43537162194E+02  0.10976373585E+02  0.13920522488E+03  0.12509033817E+03 0.  0.
          5    1    3    3  502    0  0.33911896356E+01 -0.12691275306E+02  0.55984932122E+02  0.57657208229E+02  0.41800000000E+01 0.  1.
         -5    1    3    3    0  502  0.38015774284E+02  0.56228437500E+02 -0.45008558537E+02  0.81548016651E+02  0.41800000000E+01 0.  1.
        -11    1    1    2    0    0 -0.65894542386E+02 -0.11057200718E+02  0.86819856367E+00  0.66821449945E+02  0.00000000000E+00 0.  1.
         11    1    1    2    0    0  0.24487578467E+02 -0.32479961476E+02 -0.12224005607E+02  0.42473706099E+02  0.00000000000E+00 0. -1.
</event>
<event>
 7    1  0.2626349E-009  0.1786092E+03  0.7561462E-02  0.1169156E+00
          1   -1    0    0  501    0  0.00000000000E+00  0.00000000000E+00  0.93610976684E+02  0.93610976684E+02  0.00000000000E+00 0. -1.
         -1   -1    0    0    0  501 -0.00000000000E+00 -0.00000000000E+00 -0.39569078482E+03  0.39569078482E+03  0.00000000000E+00 0.  1.
         25    2    1    2    0    0  0.11324781242E+03  0.91962847102E+02 -0.79956607381E+02  0.20814769402E+03  0.12510064427E+03 0.  0.
          5    1    3    3  502    0  0.94094607568E+02  0.12179935741E+03 -0.51048610607E+02  0.16221070151E+03  0.41800000000E+01 0.  1.
         -5    1    3    3    0  502  0.19153204855E+02 -0.29836510310E+02 -0.28907996773E+02  0.45936992513E+02  0.41800000000E+01 0.  1.
        -11    1    1    2    0    0 -0.96835717381E+02 -0.26977485026E+02 -0.16440434079E+03  0.19270113681E+03  0.00000000000E+00 0. -1.
         11    1    1    2    0    0 -0.16412095042E+02 -0.64985362075E+02 -0.57718859970E+02  0.88452930669E+02  0.00000000000E+00 0.  1.
</event>
<event>
 7    1  0.2626349E-009  0.8392827E+02  0.7561462E-02  0.1318259E+00
         -2   -1    0    0    0  501 -0.00000000000E+00  0.00000000000E+00  0.24339392214E+03  0.24339392214E+03  0.00000000000E+00 0.  1.
          2   -1    0    0  501    0  0.00000000000E+00 -0.00000000000E+00 -0.81392436837E+02  0.81392436837E+02  0.00000000000E+00 0. -1.
         25    2    1    2    0    0  0.56248097536E+02 -0.30128439810E+01  0.88239591155E+01  0.13747037538E+03  0.12508923274E+03 0.  0.
          5    1    3    3  502    0 -0.22474773960E+02  0.70914071013E+01  0.44363002290E+02  0.50407855454E+02  0.41800000000E+01 0.  1.
         -5    1    3    3    0  502  0.78722871497E+02 -0.10104251082E+02 -0.35539043175E+02  0.87062519929E+02  0.41800000000E+01 0.  1.
        -11    1    1    2    0    0 -0.24218673205E+02  0.16900394716E+02 -0.68722783655E+00  0.29540476561E+02  0.00000000000E+00 0. -1.
         11    1    1    2    0    0 -0.32029424331E+02 -0.13887550735E+02  0.15386475402E+03  0.15777550703E+03  0.00000000000E+00 0.  1.
</event>
<event>
 7    1  0.2626349E-009  0.1469770E+03  0.7561462E-02  0.1204238E+00
          1   -1    0    0  501    0  0.00000000000E+00  0.00000000000E+00  0.83176734782E+03  0.83176734782E+03  0.00000000000E+00 0. -1.
         -1   -1    0    0    0  501 -0.00000000000E+00 -0.00000000000E+00 -0.44188275932E+02  0.44188275932E+02  0.00000000000E+00 0.  1.
         25    2    1    2    0    0 -0.11165489449E+03  0.53046747559E+02  0.18997600024E+03  0.25888044974E+03  0.12508970261E+03 0.  0.
          5    1    3    3  502    0 -0.12589188593E+03  0.57081179603E+02  0.10797752109E+03  0.17545268727E+03  0.41800000000E+01 0. -1.
         -5    1    3    3    0  502  0.14236991449E+02 -0.40344320437E+01  0.81998479154E+02  0.83427762471E+02  0.41800000000E+01 0. -1.
        -11    1    1    2    0    0  0.23897305077E+02 -0.46504030849E+02  0.11252031355E+03  0.12407468330E+03  0.00000000000E+00 0.  1.
         11    1    1    2    0    0  0.87757589409E+02 -0.65427167109E+01  0.48508275810E+03  0.49300049071E+03  0.00000000000E+00 0. -1.
</event>
<event>
 7    1  0.2626349E-009  0.1107610E+03  0.7561462E-02  0.1259167E+00
          2   -1    0    0  501    0  0.00000000000E+00  0.00000000000E+00  0.41540043713E+03  0.41540043713E+03  0.00000000000E+00 0. -1.
         -2   -1    0    0    0  501 -0.00000000000E+00 -0.00000000000E+00 -0.46286711090E+02  0.46286711090E+02  0.00000000000E+00 0.  1.
         25    2    1    2    0    0 -0.82075375783E+02 -0.30588349797E+01  0.16068656168E+03  0.21957632560E+03  0.12509143806E+03 0.  0.
          5    1    3    3  502    0 -0.51053503084E+01 -0.21314873033E+02 -0.14979914287E+02  0.26874870162E+02  0.41800000000E+01 0.  1.
         -5    1    3    3    0  502 -0.76970025475E+02  0.18256038053E+02  0.17566647597E+03  0.19270145544E+03  0.41800000000E+01 0.  1.
        -11    1    1    2    0    0  0.49599880052E+02 -0.41627073912E+02  0.84735907685E+02  0.10664490346E+03  0.00000000000E+00 0.  1.
         11    1    1    2    0    0  0.32475495732E+02  0.44685908892E+02  0.12369125667E+03  0.13546591915E+03  0.00000000000E+00 0. -1.
</event>
<event>
 7    1  0.2626349E-009  0.8009447E+02  0.7561462E-02  0.1328784E+00
          1   -1    0    0  501    0  0.00000000000E+00  0.00000000000E+00  0.82455428618E+03  0.82455428618E+03  0.00000000000E+00 0. -1.
         -1   -1    0    0    0  501 -0.00000000000E+00 -0.00000000000E+00 -0.18674885358E+02  0.18674885358E+02  0.00000000000E+00 0.  1.
         25    2    1    2    0    0 -0.25192508502E+02  0.46810025553E+02  0.54766271430E+03  0.56427461907E+03  0.12508219744E+03 0.  0.
          5    1    3    3  502    0 -0.27513512407E+02  0.33855744488E+02  0.54868119127E+03  0.55042867553E+03  0.41800000000E+01 0. -1.
         -5    1    3    3    0  502  0.23210039051E+01  0.12954281065E+02 -0.10184769697E+01  0.13845943535E+02  0.41800000000E+01 0. -1.
        -11    1    1    2    0    0 -0.73969997552E+01 -0.64873743566E+02  0.19420933859E+03  0.20489164309E+03  0.00000000000E+00 0. -1.
         11    1    1    2    0    0  0.32589508257E+02  0.18063718013E+02  0.64007347933E+02  0.74062909383E+02  0.00000000000E+00 0.  1.
</event>
<event>
 7    1  0.2626349E-009  0.1107005E+03  0.7561462E-02  0.1259278E+00
         -2   -1    0    0    0  501 -0.00000000000E+00  0.00000000000E+00  0.11830057531E+03  0.11830057531E+03  0.00000000000E+00 0.  1.
          2   -1    0    0  501    0  0.00000000000E+00 -0.00000000000E+00 -0.14068433476E+03  0.14068433476E+03  0.00000000000E+00 0. -1.
         25    2    1    2    0    0  0.12143472446E+02  0.55533871855E+02 -0.50348256041E+02  0.14633535760E+03  0.12509042790E+03 0.  0.
          5    1    3    3  502    0 -0.15921039010E+02 -0.28582859176E+02 -0.47102260149E+02  0.57502648921E+02  0.41800000000E+01 0.  1.
         -5    1    3    3    0  502  0.28064511456E+02  0.84116731030E+02 -0.32459958919E+01  0.88832708682E+02  0.41800000000E+01 0.  1.
        -11    1    1    2    0    0  0.15141826293E+02  0.16631924753E+02  0.27460564550E+02  0.35496174863E+02  0.00000000000E+00 0.  1.
         11    1    1    2    0    0 -0.27285298740E+02 -0.72165796608E+02  0.50393204179E+00  0.77153377598E+02  0.00000000000E+00 0. -1.
</event>
<event>
 7    1  0.2626349E-009  0.2340242E+03  0.7561462E-02  0.1123839E+00
         -1   -1    0    0    0  501 -0.00000000000E+00  0.00000000000E+00  0.20162426755E+03  0.20162426755E+03  0.00000000000E+00 0.  1.
          1   -1    0    0  501    0  0.00000000000E+00 -0.00000000000E+00 -0.31361271845E+03  0.31361271845E+03  0.00000000000E+00 0. -1.
         25    2    1    2    0    0 -0.14437028038E+03  0.17187969586E+03 -0.24697401822E+02  0.25815170243E+03  0.12508769766E+03 0.  0.
          5    1    3    3  502    0 -0.10804144567E+02 -0.11193036048E+02 -0.27050226921E+02  0.31483341187E+02  0.41800000000E+01 0. -1.
         -5    1    3    3    0  502 -0.13356613581E+03  0.18307273191E+03  0.23528250991E+01  0.22666836124E+03  0.41800000000E+01 0. -1.
        -11    1    1    2    0    0  0.35533938222E+01 -0.10599984596E+02 -0.34924475505E+02  0.36670223212E+02  0.00000000000E+00 0. -1.
         11    1    1    2    0    0  0.14081688655E+03 -0.16127971126E+03 -0.52366573574E+02  0.22041506036E+03  0.00000000000E+00 0.  1.
</event>
<event>
 7    1  0.2626349E-009  0.8896994E+02  0.7561462E-02  0.1305365E+00
         -1   -1    0    0    0  501 -0.00000000000E+00  0.00000000000E+00  0.10635323335E+03  0.10635323335E+03  0.00000000000E+00 0.  1.
          1   -1    0    0  501    0  0.00000000000E+00 -0.00000000000E+00 -0.12607258330E+03  0.12607258330E+03  0.00000000000E+00 0. -1.
         25    2    1    2    0    0  0.13808980839E+02 -0.13182962025E+02 -0.45299251582E+02  0.13440299400E+03  0.12509062380E+03 0.  0.
          5    1    3    3  502    0  0.20664303289E+02  0.36261378241E+02 -0.67612154703E+02  0.79566179033E+02  0.41800000000E+01 0. -1.
         -5    1    3    3    0  502 -0.68553224500E+01 -0.49444340265E+02  0.22312903121E+02  0.54836814968E+02  0.41800000000E+01 0. -1.
        -11    1    1    2    0    0 -0.18240116716E+02  0.47717744385E+02  0.35034188028E+02  0.61944162904E+02  0.00000000000E+00 0.  1.
         11    1    1    2    0    0  0.44311358772E+01 -0.34534782361E+02 -0.94542863889E+01  0.36078659745E+02  0.00000000000E+00 0. -1.
</event>
<event>
 7    1  0.2626349E-009  0.1613073E+03  0.7561462E-02  0.1187229E+00
          3   -1    0    0  501    0  0.00000000000E+00  0.00000000000E+00  0.12235010516E+03  0.12235010516E+03  0.00000000000E+00 0. -1.
         -3   -1    0    0    0  501 -0.00000000000E+00 -0.00000000000E+00 -0.31886248462E+03  0.31886248462E+03  0.00000000000E+00 0.  1.
         25    2    1    2    0    0 -0.12532687662E+03  0.66813662391E+02 -0.19744972912E+03  0.27350441734E+03  0.12508948512E+03 0.  0.
          5    1    3    3  502    0 -0.14119216104E+03  0.77381781603E+02 -0.19635151456E+03  0.25395778416E+03  0.41800000000E+01 0.  1.
         -5    1    3    3    0  502  0.15865284422E+02 -0.10568119213E+02 -0.10982145646E+01  0.19546633181E+02  0.41800000000E+01 0.  1.
        -11    1    1    2    0    0  0.50264682927E+02 -0.25706666560E+02  0.44305499148E+02  0.71765927223E+02  0.00000000000E+00 0. -1.
         11    1    1    2    0    0  0.75062193691E+02 -0.41106995831E+02 -0.43368149488E+02  0.95942245220E+02  0.00000000000E+00 0.  1.
</event>
<event>
 7    1  0.2626349E-009  0.8707534E+02  0.7561462E-02  0.1310093E+00
          1   -1    0    0  501    0  0.00000000000E+00  0.00000000000E+00  0.14773314442E+03  0.14773314442E+03  0.00000000000E+00 0. -1.
         -1   -1    0    0    0  501 -0.00000000000E+00 -0.00000000000E+00 -0.10105158335E+03  0.10105158335E+03  0.00000000000E+00 0.  1.
         25    2    1    2    0    0  0.36366058142E+02  0.13257314767E+01 -0.17339658724E+02  0.13142601634E+03  0.12509151153E+03 0.  0.
          5    1    3    3  502    0 -0.24632879264E+02 -0.38945901966E+01  0.40077730487E+02  0.47388220631E+02  0.41800000000E+01 0.  1.
         -5    1    3    3    0  502  0.60998937406E+02  0.52203216733E+01 -0.57417389211E+02  0.84037795704E+02  0.41800000000E+01 0.  1.
        -11    1    1    2    0    0 -0.29772350303E+01 -0.37877015451E+02  0.20606530921E+01  0.38049684875E+02  0.00000000000E+00 0.  1.
         11    1    1    2    0    0 -0.33388823112E+02  0.36551283974E+02  0.61960566696E+02  0.79309026562E+02  0.00000000000E+00 0. -1.
</event>
<event>
 7    1  0.2626349E-009  0.1399018E+03  0.7561462E-02  0.1213461E+00
          1   -1    0    0  501    0  0.00000000000E+00  0.00000000000E+00  0.58168023114E+03  0.58168023114E+03  0.00000000000E+00 0. -1.
         -1   -1    0    0    0  501 -0.00000000000E+00 -0.00000000000E+00 -0.57784718328E+02  0.57784718328E+02  0.00000000000E+00 0.  1.
         25    2    1    2    0    0  0.80382721990E+02  0.90044568152E+02  0.13334248977E+03  0.21908099741E+03  0.12508739986E+03 0.  0.
          5    1    3    3  502    0  0.11171428553E+01  0.19627187459E+02  0.10817756932E+03  0.11002878441E+03  0.41800000000E+01 0. -1.
         -5    1    3    3    0  502  0.79265579134E+02  0.70417380693E+02  0.25164920447E+02  0.10905221300E+03  0.41800000000E+01 0. -1.
        -11    1    1    2    0    0 -0.61173034626E+02 -0.11001985341E+03  0.34265343460E+03  0.36504504455E+03  0.00000000000E+00 0. -1.
         11    1    1    2    0    0 -0.19209687364E+02  0.19975285260E+02  0.47899588443E+02  0.55338907496E+02  0.00000000000E+00 0.  1.
</event>
<event>
 7    1  0.2626349E-009  0.1230198E+03  0.7561462E-02  0.1238197E+00
         -2   -1    0    0    0  501 -0.00000000000E+00  0.00000000000E+00  0.27867267367E+03  0.27867267367E+03  0.00000000000E+00 0.  1.
          2   -1    0    0  501    0  0.00000000000E+00 -0.00000000000E+00 -0.11854702115E+03  0.11854702115E+03  0.00000000000E+00 0. -1.
         25    2    1    2    0    0 -0.94614009669E+02  0.29057953407E+00 -0.34208775204E+02  0.16053020763E+03  0.12509121471E+03 0.  0.
          5    1    3    3  502    0  0.21010520146E+02 -0.24164814879E+02 -0.26932627549E+02  0.42050196928E+02  0.41800000000E+01 0.  1.
         -5    1    3    3    0  502 -0.11562452982E+03  0.24455394413E+02 -0.72761476550E+01  0.11848001070E+03  0.41800000000E+01 0.  1.
        -11    1    1    2    0    0  0.37291794509E+02  0.61922903792E+01  0.16987566491E+03  0.17403092807E+03  0.00000000000E+00 0.  1.
         11    1    1    2    0    0  0.57322215160E+02 -0.64828699132E+01  0.24458762813E+02  0.62658559124E+02  0.00000000000E+00 0. -1.
</event>
<event>
 7    1  0.2626349E-009  0.7697299E+02  0.7561462E-02  0.1337868E+00
          1   -1    0    0  501    0  0.00000000000E+00  0.00000000000E+00  0.28411898131E+02  0.28411898131E+02  0.00000000000E+00 0. -1.
         -1   -1    0    0    0  501 -0.00000000000E+00 -0.00000000000E+00 -0.58624227873E+03  0.58624227873E+03  0.00000000000E+00 0.  1.
         25    2    1    2    0    0  0.49974205738E+02 -0.29316545991E+02 -0.21609143604E+03  0.25631899449E+03  0.12508811734E+03 0.  0.
          5    1    3    3  502    0  0.27546412877E+02 -0.93074375887E+01  0.77898056854E+01  0.30390569746E+02  0.41800000000E+01 0. -1.
         -5    1    3    3    0  502  0.22427792860E+02 -0.20009108402E+02 -0.22388124173E+03  0.22592842475E+03  0.41800000000E+01 0. -1.
        -11    1    1    2    0    0  0.19785262212E+02  0.61138948331E+01 -0.21838133653E+02  0.30095521134E+02  0.00000000000E+00 0. -1.
         11    1    1    2    0    0 -0.69759467950E+02  0.23202651158E+02 -0.31990081090E+03  0.32823966123E+03  0.00000000000E+00 0.  1.
</event>
<event>
 7    1  0.2626349E-009  0.1037682E+03  0.7561462E-02  0.1272566E+00
          4   -1    0    0  501    0  0.00000000000E+00  0.00000000000E+00  0.17101350147E+03  0.17101350147E+03  0.00000000000E+00 0. -1.
         -4   -1    0    0    0  501 -0.00000000000E+00 -0.00000000000E+00 -0.92762960035E+02  0.92762960035E+02  0.00000000000E+00 0.  1.
         25    2    1    2    0    0 -0.43097502627E+02 -0.37765541990E+02  0.77089610975E+02  0.15770779391E+03  0.12508121060E+03 0.  0.
          5    1    3    3  502    0 -0.31077220025E+02  0.38236535287E+02  0.10700286842E+01  0.49461536537E+02  0.41800000000E+01 0.  1.
         -5    1    3    3    0  502 -0.12020282601E+02 -0.76002077276E+02  0.76019582291E+02  0.10824625738E+03  0.41800000000E+01 0.  1.
        -11    1    1    2    0    0  0.21760362084E+02 -0.13423850058E+02 -0.32379241583E+02  0.41256858749E+02  0.00000000000E+00 0.  1.
         11    1    1    2    0    0  0.21337140543E+02  0.51189392048E+02  0.33540172039E+02  0.64811808840E+02  0.00000000000E+00 0. -1.
</event>
<event>
 7    1  0.2626349E-009  0.1091174E+03  0.7561462E-02  0.1262213E+00
          1   -1    0    0  501    0  0.00000000000E+00  0.00000000000E+00  0.23208432088E+03  0.23208432088E+03  0.00000000000E+00 0. -1.
         -1   -1    0    0    0  501 -0.00000000000E+00 -0.00000000000E+00 -0.76091157136E+02  0.76091157136E+02  0.00000000000E+00 0.  1.
         25    2    1    2    0    0  0.15153930204E+02  0.70749910139E+02  0.12128597677E+03  0.18866117354E+03  0.12509020287E+03 0.  0.
          5    1    3    3  502    0  0.44793296785E+02  0.54487858597E+02  0.13465368126E+03  0.15206726291E+03  0.41800000000E+01 0. -1.
         -5    1    3    3    0  502 -0.29639366581E+02  0.16262051543E+02 -0.13367704490E+02  0.36593910628E+02  0.41800000000E+01 0. -1.
        -11    1    1    2    0    0  0.18035330815E+02  0.13780421846E+02  0.12400273810E+01  0.22731274750E+02  0.00000000000E+00 0. -1.
         11    1    1    2    0    0 -0.33189261020E+02 -0.84530331985E+02  0.33467159591E+02  0.96783029730E+02  0.00000000000E+00 0.  1.
</event>
<event>
 7    1  0.2626349E-009  0.9451140E+02  0.7561462E-02  0.1292280E+00
          2   -1    0    0  501    0  0.00000000000E+00  0.00000000000E+00  0.31815627397E+03  0.31815627397E+03  0.00000000000E+00 0. -1.
         -2   -1    0    0    0  501 -0.00000000000E+00 -0.00000000000E+00 -0.54405175213E+02  0.54405175213E+02  0.00000000000E+00 0.  1.
         25    2    1    2    0    0 -0.16039099906E+02 -0.71794761502E+02  0.12712358882E+03  0.19291694607E+03  0.12507917789E+03 0.  0.
          5    1    3    3  502    0  0.29771112330E+01 -0.45473089001E+02 -0.14149783431E+02  0.47899413209E+02  0.41800000000E+01 0. -1.
         -5    1    3    3    0  502 -0.19016211139E+02 -0.26321672501E+02  0.14127337225E+03  0.14501753286E+03  0.41800000000E+01 0. -1.
        -11    1    1    2    0    0 -0.15601065009E+02  0.76904311434E+02  0.12041561254E+03  0.14372747159E+03  0.00000000000E+00 0. -1.
         11    1    1    2    0    0  0.31640164915E+02 -0.51095499321E+01  0.16211897400E+02  0.35917031526E+02  0.00000000000E+00 0.  1.
</event>
<event>
 7    1  0.3526684E-009  0.1082442E+03  0.7561462E-02  0.1263856E+00
          2   -1    0    0  501    0  0.00000000000E+00  0.00000000000E+00  0.88115940031E+03  0.88115940031E+03  0.00000000000E+00 0. -1.
         -2   -1    0    0    0  501 -0.00000000000E+00 -0.00000000000E+00 -0.14280448093E+02  0.14280448093E+02  0.00000000000E+00 0.  1.
         25    2    1    2    0    0  0.22119972093E+02 -0.16983047939E+02  0.48037969333E+03  0.49718178790E+03  0.12508942152E+03 0.  0.
          5    1    3    3  502    0 -0.40783655391E+02  0.26671948802E+02  0.14083953745E+03  0.14909039912E+03  0.41800000000E+01 0.  1.
         -5    1    3    3    0  502  0.62903627484E+02 -0.43654996741E+02  0.33954015588E+03  0.34809138879E+03  0.41800000000E+01 0.  1.
        -11    1    1    2    0    0  0.26595915324E+02  0.30375608022E+02  0.23798241446E+03  0.24138278702E+03  0.00000000000E+00 0. -1.
         11    1    1    2    0    0 -0.48715887417E+02 -0.13392560084E+02  0.14851684443E+03  0.15687527349E+03  0.00000000000E+00 0.  1.
</event>
<event>
 7    1  0.2626349E-009  0.1390277E+03  0.7561462E-02  0.1214643E+00
          1   -1    0    0  501    0  0.00000000000E+00  0.00000000000E+00  0.62933757757E+03  0.62933757757E+03  0.00000000000E+00 0. -1.
         -1   -1    0    0    0  501 -0.00000000000E+00 -0.00000000000E+00 -0.84098586725E+02  0.84098586725E+02  0.00000000000E+00 0.  1.
         25    2    1    2    0    0  0.62400002159E+02 -0.11429902123E+03  0.52204438204E+03  0.55239116306E+03  0.12509050199E+03 0.  0.
          5    1    3    3  502    0  0.48178851628E+02 -0.38964745035E+02  0.68777539004E+02  0.92667552958E+02  0.41800000000E+01 0. -1.
         -5    1    3    3    0  502  0.14221150531E+02 -0.75334276194E+02  0.45326684304E+03  0.45972361010E+03  0.41800000000E+01 0. -1.
        -11    1    1    2    0    0 -0.45412683681E+02  0.33048096914E+02 -0.28778812408E+02  0.63108704569E+02  0.00000000000E+00 0.  1.
         11    1    1    2    0    0 -0.16987318477E+02  0.81250924315E+02  0.51973421210E+02  0.97936296660E+02  0.00000000000E+00 0. -1.
</event>
<event>
 7    1  0.2626349E-009  0.1825372E+03  0.7561462E-02  0.1165370E+00
          4   -1    0    0  501    0  0.00000000000E+00  0.00000000000E+00  0.26459101454E+03  0.26459101454E+03  0.00000000000E+00 0. -1.
         -4   -1    0    0    0  501 -0.00000000000E+00 -0.00000000000E+00 -0.13513806372E+03  0.13513806372E+03  0.00000000000E+00 0.  1.
         25    2    1    2    0    0  0.86011655452E+02  0.11905759375E+03  0.76452895200E+02  0.20751918739E+03  0.12508578036E+03 0.  0.
          5    1    3    3  502    0 -0.29596857152E+02  0.49817883896E+02  0.23619224847E+02  0.62714716706E+02  0.41800000000E+01 0. -1.
         -5    1    3    3    0  502  0.11560851260E+03  0.69239709851E+02  0.52833670353E+02  0.14480447068E+03  0.41800000000E+01 0. -1.
        -11    1    1    2    0    0 -0.50567870028E+02 -0.28336523547E+01 -0.15188951159E+02  0.52875734530E+02  0.00000000000E+00 0.  1.
         11    1    1    2    0    0 -0.35443785424E+02 -0.11622394139E+03  0.68189006777E+02  0.13933415634E+03  0.00000000000E+00 0. -1.
</event>
<event>
 7    1  0.2626349E-009  0.1039530E+03  0.7561462E-02  0.1272196E+00
         -1   -1    0    0    0  501 -0.00000000000E+00  0.00000000000E+00  0.22073463865E+03  0.22073463865E+03  0.00000000000E+00 0.  1.
          1   -1    0    0  501    0  0.00000000000E+00 -0.00000000000E+00 -0.64099027637E+02  0.64099027637E+02  0.00000000000E+00 0. -1.
         25    2    1    2    0    0 -0.32933296440E+02 -0.25646864979E+02  0.10942654305E+03  0.17135993995E+03  0.12509075505E+03 0.  0.
          5    1    3    3  502    0  0.42811182147E+02 -0.31446671855E+02  0.61809721529E+02  0.81606400258E+02  0.41800000000E+01 0.  1.
         -5    1    3    3    0  502 -0.75744478587E+02  0.57998068757E+01  0.47616821522E+02  0.89753539697E+02  0.41800000000E+01 0.  1.
        -11    1    1    2    0    0  0.39944219537E+02  0.43681727933E+02  0.64486056708E+02  0.87533339588E+02  0.00000000000E+00 0.  1.
         11    1    1    2    0    0 -0.70109230973E+01 -0.18034862954E+02 -0.17276988745E+02  0.25940386746E+02  0.00000000000E+00 0. -1.
</event>
<event>
 7    1  0.2626349E-009  0.1096019E+03  0.7561462E-02  0.1261309E+00
          2   -1    0    0  501    0  0.00000000000E+00  0.00000000000E+00  0.70052527871E+02  0.70052527871E+02  0.00000000000E+00 0. -1.
         -2   -1    0    0    0  501 -0.00000000000E+00 -0.00000000000E+00 -0.30086973808E+03  0.30086973808E+03  0.00000000000E+00 0.  1.
         25    2    1    2    0    0  0.40227732160E+02 -0.13299127032E+02 -0.23568343143E+03  0.27016770941E+03  0.12509506041E+03 0.  0.
          5    1    3    3  502    0  0.18626779956E+02 -0.62690369547E+02 -0.18419110758E+03  0.19550160070E+03  0.41800000000E+01 0.  1.
         -5    1    3    3    0  502  0.21600952204E+02  0.49391242515E+02 -0.51492323860E+02  0.74666108709E+02  0.41800000000E+01 0.  1.
        -11    1    1    2    0    0 -0.89813546404E+01 -0.38267059661E+02 -0.51195542689E+01  0.39638900365E+02  0.00000000000E+00 0.  1.
         11    1    1    2    0    0 -0.31246377520E+02  0.51566186693E+02  0.99857754945E+01  0.61115656181E+02  0.00000000000E+00 0. -1.
</event>
<event>
 7    1  0.2626349E-009  0.1017599E+03  0.7561462E-02  0.1276638E+00
         -1   -1    0    0    0  501 -0.00000000000E+00  0.00000000000E+00  0.18251931527E+02  0.18251931527E+02  0.00000000000E+00 0.  1.
          1   -1    0    0  501    0  0.00000000000E+00 -0.00000000000E+00 -0.81823823673E+03  0.81823823673E+03  0.00000000000E+00 0. -1.
         25    2    1    2    0    0 -0.24607372998E+02  0.28093995132E+02 -0.59769614782E+03  0.61178709300E+03  0.12509183294E+03 0.  0.
          5    1    3    3  502    0 -0.18529762108E+02 -0.37531362278E+02 -0.42197645055E+03  0.42406786303E+03  0.41800000000E+01 0. -1.
         -5    1    3    3    0  502 -0.60776108892E+01  0.65625357410E+02 -0.17571969727E+03  0.18771922996E+03  0.41800000000E+01 0. -1.
        -11    1    1    2    0    0  0.14383315592E+02 -0.60110471448E+02 -0.10584575721E+03  0.12257027725E+03  0.00000000000E+00 0.  1.
         11    1    1    2    0    0  0.10224057405E+02  0.32016476316E+02 -0.96444400175E+02  0.10213279802E+03  0.00000000000E+00 0. -1.
</event>
<event>
 7    1  0.2626349E-009  0.1747243E+03  0.7561462E-02  0.1173009E+00
          2   -1    0    0  501    0  0.00000000000E+00  0.00000000000E+00  0.49337857719E+03  0.49337857719E+03  0.00000000000E+00 0. -1.
         -2   -1    0    0    0  501 -0.00000000000E+00 -0.00000000000E+00 -0.10189235940E+03  0.10189235940E+03  0.00000000000E+00 0.  1.
         25    2    1    2    0    0  0.15554936999E+03 -0.34055835725E+02  0.35776575333E+03  0.41109595180E+03  0.12509252925E+03 0.  0.
          5    1    3    3  502    0  0.38725395348E+02 -0.34753219691E+02  0.23829731207E+03  0.24394778922E+03  0.41800000000E+01 0.  1.
         -5    1    3    3    0  502  0.11682397465E+03  0.69738396629E+00  0.11946844126E+03  0.16714816258E+03  0.41800000000E+01 0.  1.
        -11    1    1    2    0    0 -0.14574091050E+03  0.87141956243E+00  0.33621041891E+02  0.14957120988E+03  0.00000000000E+00 0. -1.
         11    1    1    2    0    0 -0.98084594909E+01  0.33184416163E+02  0.99422567544E-01  0.34603774917E+02  0.00000000000E+00 0.  1.
</event>
<event>
 7    1  0.2626349E-009  0.6165030E+02  0.7561462E-02  0.1391034E+00
         -4   -1    0    0    0  501 -0.00000000000E+00  0.00000000000E+00  0.11829124623E+02  0.11829124623E+02  0.00000000000E+00 0.  1.
          4   -1    0    0  501    0  0.00000000000E+00 -0.00000000000E+00 -0.10925077007E+04  0.10925077007E+04  0.00000000000E+00 0. -1.
         25    2    1    2    0    0 -0.12472041563E+02  0.22257080142E+02 -0.72146722320E+03  0.73267701386E+03  0.12509885309E+03 0.  0.
          5    1    3    3  502    0 -0.91366762212E+01  0.11641669793E+01  0.74031894731E+00  0.10141726148E+02  0.41800000000E+01 0. -1.
         -5    1    3    3    0  502 -0.33353653415E+01  0.21092913163E+02 -0.72220754215E+03  0.72253528771E+03  0.41800000000E+01 0. -1.
        -11    1    1    2    0    0  0.38421108977E+02 -0.43393024459E+02 -0.17260079328E+03  0.18207188149E+03  0.00000000000E+00 0.  1.
         11    1    1    2    0    0 -0.25949067414E+02  0.21135944317E+02 -0.18661055965E+03  0.18958793003E+03  0.00000000000E+00 0. -1.
</event>
<event>
 7    1  0.2626349E-009  0.1138184E+03  0.7561462E-02  0.1253658E+00
         -2   -1    0    0    0  501 -0.00000000000E+00  0.00000000000E+00  0.20697572898E+02  0.20697572898E+02  0.00000000000E+00 0.  1.
          2   -1    0    0  501    0  0.00000000000E+00 -0.00000000000E+00 -0.10856899468E+04  0.10856899468E+04  0.00000000000E+00 0. -1.
         25    2    1    2    0    0  0.68059483237E+02  0.73743376028E+02 -0.68630952951E+03  0.70479705656E+03  0.12509173385E+03 0.  0.
          5    1    3    3  502    0  0.12850045467E+02 -0.14747776921E+02 -0.13958630328E+02  0.24391317169E+02  0.41800000000E+01 0. -1.
         -5    1    3    3    0  502  0.55209437770E+02  0.88491152949E+02 -0.67235089918E+03  0.68040573939E+03  0.41800000000E+01 0. -1.
        -11    1    1    2    0    0 -0.19541499879E+02 -0.38847599570E+02 -0.44925018032E+02  0.62524102993E+02  0.00000000000E+00 0.  1.
         11    1    1    2    0    0 -0.48517983359E+02 -0.34895776458E+02 -0.33375782639E+03  0.33906636017E+03  0.00000000000E+00 0. -1.
</event>
<event>
 7    1  0.2626349E-009  0.1766726E+03  0.7561462E-02  0.1171063E+00
          1   -1    0    0  501    0  0.00000000000E+00  0.00000000000E+00  0.17962981495E+03  0.17962981495E+03  0.00000000000E+00 0. -1.
         -1   -1    0    0    0  501 -0.00000000000E+00 -0.00000000000E+00 -0.27817657828E+03  0.27817657828E+03  0.00000000000E+00 0.  1.
         25    2    1    2    0    0 -0.53337482968E+01 -0.16831326749E+03 -0.15141260634E+03  0.25871053238E+03  0.12509019674E+03 0.  0.
          5    1    3    3  502    0 -0.25674615698E+02 -0.15721028775E+03 -0.70151206452E+02  0.17410607293E+03  0.41800000000E+01 0. -1.
         -5    1    3    3    0  502  0.20340867401E+02 -0.11102979738E+02 -0.81261399893E+02  0.84604459447E+02  0.41800000000E+01 0. -1.
        -11    1    1    2    0    0  0.10252270373E+02  0.24582419084E+02 -0.24153657449E+02  0.35955577370E+02  0.00000000000E+00 0.  1.
         11    1    1    2    0    0 -0.49185220762E+01  0.14373084840E+03  0.77019500466E+02  0.16314028348E+03  0.00000000000E+00 0. -1.
</event>
<event>
 7    1  0.2927826E-009  0.1777701E+03  0.7561462E-02  0.1169979E+00
          1   -1    0    0  501    0  0.00000000000E+00  0.00000000000E+00  0.88395415260E+03  0.88395415260E+03  0.00000000000E+00 0. -1.
         -1   -1    0    0    0  501 -0.00000000000E+00 -0.00000000000E+00 -0.42144005621E+02  0.42144005621E+02  0.00000000000E+00 0.  1.
         25    2    1    2    0    0 -0.27352597291E+02  0.14676664495E+03  0.30598069587E+03  0.36270864001E+03  0.12507900959E+03 0.  0.
          5    1    3    3  502    0  0.48639025616E+02  0.78129771089E+02  0.13770420785E+03  0.16568022574E+03  0.41800000000E+01 0. -1.
         -5    1    3    3    0  502 -0.75991622906E+02  0.68636873865E+02  0.16827648802E+03  0.19702841426E+03  0.41800000000E+01 0. -1.
        -11    1    1    2    0    0  0.46017476158E+02 -0.88571384701E+02  0.21835682837E+03  0.24008790639E+03  0.00000000000E+00 0. -1.
         11    1    1    2    0    0 -0.18664878867E+02 -0.58195260253E+02  0.31747262274E+03  0.32330161182E+03  0.00000000000E+00 0.  1.
</event>
<event>
 7    1  0.2626349E-009  0.1533902E+03  0.7561462E-02  0.1196368E+00
          2   -1    0    0  501    0  0.00000000000E+00  0.00000000000E+00  0.38199776767E+03  0.38199776767E+03  0.00000000000E+00 0. -1.
         -2   -1    0    0    0  501 -0.00000000000E+00 -0.00000000000E+00 -0.82536774259E+02  0.82536774259E+02  0.00000000000E+00 0.  1.
         25    2    1    2    0    0  0.12266315400E+03  0.64936712866E+02  0.16143288442E+03  0.24691995260E+03  0.12508341533E+03 0.  0.
          5    1    3    3  502    0  0.69507064530E+02  0.41391095715E+02  0.16970618709E+03  0.18804817777E+03  0.41800000000E+01 0.  1.
         -5    1    3    3    0  502  0.53156089466E+02  0.23545617151E+02 -0.82733026702E+01  0.58871774828E+02  0.41800000000E+01 0.  1.
        -11    1    1    2    0    0 -0.94983933259E+02  0.20510616243E+01  0.68030165612E+02  0.11685143501E+03  0.00000000000E+00 0. -1.
         11    1    1    2    0    0 -0.27679220738E+02 -0.66987774491E+02  0.69997943375E+02  0.10076315432E+03  0.00000000000E+00 0.  1.
</event>
<event>
 7    1  0.2626349E-009  0.5053825E+02  0.7561462E-02  0.1442460E+00
         -2   -1    0    0    0  501 -0.00000000000E+00  0.00000000000E+00  0.28303908104E+02  0.28303908104E+02  0.00000000000E+00 0. -1.
          2   -1    0    0  501    0  0.00000000000E+00 -0.00000000000E+00 -0.46058595978E+03  0.46058595978E+03  0.00000000000E+00 0.  1.
         25    2    1    2    0    0  0.23743725325E+02  0.13450208792E+02 -0.23914507746E+03  0.27125767395E+03  0.12508271261E+03 0.  0.
          5    1    3    3  502    0 -0.78193184517E+01  0.57267900467E+01 -0.23824973632E+03  0.23848343154E+03  0.41800000000E+01 0.  1.
         -5    1    3    3    0  502  0.31563043777E+02  0.77234187449E+01 -0.89534114331E+00  0.32774242407E+02  0.41800000000E+01 0.  1.
        -11    1    1    2    0    0 -0.23807026802E+01  0.18868570476E+02  0.15940304893E+01  0.19084853425E+02  0.00000000000E+00 0. -1.
         11    1    1    2    0    0 -0.21363022645E+02 -0.32318779267E+02 -0.19473100471E+03  0.19854734051E+03  0.00000000000E+00 0.  1.
</event>
<event>
 7    1  0.2626349E-009  0.1059875E+03  0.7561462E-02  0.1268186E+00
         -3   -1    0    0    0  501 -0.00000000000E+00  0.00000000000E+00  0.41872733966E+02  0.41872733966E+02  0.00000000000E+00 0.  1.
          3   -1    0    0  501    0  0.00000000000E+00 -0.00000000000E+00 -0.34973574733E+03  0.34973574733E+03  0.00000000000E+00 0. -1.
         25    2    1    2    0    0  0.45198385610E+02  0.20955130252E+02 -0.19646131094E+03  0.23817373910E+03  0.12509065415E+03 0.  0.
          5    1    3    3  502    0  0.78757114553E+02  0.19826261716E+02 -0.70114571491E+02  0.10737452809E+03  0.41800000000E+01 0.  1.
         -5    1    3    3    0  502 -0.33558728942E+02  0.11288685364E+01 -0.12634673945E+03  0.13079921101E+03  0.41800000000E+01 0.  1.
        -11    1    1    2    0    0 -0.52006129391E+02  0.19687210669E+02 -0.92882595374E+02  0.10825617895E+03  0.00000000000E+00 0. -1.
         11    1    1    2    0    0  0.68077437806E+01 -0.40642340921E+02 -0.18519107052E+02  0.45178563246E+02  0.00000000000E+00 0.  1.
</event>
<event>
 7    1  0.2626349E-009  0.8286861E+02  0.7561462E-02  0.1321102E+00
          2   -1    0    0  501    0  0.00000000000E+00  0.00000000000E+00  0.64113086798E+02  0.64113086798E+02  0.00000000000E+00 0. -1.
         -2   -1    0    0    0  501 -0.00000000000E+00 -0.00000000000E+00 -0.23316168906E+03  0.23316168906E+03  0.00000000000E+00 0.  1.
         25    2    1    2    0    0 -0.32356292392E+02 -0.45297617075E+02 -0.70729005581E+02  0.15410618254E+03  0.12508924612E+03 0.  0.
          5    1    3    3  502    0  0.20078943880E+02 -0.41281710979E+02 -0.87374093829E+02  0.98787895620E+02  0.41800000000E+01 0.  1.
         -5    1    3    3    0  502 -0.52435236272E+02 -0.40159060962E+01  0.16645088248E+02  0.55318286917E+02  0.41800000000E+01 0.  1.
        -11    1    1    2    0    0  0.12765675009E+02  0.45539307697E+02 -0.47077038974E+01  0.47528449164E+02  0.00000000000E+00 0. -1.
         11    1    1    2    0    0  0.19590617383E+02 -0.24169062221E+00 -0.93611892780E+02  0.95640144153E+02  0.00000000000E+00 0.  1.
</event>
<event>
 7    1  0.2626349E-009  0.1159018E+03  0.7561462E-02  0.1250015E+00
          1   -1    0    0  501    0  0.00000000000E+00  0.00000000000E+00  0.57441711557E+02  0.57441711557E+02  0.00000000000E+00 0. -1.
         -1   -1    0    0    0  501 -0.00000000000E+00 -0.00000000000E+00 -0.26471995518E+03  0.26471995518E+03  0.00000000000E+00 0.  1.
         25    2    1    2    0    0 -0.46146118828E+02 -0.45671485161E+02 -0.79590540190E+02  0.16185615873E+03  0.12508962064E+03 0.  0.
          5    1    3    3  502    0 -0.86611151806E+02 -0.40708849377E+02 -0.72798052537E+02  0.12031513158E+03  0.41800000000E+01 0. -1.
         -5    1    3    3    0  502  0.40465032979E+02 -0.49626357838E+01 -0.67924876527E+01  0.41541027147E+02  0.41800000000E+01 0. -1.
        -11    1    1    2    0    0 -0.14729060173E+02  0.28005507511E+02 -0.58231583783E+02  0.66273456334E+02  0.00000000000E+00 0.  1.
         11    1    1    2    0    0  0.60875179001E+02  0.17665977650E+02 -0.69456119645E+02  0.94032051667E+02  0.00000000000E+00 0. -1.
</event>
<event>
 7    1  0.2626349E-009  0.3322478E+03  0.7561462E-02  0.1070147E+00
         -1   -1    0    0    0  501 -0.00000000000E+00  0.00000000000E+00  0.46425786126E+03  0.46425786126E+03  0.00000000000E+00 0.  1.
          1   -1    0    0  501    0  0.00000000000E+00 -0.00000000000E+00 -0.26245978301E+03  0.26245978301E+03  0.00000000000E+00 0. -1.
         25    2    1    2    0    0 -0.31740090148E+03  0.73928440071E+02  0.41782464296E+02  0.35157158892E+03  0.12509221117E+03 0.  0.
          5    1    3    3  502    0 -0.23506005098E+03  0.84356189921E+02  0.76913715873E+02  0.26134725259E+03  0.41800000000E+01 0. -1.
         -5    1    3    3    0  502 -0.82340850502E+02 -0.10427749849E+02 -0.35131251577E+02  0.90224336327E+02  0.41800000000E+01 0. -1.
        -11    1    1    2    0    0  0.48798361973E+02  0.10781312794E+02 -0.23908927099E+01  0.50032321601E+02  0.00000000000E+00 0. -1.
         11    1    1    2    0    0  0.26860253951E+03 -0.84709752865E+02  0.16240650666E+03  0.32511373374E+03  0.00000000000E+00 0.  1.
</event>
<event>
 7    1  0.2626349E-009  0.1465201E+03  0.7561462E-02  0.1204815E+00
         -2   -1    0    0    0  501 -0.00000000000E+00  0.00000000000E+00  0.38894421364E+02  0.38894421364E+02  0.00000000000E+00 0.  1.
          2   -1    0    0  501    0  0.00000000000E+00 -0.00000000000E+00 -0.72771193717E+03  0.72771193717E+03  0.00000000000E+00 0. -1.
         25    2    1    2    0    0  0.53422670758E+02  0.10161601836E+03 -0.50034373337E+03  0.52836623910E+03  0.12508890506E+03 0.  0.
          5    1    3    3  502    0  0.78404463144E+02  0.52107318262E+02 -0.42135977699E+03  0.43176841769E+03  0.41800000000E+01 0. -1.
         -5    1    3    3    0  502 -0.24981792386E+02  0.49508700093E+02 -0.78983956380E+02  0.96597821410E+02  0.41800000000E+01 0. -1.
        -11    1    1    2    0    0 -0.73878811216E+02 -0.54425557216E+02 -0.98623660356E+02  0.13471023126E+03  0.00000000000E+00 0.  1.
         11    1    1    2    0    0  0.20456140458E+02 -0.47190461139E+02 -0.89850122085E+02  0.10352988817E+03  0.00000000000E+00 0. -1.
</event>
<event>
 7    1  0.2626349E-009  0.1052861E+03  0.7561462E-02  0.1269557E+00
         -4   -1    0    0    0  501 -0.00000000000E+00  0.00000000000E+00  0.40195172025E+03  0.40195172025E+03  0.00000000000E+00 0.  1.
          4   -1    0    0  501    0  0.00000000000E+00 -0.00000000000E+00 -0.37944085620E+02  0.37944085620E+02  0.00000000000E+00 0. -1.
         25    2    1    2    0    0 -0.60855696164E+02  0.56573794107E+01  0.22991681011E+03  0.26878384009E+03  0.12509033305E+03 0.  0.
          5    1    3    3  502    0 -0.86202149136E+02 -0.16449249092E+02  0.21401649924E+03  0.23134805523E+03  0.41800000000E+01 0. -1.
         -5    1    3    3    0  502  0.25346452971E+02  0.22106628503E+02  0.15900310867E+02  0.37435784854E+02  0.41800000000E+01 0. -1.
        -11    1    1    2    0    0  0.38727253847E+02 -0.34913485599E+02  0.28697023439E+02  0.59516979270E+02  0.00000000000E+00 0. -1.
         11    1    1    2    0    0  0.22128442317E+02  0.29256106188E+02  0.10539380108E+03  0.11159498651E+03  0.00000000000E+00 0.  1.
</event>
<event>
 7    1  0.2626349E-009  0.8982082E+02  0.7561462E-02  0.1303286E+00
         -2   -1    0    0    0  501 -0.00000000000E+00  0.00000000000E+00  0.13463926886E+03  0.13463926886E+03  0.00000000000E+00 0.  1.
          2   -1    0    0  501    0  0.00000000000E+00 -0.00000000000E+00 -0.12156824982E+03  0.12156824982E+03  0.00000000000E+00 0. -1.
         25    2    1    2    0    0  0.14491115453E+02 -0.22967364799E+02 -0.54806983615E+02  0.13924215510E+03  0.12508828895E+03 0.  0.
          5    1    3    3  502    0 -0.19227257662E+02 -0.68398415692E+02 -0.33214492185E+02  0.78541107692E+02  0.41800000000E+01 0. -1.
         -5    1    3    3    0  502  0.33718373115E+02  0.45431050893E+02 -0.21592491430E+02  0.60701047412E+02  0.41800000000E+01 0. -1.
        -11    1    1    2    0    0 -0.88615990440E+01 -0.12779374139E+02 -0.17992265480E+02  0.23781546587E+02  0.00000000000E+00 0. -1.
         11    1    1    2    0    0 -0.56295164086E+01  0.35746738938E+02  0.85870268128E+02  0.93183816986E+02  0.00000000000E+00 0.  1.
</event>
<event>
 7    1  0.2920436E-009  0.1025059E+03  0.7561462E-02  0.1275113E+00
         -1   -1    0    0    0  501 -0.00000000000E+00  0.00000000000E+00  0.98699119030E+02  0.98699119030E+02  0.00000000000E+00 0.  1.
          1   -1    0    0  501    0  0.00000000000E+00 -0.00000000000E+00 -0.13720827069E+03  0.13720827069E+03  0.00000000000E+00 0. -1.
         25    2    1    2    0    0  0.20329278802E+02 -0.16686471200E+02  0.11356718689E+02  0.12832837328E+03  0.12508988141E+03 0.  0.
          5    1    3    3  502    0 -0.91663940777E+00  0.46683928788E+02  0.33695733452E+02  0.57733043292E+02  0.41800000000E+01 0.  1.
         -5    1    3    3    0  502  0.21245918210E+02 -0.63370399988E+02 -0.22339014763E+02  0.70595329986E+02  0.41800000000E+01 0.  1.
        -11    1    1    2    0    0  0.32815209912E+02 -0.60366494998E+01 -0.36302637356E+01  0.33562746514E+02  0.00000000000E+00 0.  1.
         11    1    1    2    0    0 -0.53144488715E+02  0.22723120700E+02 -0.46235606615E+02  0.74016269929E+02  0.00000000000E+00 0. -1.
</event>
<event>
 7    1  0.2626349E-009  0.1138941E+03  0.7561462E-02  0.1253524E+00
         -2   -1    0    0    0  501 -0.00000000000E+00  0.00000000000E+00  0.22765238562E+03  0.22765238562E+03  0.00000000000E+00 0.  1.
          2   -1    0    0  501    0  0.00000000000E+00 -0.00000000000E+00 -0.73823082791E+02  0.73823082791E+02  0.00000000000E+00 0. -1.
         25    2    1    2    0    0 -0.90711144692E+01 -0.69238961252E+02  0.94137849001E+02  0.17142249219E+03  0.12508963723E+03 0.  0.
          5    1    3    3  502    0 -0.48244824815E+02 -0.44192578974E+02  0.10472526130E+03  0.12355322704E+03  0.41800000000E+01 0.  1.
         -5    1    3    3    0  502  0.39173710346E+02 -0.25046382279E+02 -0.10587412295E+02  0.47869265157E+02  0.41800000000E+01 0.  1.
        -11    1    1    2    0    0 -0.33941043220E+02  0.63699605175E+02  0.37360782911E+02  0.81273994697E+02  0.00000000000E+00 0.  1.
         11    1    1    2    0    0  0.43012157689E+02  0.55393560773E+01  0.22330670921E+02  0.48778981525E+02  0.00000000000E+00 0. -1.
</event>
<event>
 7    1  0.2626349E-009  0.9372495E+02  0.7561462E-02  0.1294074E+00
         -2   -1    0    0    0  501 -0.00000000000E+00  0.00000000000E+00  0.75790229660E+02  0.75790229660E+02  0.00000000000E+00 0.  1.
          2   -1    0    0  501    0  0.00000000000E+00 -0.00000000000E+00 -0.16814877630E+03  0.16814877630E+03  0.00000000000E+00 0. -1.
         25    2    1    2    0    0 -0.36310081870E+01  0.46011706787E+02 -0.42819413677E+02  0.14003532707E+03  0.12508448848E+03 0.  0.
          5    1    3    3  502    0  0.39521080672E+02  0.53296049795E+02 -0.63065278183E+02  0.91635617821E+02  0.41800000000E+01 0.  1.
         -5    1    3    3    0  502 -0.43152088859E+02 -0.72843430071E+01  0.20245864505E+02  0.48399709251E+02  0.41800000000E+01 0.  1.
        -11    1    1    2    0    0  0.15314488254E+02  0.10970552698E+02 -0.40989174752E+02  0.45110963455E+02  0.00000000000E+00 0. -1.
         11    1    1    2    0    0 -0.11683480067E+02 -0.56982259485E+02 -0.85499582089E+01  0.58792715432E+02  0.00000000000E+00 0.  1.
</event>
<event>
 7    1  0.2626349E-009  0.1633690E+03  0.7561462E-02  0.1184945E+00
         -1   -1    0    0    0  501 -0.00000000000E+00  0.00000000000E+00  0.86501581685E+03  0.86501581685E+03  0.00000000000E+00 0.  1.
          1   -1    0    0  501    0  0.00000000000E+00 -0.00000000000E+00 -0.34462980068E+02  0.34462980068E+02  0.00000000000E+00 0. -1.
         25    2    1    2    0    0  0.29416953179E+02 -0.11972527924E+03  0.29879001765E+03  0.34658661377E+03  0.12508919449E+03 0.  0.
          5    1    3    3  502    0 -0.48917481559E+02 -0.54372353505E+02  0.13442215466E+03  0.15308840874E+03  0.41800000000E+01 0.  1.
         -5    1    3    3    0  502  0.78334434738E+02 -0.65352925735E+02  0.16436786299E+03  0.19349820504E+03  0.41800000000E+01 0.  1.
        -11    1    1    2    0    0  0.86759947770E+00  0.12106113268E+03  0.42765762457E+03  0.44446326555E+03  0.00000000000E+00 0.  1.
         11    1    1    2    0    0 -0.30284552657E+02 -0.13358534389E+01  0.10410519456E+03  0.10842891759E+03  0.00000000000E+00 0. -1.
</event>
<event>
 7    1  0.2626349E-009  0.1315728E+03  0.7561462E-02  0.1225141E+00
          1   -1    0    0  501    0  0.00000000000E+00  0.00000000000E+00  0.21866356222E+03  0.21866356222E+03  0.00000000000E+00 0. -1.
         -1   -1    0    0    0  501 -0.00000000000E+00 -0.00000000000E+00 -0.95366088161E+02  0.95366088161E+02  0.00000000000E+00 0.  1.
         25    2    1    2    0    0 -0.76867594376E+02  0.17820171074E+02  0.12869996975E+03  0.19605616140E+03  0.12509256830E+03 0.  0.
          5    1    3    3  502    0  0.39680465855E+01 -0.43961642593E+02  0.25838973108E+02  0.51317602677E+02  0.41800000000E+01 0. -1.
         -5    1    3    3    0  502 -0.80835640962E+02  0.61781813667E+02  0.10286099664E+03  0.14473855872E+03  0.41800000000E+01 0. -1.
        -11    1    1    2    0    0  0.57241795197E+02  0.30475617684E+02  0.41203511743E+01  0.64979717485E+02  0.00000000000E+00 0. -1.
         11    1    1    2    0    0  0.19625799179E+02 -0.48295788758E+02 -0.95228468684E+01  0.52993771499E+02  0.00000000000E+00 0.  1.
</event>
<event>
 7    1  0.2626349E-009  0.2824652E+03  0.7561462E-02  0.1094350E+00
         -2   -1    0    0    0  501 -0.00000000000E+00  0.00000000000E+00  0.20555371126E+03  0.20555371126E+03  0.00000000000E+00 0.  1.
          2   -1    0    0  501    0  0.00000000000E+00 -0.00000000000E+00 -0.43830897637E+03  0.43830897637E+03  0.00000000000E+00 0. -1.
         25    2    1    2    0    0  0.98198797332E+02  0.25799993226E+03 -0.16653765327E+03  0.34581783816E+03  0.12509283906E+03 0.  0.
          5    1    3    3  502    0  0.74349399660E+01  0.13408035855E+03 -0.13195286761E+03  0.18831317679E+03  0.41800000000E+01 0. -1.
         -5    1    3    3    0  502  0.90763857366E+02  0.12391957371E+03 -0.34584785660E+02  0.15750466137E+03  0.41800000000E+01 0. -1.
        -11    1    1    2    0    0 -0.69922483142E+02 -0.20848929293E+03 -0.13377628344E+02  0.22030864680E+03  0.00000000000E+00 0.  1.
         11    1    1    2    0    0 -0.28276314191E+02 -0.49510639330E+02 -0.52839983489E+02  0.77736202674E+02  0.00000000000E+00 0. -1.
</event>
<event>
 7    1  0.2626349E-009  0.1565617E+03  0.7561462E-02  0.1192634E+00
         -2   -1    0    0    0  501 -0.00000000000E+00  0.00000000000E+00  0.16995838157E+03  0.16995838157E+03  0.00000000000E+00 0.  1.
          2   -1    0    0  501    0  0.00000000000E+00 -0.00000000000E+00 -0.16046754153E+03  0.16046754153E+03  0.00000000000E+00 0. -1.
         25    2    1    2    0    0 -0.36715459243E+02 -0.10718859446E+03  0.56406127437E+02  0.17795008847E+03  0.12508862076E+03 0.  0.
          5    1    3    3  502    0 -0.75175592708E+02 -0.10587782959E+03  0.46543871857E+02  0.13800467001E+03  0.41800000000E+01 0.  1.
         -5    1    3    3    0  502  0.38460133465E+02 -0.13107648748E+01  0.98622555799E+01  0.39945418459E+02  0.41800000000E+01 0.  1.
        -11    1    1    2    0    0 -0.27521374361E+02  0.55854465122E+02 -0.13478650801E+02  0.63708879666E+02  0.00000000000E+00 0.  1.
         11    1    1    2    0    0  0.64236833604E+02  0.51334129342E+02 -0.33436636589E+02  0.88766954962E+02  0.00000000000E+00 0. -1.
</event>
<event>
 7    1  0.2626349E-009  0.1285993E+03  0.7561462E-02  0.1229549E+00
          2   -1    0    0  501    0  0.00000000000E+00  0.00000000000E+00  0.37103068174E+03  0.37103068174E+03  0.00000000000E+00 0.  1.
         -2   -1    0    0    0  501 -0.00000000000E+00 -0.00000000000E+00 -0.52110176399E+02  0.52110176399E+02  0.00000000000E+00 0. -1.
         25    2    1    2    0    0  0.84370084021E+02 -0.64285478456E+01  0.20196604749E+03  0.25218224050E+03  0.12508381503E+03 0.  0.
          5    1    3    3  502    0 -0.97353811570E+01  0.43047905479E+02  0.52540878861E+02  0.68745299213E+02  0.41800000000E+01 0.  1.
         -5    1    3    3    0  502  0.94105465178E+02 -0.49476453325E+02  0.14942516863E+03  0.18343694129E+03  0.41800000000E+01 0.  1.
        -11    1    1    2    0    0  0.10536935605E+02  0.47113862416E+01 -0.79962644877E+01  0.14041524776E+02  0.00000000000E+00 0.  1.
         11    1    1    2    0    0 -0.94907019627E+02  0.17171616040E+01  0.12495072234E+03  0.15691709286E+03  0.00000000000E+00 0. -1.
</event>
<event>
 7    1  0.2840784E-009  0.1050413E+03  0.7561462E-02  0.1270038E+00
          2   -1    0    0  501    0  0.00000000000E+00  0.00000000000E+00  0.89236525569E+03  0.89236525569E+03  0.00000000000E+00 0.  1.
         -2   -1    0    0    0  501 -0.00000000000E+00 -0.00000000000E+00 -0.15399414230E+02  0.15399414230E+02  0.00000000000E+00 0. -1.
         25    2    1    2    0    0 -0.32546325213E+02 -0.24547710915E+02  0.42467558416E+03  0.44458835535E+03  0.12509036947E+03 0.  0.
          5    1    3    3  502    0 -0.30872409962E+02 -0.63724556893E+02  0.13750118190E+03  0.15471901070E+03  0.41800000000E+01 0. -1.
         -5    1    3    3    0  502 -0.16739152509E+01  0.39176845978E+02  0.28717440226E+03  0.28986934465E+03  0.41800000000E+01 0. -1.
        -11    1    1    2    0    0  0.64549993567E+02  0.14343234301E+02  0.28932458424E+03  0.29678467799E+03  0.00000000000E+00 0. -1.
         11    1    1    2    0    0 -0.32003668354E+02  0.10204476614E+02  0.16296567306E+03  0.16639163659E+03  0.00000000000E+00 0.  1.
</event>
<event>
 7    1  0.2626349E-009  0.1151357E+03  0.7561462E-02  0.1251344E+00
          2   -1    0    0  501    0  0.00000000000E+00  0.00000000000E+00  0.92380963494E+03  0.92380963494E+03  0.00000000000E+00 0. -1.
         -2   -1    0    0    0  501 -0.00000000000E+00 -0.00000000000E+00 -0.15480256163E+02  0.15480256163E+02  0.00000000000E+00 0.  1.
         25    2    1    2    0    0 -0.23262519190E+02 -0.49349689999E+02  0.50452665879E+03  0.52265794113E+03  0.12509051641E+03 0.  0.
          5    1    3    3  502    0  0.35791929229E+02 -0.58896217504E+02  0.35314589936E+03  0.35983235717E+03  0.41800000000E+01 0. -1.
         -5    1    3    3    0  502 -0.59054448419E+02  0.95465275049E+01  0.15138075943E+03  0.16282558396E+03  0.41800000000E+01 0. -1.
        -11    1    1    2    0    0  0.55414736601E+02  0.24338552837E+02  0.20746821199E+03  0.21611621219E+03  0.00000000000E+00 0.  1.
         11    1    1    2    0    0 -0.32152217410E+02  0.25011137162E+02  0.19633450800E+03  0.20051573778E+03  0.00000000000E+00 0. -1.
</event>
<event>
 7    1  0.2626349E-009  0.1022284E+03  0.7561462E-02  0.1275679E+00
          1   -1    0    0  501    0  0.00000000000E+00  0.00000000000E+00  0.44934752036E+03  0.44934752036E+03  0.00000000000E+00 0. -1.
         -1   -1    0    0    0  501 -0.00000000000E+00 -0.00000000000E+00 -0.27392402255E+02  0.27392402255E+02  0.00000000000E+00 0.  1.
         25    2    1    2    0    0  0.13306003248E+02  0.45567680755E+01  0.19478009454E+03  0.23191480251E+03  0.12508947412E+03 0.  0.
          5    1    3    3  502    0 -0.48670882737E+02  0.18889635801E+02  0.13384157832E+03  0.14372443652E+03  0.41800000000E+01 0.  1.
         -5    1    3    3    0  502  0.61976885985E+02 -0.14332867726E+02  0.60938516224E+02  0.88190365989E+02  0.41800000000E+01 0.  1.
        -11    1    1    2    0    0 -0.44232383756E+02 -0.25429164966E+02  0.99622211266E+02  0.11192734778E+03  0.00000000000E+00 0. -1.
         11    1    1    2    0    0  0.30926380508E+02  0.20872396891E+02  0.12755281229E+03  0.13289777232E+03  0.00000000000E+00 0.  1.
</event>
<event>
 7    1  0.2626349E-009  0.6605400E+02  0.7561462E-02  0.1374050E+00
          2   -1    0    0  501    0  0.00000000000E+00  0.00000000000E+00  0.22357843703E+04  0.22357843703E+04  0.00000000000E+00 0. -1.
         -2   -1    0    0    0  501 -0.00000000000E+00 -0.00000000000E+00 -0.12763576979E+02  0.12763576979E+02  0.00000000000E+00 0.  1.
         25    2    1    2    0    0 -0.12499853949E+02 -0.13676258512E+02  0.20330725940E+04  0.20370014281E+04  0.12508940420E+03 0.  0.
          5    1    3    3  502    0  0.20058700585E+02  0.13951308054E+01  0.18640186713E+04  0.18641318025E+04  0.41800000000E+01 0. -1.
         -5    1    3    3    0  502 -0.32558554535E+02 -0.15071389317E+02  0.16905392272E+03  0.17286962554E+03  0.41800000000E+01 0. -1.
        -11    1    1    2    0    0 -0.27672042790E+02  0.20844221195E+02  0.28024123770E+02  0.44559791544E+02  0.00000000000E+00 0.  1.
         11    1    1    2    0    0  0.40171896739E+02 -0.71679626827E+01  0.16192407554E+03  0.16698672767E+03  0.00000000000E+00 0. -1.
</event>
<event>
 7    1  0.2626349E-009  0.7370480E+02  0.7561462E-02  0.1347929E+00
          4   -1    0    0  501    0  0.00000000000E+00  0.00000000000E+00  0.91013822353E+02  0.91013822353E+02  0.00000000000E+00 0. -1.
         -4   -1    0    0    0  501 -0.00000000000E+00 -0.00000000000E+00 -0.14909670935E+03  0.14909670935E+03  0.00000000000E+00 0.  1.
         25    2    1    2    0    0  0.24144464331E+02  0.33854144351E+02 -0.19228576866E+02  0.13321641293E+03  0.12509123174E+03 0.  0.
          5    1    3    3  502    0  0.32864052573E+02  0.40693055699E+02  0.44251219414E+02  0.68641194287E+02  0.41800000000E+01 0. -1.
         -5    1    3    3    0  502 -0.87195882412E+01 -0.68389113473E+01 -0.63479796280E+02  0.64575218647E+02  0.41800000000E+01 0. -1.
        -11    1    1    2    0    0 -0.48864418463E+02 -0.31771275543E+02  0.28660338710E+01  0.58355458112E+02  0.00000000000E+00 0. -1.
         11    1    1    2    0    0  0.24719954131E+02 -0.20828688085E+01 -0.41720344003E+02  0.48538660658E+02  0.00000000000E+00 0.  1.
</event>
<event>
 7    1  0.2626349E-009  0.1139209E+03  0.7561462E-02  0.1253476E+00
          4   -1    0    0  501    0  0.00000000000E+00  0.00000000000E+00  0.24362869246E+03  0.24362869246E+03  0.00000000000E+00 0. -1.
         -4   -1    0    0    0  501 -0.00000000000E+00 -0.00000000000E+00 -0.12719132046E+03  0.12719132046E+03  0.00000000000E+00 0.  1.
         25    2    1    2    0    0  0.50558040395E+02  0.10654479446E+02 -0.73221828021E+02  0.15387848884E+03  0.12509004695E+03 0.  0.
          5    1    3    3  502    0  0.86628195007E+02  0.29234945910E+02 -0.35024541296E+02  0.97996515885E+02  0.41800000000E+01 0. -1.
         -5    1    3    3    0  502 -0.36070154612E+02 -0.18580466463E+02 -0.38197286725E+02  0.55881972951E+02  0.41800000000E+01 0. -1.
        -11    1    1    2    0    0 -0.66399741846E+02  0.12408499336E+02  0.84810776087E+02  0.10842400248E+03  0.00000000000E+00 0.  1.
         11    1    1    2    0    0  0.15841701450E+02 -0.23062978782E+02  0.10484842393E+03  0.10851752161E+03  0.00000000000E+00 0. -1.
</event>
<event>
 7    1  0.2626349E-009  0.1249260E+03  0.7561462E-02  0.1235185E+00
          1   -1    0    0  501    0  0.00000000000E+00  0.00000000000E+00  0.93559746404E+03  0.93559746404E+03  0.00000000000E+00 0. -1.
         -1   -1    0    0    0  501 -0.00000000000E+00 -0.00000000000E+00 -0.28875183032E+02  0.28875183032E+02  0.00000000000E+00 0.  1.
         25    2    1    2    0    0  0.10940891016E+01 -0.80715945745E+02  0.75649009655E+03  0.77100124066E+03  0.12509750597E+03 0.  0.
          5    1    3    3  502    0 -0.51327441692E+02 -0.79745827438E+02  0.53458349467E+03  0.54294648764E+03  0.41800000000E+01 0. -1.
         -5    1    3    3    0  502  0.52421530794E+02 -0.97011830643E+00  0.22190660188E+03  0.22805475303E+03  0.41800000000E+01 0. -1.
        -11    1    1    2    0    0  0.20835542229E+02  0.23702897299E+01 -0.17922780324E+01  0.21046385769E+02  0.00000000000E+00 0.  1.
         11    1    1    2    0    0 -0.21929631331E+02  0.78345656015E+02  0.15202446250E+03  0.17242502064E+03  0.00000000000E+00 0. -1.
</event>
<event>
 7    1  0.2626349E-009  0.1273034E+03  0.7561462E-02  0.1231513E+00
          1   -1    0    0  501    0  0.00000000000E+00  0.00000000000E+00  0.89699912442E+02  0.89699912442E+02  0.00000000000E+00 0. -1.
         -1   -1    0    0    0  501 -0.00000000000E+00 -0.00000000000E+00 -0.21067489499E+03  0.21067489499E+03  0.00000000000E+00 0.  1.
         25    2    1    2    0    0  0.65087400310E+02  0.23416640425E+02 -0.13581816668E+02  0.14357922460E+03  0.12508324933E+03 0.  0.
          5    1    3    3  502    0  0.86558992092E+01  0.69331209873E+02 -0.44027556710E+01  0.70132716410E+02  0.41800000000E+01 0.  1.
         -5    1    3    3    0  502  0.56431501101E+02 -0.45914569448E+02 -0.91790609966E+01  0.73446508187E+02  0.41800000000E+01 0.  1.
        -11    1    1    2    0    0 -0.85430582829E+02 -0.72141328396E+01 -0.67245688979E+02  0.10896059325E+03  0.00000000000E+00 0. -1.
         11    1    1    2    0    0  0.20343182518E+02 -0.16202507585E+02 -0.40147476897E+02  0.47834989581E+02  0.00000000000E+00 0.  1.
</event>
<event>
 7    1  0.2626349E-009  0.5827346E+02  0.7561462E-02  0.1405223E+00
          2   -1    0    0  501    0  0.00000000000E+00  0.00000000000E+00  0.16406837850E+04  0.16406837850E+04  0.00000000000E+00 0. -1.
         -2   -1    0    0    0  501 -0.00000000000E+00 -0.00000000000E+00 -0.10935879300E+02  0.10935879300E+02  0.00000000000E+00 0.  1.
         25    2    1    2    0    0  0.14174140882E+02 -0.23097559400E+02  0.13406456712E+04  0.13467426244E+04  0.12510186741E+03 0.  0.
          5    1    3    3  502    0  0.40252754854E+00 -0.69974058350E+01  0.26609364779E+01  0.85836297559E+01  0.41800000000E+01 0. -1.
         -5    1    3    3    0  502  0.13771613334E+02 -0.16100153565E+02  0.13379847347E+04  0.13381589946E+04  0.41800000000E+01 0. -1.
        -11    1    1    2    0    0  0.13793603342E+02 -0.26486705000E+02  0.43504756468E+02  0.52768104668E+02  0.00000000000E+00 0.  1.
         11    1    1    2    0    0 -0.27967744225E+02  0.49584264400E+02  0.24559747807E+03  0.25210893524E+03  0.00000000000E+00 0. -1.
</event>
<event>
 7    1  0.2626349E-009  0.6151471E+02  0.7561462E-02  0.1391583E+00
         -1   -1    0    0    0  501 -0.00000000000E+00  0.00000000000E+00  0.55785878861E+02  0.55785878861E+02  0.00000000000E+00 0.  1.
          1   -1    0    0  501    0  0.00000000000E+00 -0.00000000000E+00 -0.25555702199E+03  0.25555702199E+03  0.00000000000E+00 0. -1.
         25    2    1    2    0    0 -0.36479860262E+02 -0.19810178431E+02 -0.13714570433E+03  0.19021337088E+03  0.12509579877E+03 0.  0.
          5    1    3    3  502    0 -0.27398655573E+02 -0.17452994865E+02  0.16188618828E+02  0.36535423037E+02  0.41800000000E+01 0. -1.
         -5    1    3    3    0  502 -0.90812046892E+01 -0.23571835661E+01 -0.15333432316E+03  0.15367794784E+03  0.41800000000E+01 0. -1.
        -11    1    1    2    0    0  0.42891032490E+02 -0.14365885190E+02  0.45770662360E+01  0.45463929226E+02  0.00000000000E+00 0.  1.
         11    1    1    2    0    0 -0.64111722274E+01  0.34176063621E+02 -0.67202505032E+02  0.75665600748E+02  0.00000000000E+00 0. -1.
</event>
<event>
 7    1  0.2626349E-009  0.9518607E+02  0.7561462E-02  0.1290758E+00
         -2   -1    0    0    0  501 -0.00000000000E+00  0.00000000000E+00  0.49848378797E+03  0.49848378797E+03  0.00000000000E+00 0.  1.
          2   -1    0    0  501    0  0.00000000000E+00 -0.00000000000E+00 -0.43271977132E+02  0.43271977132E+02  0.00000000000E+00 0. -1.
         25    2    1    2    0    0 -0.86840648656E+02  0.16065692433E+02  0.32563509491E+03  0.35984000849E+03  0.12508881621E+03 0.  0.
          5    1    3    3  502    0 -0.47914227377E+02 -0.13458200317E+02  0.26165698258E+02  0.56382732341E+02  0.41800000000E+01 0. -1.
         -5    1    3    3    0  502 -0.38926421279E+02  0.29523892750E+02  0.29946939665E+03  0.30345727615E+03  0.41800000000E+01 0. -1.
        -11    1    1    2    0    0  0.75804609517E+02 -0.53209865536E+01  0.14270537147E+03  0.16167706939E+03  0.00000000000E+00 0.  1.
         11    1    1    2    0    0  0.11036039139E+02 -0.10744705880E+02 -0.13128655536E+02  0.20238687223E+02  0.00000000000E+00 0. -1.
</event>
<event>
 7    1  0.2626349E-009  0.7007422E+02  0.7561462E-02  0.1359841E+00
         -2   -1    0    0    0  501 -0.00000000000E+00  0.00000000000E+00  0.20373180103E+02  0.20373180103E+02  0.00000000000E+00 0. -1.
          2   -1    0    0  501    0  0.00000000000E+00 -0.00000000000E+00 -0.89166068034E+03  0.89166068034E+03  0.00000000000E+00 0.  1.
         25    2    1    2    0    0  0.31805979030E+01  0.17580554498E+01 -0.75045670356E+03  0.76081919685E+03  0.12508948566E+03 0.  0.
          5    1    3    3  502    0  0.22411032178E+02  0.26376083675E+02 -0.70291700701E+03  0.70378103363E+03  0.41800000000E+01 0. -1.
         -5    1    3    3    0  502 -0.19230434275E+02 -0.24618028226E+02 -0.47539696553E+02  0.57038163228E+02  0.41800000000E+01 0. -1.
        -11    1    1    2    0    0  0.32260494013E+02 -0.15456477054E+02 -0.10339613961E+03  0.10940934075E+03  0.00000000000E+00 0.  1.
         11    1    1    2    0    0 -0.35441091916E+02  0.13698421604E+02 -0.17434657069E+02  0.41805322840E+02  0.00000000000E+00 0. -1.
</event>
<event>
 7    1  0.2626349E-009  0.3749849E+03  0.7561462E-02  0.1052803E+00
         -2   -1    0    0    0  501 -0.00000000000E+00  0.00000000000E+00  0.85278326443E+02  0.85278326443E+02  0.00000000000E+00 0.  1.
          2   -1    0    0  501    0  0.00000000000E+00 -0.00000000000E+00 -0.16607806734E+04  0.16607806734E+04  0.00000000000E+00 0. -1.
         25    2    1    2    0    0 -0.23164685849E+03  0.27562704063E+03 -0.79502638988E+03  0.88167321408E+03  0.12510061250E+03 0.  0.
          5    1    3    3  502    0 -0.16076415019E+03  0.97837892366E+02 -0.35548704240E+03  0.40225100979E+03  0.41800000000E+01 0. -1.
         -5    1    3    3    0  502 -0.70882708299E+02  0.17778914826E+03 -0.43953934748E+03  0.47942220428E+03  0.41800000000E+01 0. -1.
        -11    1    1    2    0    0  0.21118309347E+03 -0.19618159403E+03 -0.57693910786E+03  0.64493740082E+03  0.00000000000E+00 0. -1.
         11    1    1    2    0    0  0.20463765021E+02 -0.79445446596E+02 -0.20353684927E+03  0.21944838499E+03  0.00000000000E+00 0.  1.
</event>
<event>
 7    1  0.2626349E-009  0.1592038E+03  0.7561462E-02  0.1189599E+00
         -2   -1    0    0    0  501 -0.00000000000E+00  0.00000000000E+00  0.13942128044E+02  0.13942128044E+02  0.00000000000E+00 0.  1.
          2   -1    0    0  501    0  0.00000000000E+00 -0.00000000000E+00 -0.21349076502E+04  0.21349076502E+04  0.00000000000E+00 0. -1.
         25    2    1    2    0    0 -0.45584087826E+02 -0.11207402887E+03 -0.15416509822E+04  0.15514424198E+04  0.12508930373E+03 0.  0.
          5    1    3    3  502    0 -0.35963446759E+02 -0.13930539939E+03 -0.12167695879E+04  0.12252530622E+04  0.41800000000E+01 0.  1.
         -5    1    3    3    0  502 -0.96206410671E+01  0.27231370518E+02 -0.32488139426E+03  0.32618935760E+03  0.41800000000E+01 0.  1.
        -11    1    1    2    0    0  0.63515091308E+02  0.11029159635E+03 -0.52384500952E+03  0.53908440624E+03  0.00000000000E+00 0.  1.
         11    1    1    2    0    0 -0.17931003482E+02  0.17824325179E+01 -0.55469530406E+02  0.58322952214E+02  0.00000000000E+00 0. -1.
</event>
<event>
 7    1  0.2626349E-009  0.2766916E+03  0.7561462E-02  0.1097510E+00
          2   -1    0    0  501    0  0.00000000000E+00  0.00000000000E+00  0.58426246897E+03  0.58426246897E+03  0.00000000000E+00 0. -1.
         -2   -1    0    0    0  501 -0.00000000000E+00 -0.00000000000E+00 -0.16658039608E+03  0.16658039608E+03  0.00000000000E+00 0.  1.
         25    2    1    2    0    0 -0.18770094933E+03  0.18189385908E+03  0.54766285286E+02  0.29489676064E+03  0.12509089130E+03 0.  0.
          5    1    3    3  502    0  0.87796674779E+01  0.25836279176E+02  0.32970887460E+02  0.43001717438E+02  0.41800000000E+01 0. -1.
         -5    1    3    3    0  502 -0.19648061681E+03  0.15605757990E+03  0.21795397826E+02  0.25189504321E+03  0.41800000000E+01 0. -1.
        -11    1    1    2    0    0  0.34247336510E+01 -0.45342372390E+02  0.45388774910E+02  0.64247960453E+02  0.00000000000E+00 0.  1.
         11    1    1    2    0    0  0.18427621568E+03 -0.13655148669E+03  0.31752701269E+03  0.39169814395E+03  0.00000000000E+00 0. -1.
</event>
<event>
 7    1  0.2626349E-009  0.3302096E+03  0.7561462E-02  0.1071044E+00
         -1   -1    0    0    0  501 -0.00000000000E+00  0.00000000000E+00  0.28220835570E+03  0.28220835570E+03  0.00000000000E+00 0.  1.
          1   -1    0    0  501    0  0.00000000000E+00 -0.00000000000E+00 -0.40993220197E+03  0.40993220197E+03  0.00000000000E+00 0. -1.
         25    2    1    2    0    0  0.11729384007E+03  0.30168990033E+03 -0.67328897050E+02  0.35348464340E+03  0.12507426538E+03 0.  0.
          5    1    3    3  502    0  0.16717411105E+02  0.10787395868E+03  0.31607030856E+02  0.11372220361E+03  0.41800000000E+01 0.  1.
         -5    1    3    3    0  502  0.10057642897E+03  0.19381594165E+03 -0.98935927906E+02  0.23976243979E+03  0.41800000000E+01 0.  1.
        -11    1    1    2    0    0 -0.61825787178E+02 -0.24797268993E+03 -0.53749430384E+02  0.26115490456E+03  0.00000000000E+00 0. -1.
         11    1    1    2    0    0 -0.55468052893E+02 -0.53717210400E+02 -0.66455188353E+01  0.77501009706E+02  0.00000000000E+00 0.  1.
</event>
<event>
 7    1  0.2626349E-009  0.1978217E+03  0.7561462E-02  0.1151590E+00
          3   -1    0    0  501    0  0.00000000000E+00  0.00000000000E+00  0.16207292322E+03  0.16207292322E+03  0.00000000000E+00 0. -1.
         -3   -1    0    0    0  501 -0.00000000000E+00 -0.00000000000E+00 -0.29029908544E+03  0.29029908544E+03  0.00000000000E+00 0.  1.
         25    2    1    2    0    0  0.15697448936E+03 -0.81797376479E+02  0.27945658413E+01  0.21676495301E+03  0.12508970440E+03 0.  0.
          5    1    3    3  502    0  0.17739430356E+03 -0.68493107533E+02  0.11496620270E+02  0.19055101520E+03  0.41800000000E+01 0. -1.
         -5    1    3    3    0  502 -0.20419814204E+02 -0.13304268947E+02 -0.87020544283E+01  0.26213937812E+02  0.41800000000E+01 0. -1.
        -11    1    1    2    0    0 -0.56763944425E+02  0.10501289146E+02 -0.25863837284E+01  0.57785048596E+02  0.00000000000E+00 0.  1.
         11    1    1    2    0    0 -0.10021054493E+03  0.71296087333E+02 -0.12843434433E+03  0.17782200705E+03  0.00000000000E+00 0. -1.
</event>
<event>
 7    1  0.2626349E-009  0.1634244E+03  0.7561462E-02  0.1184884E+00
          2   -1    0    0  501    0  0.00000000000E+00  0.00000000000E+00  0.13554977129E+03  0.13554977129E+03  0.00000000000E+00 0. -1.
         -2   -1    0    0    0  501 -0.00000000000E+00 -0.00000000000E+00 -0.29249704838E+03  0.29249704838E+03  0.00000000000E+00 0.  1.
         25    2    1    2    0    0 -0.12035562459E+03  0.99790960175E+02 -0.14522844266E+03  0.24734759653E+03  0.12508325568E+03 0.  0.
          5    1    3    3  502    0 -0.72570823466E+02  0.16740196781E+02 -0.13050133184E+03  0.15031576304E+03  0.41800000000E+01 0.  1.
         -5    1    3    3    0  502 -0.47784801121E+02  0.83050763394E+02 -0.14727110820E+02  0.97031833497E+02  0.41800000000E+01 0.  1.
        -11    1    1    2    0    0  0.33472726258E+02 -0.28258647201E+02 -0.45536797419E+02  0.63186821917E+02  0.00000000000E+00 0.  1.
         11    1    1    2    0    0  0.86882898330E+02 -0.71532312974E+02  0.33817962984E+02  0.11751240123E+03  0.00000000000E+00 0. -1.
</event>
<event>
 7    1  0.2626349E-009  0.1207057E+03  0.7561462E-02  0.1241937E+00
          1   -1    0    0  501    0  0.00000000000E+00  0.00000000000E+00  0.17652134142E+02  0.17652134142E+02  0.00000000000E+00 0. -1.
         -1   -1    0    0    0  501 -0.00000000000E+00 -0.00000000000E+00 -0.11398481450E+04  0.11398481450E+04  0.00000000000E+00 0.  1.
         25    2    1    2    0    0  0.39776859277E+01  0.72652638464E+02 -0.82835616632E+03  0.84090159809E+03  0.12508929424E+03 0.  0.
          5    1    3    3  502    0  0.19279059516E+01 -0.32706002104E+02 -0.11019601390E+03  0.11503926840E+03  0.41800000000E+01 0. -1.
         -5    1    3    3    0  502  0.20497799762E+01  0.10535864057E+03 -0.71816015242E+03  0.72586232969E+03  0.41800000000E+01 0. -1.
        -11    1    1    2    0    0 -0.27980389814E+02 -0.73764710225E+02 -0.27491878583E+03  0.28601481341E+03  0.00000000000E+00 0.  1.
         11    1    1    2    0    0  0.24002703887E+02  0.11120717601E+01 -0.18921058727E+02  0.30583867656E+02  0.00000000000E+00 0. -1.
</event>
<event>
 7    1  0.3274919E-009  0.1378524E+03  0.7561462E-02  0.1216248E+00
         -1   -1    0    0    0  501 -0.00000000000E+00  0.00000000000E+00  0.98763311680E+02  0.98763311680E+02  0.00000000000E+00 0.  1.
          1   -1    0    0  501    0  0.00000000000E+00 -0.00000000000E+00 -0.24354182238E+03  0.24354182238E+03  0.00000000000E+00 0. -1.
         25    2    1    2    0    0  0.10929940784E+03  0.45698638685E+01 -0.61303363728E+02  0.17712176059E+03  0.12508705553E+03 0.  0.
          5    1    3    3  502    0  0.26371169760E+02  0.54707719261E+02  0.26598096477E+01  0.60933735554E+02  0.41800000000E+01 0.  1.
         -5    1    3    3    0  502  0.82928238078E+02 -0.50137855392E+02 -0.63963173376E+02  0.11618802504E+03  0.41800000000E+01 0.  1.
        -11    1    1    2    0    0 -0.29354792561E+02  0.18410483928E+02  0.13707044490E+02  0.37263022334E+02  0.00000000000E+00 0.  1.
         11    1    1    2    0    0 -0.79944615276E+02 -0.22980347797E+02 -0.97182191458E+02  0.12792035113E+03  0.00000000000E+00 0. -1.
</event>
<event>
 7    1  0.2626349E-009  0.1015950E+03  0.7561462E-02  0.1276977E+00
         -1   -1    0    0    0  501 -0.00000000000E+00  0.00000000000E+00  0.14912606170E+03  0.14912606170E+03  0.00000000000E+00 0.  1.
          1   -1    0    0  501    0  0.00000000000E+00 -0.00000000000E+00 -0.10277971954E+03  0.10277971954E+03  0.00000000000E+00 0. -1.
         25    2    1    2    0    0  0.53671240371E+01 -0.72563569830E+02  0.24892511511E+02  0.14683859418E+03  0.12509059886E+03 0.  0.
          5    1    3    3  502    0 -0.11147593220E+02 -0.92401200245E+02  0.54021951324E+02  0.10769444863E+03  0.41800000000E+01 0.  1.
         -5    1    3    3    0  502  0.16514717257E+02  0.19837630414E+02 -0.29129439813E+02  0.39144145544E+02  0.41800000000E+01 0.  1.
        -11    1    1    2    0    0  0.14875034471E+02  0.95143019349E+01  0.33399044224E+02  0.37779422268E+02  0.00000000000E+00 0.  1.
         11    1    1    2    0    0 -0.20242158509E+02  0.63049267896E+02 -0.11945213574E+02  0.67287764791E+02  0.00000000000E+00 0. -1.
</event>
<event>
 7    1  0.2626349E-009  0.1304994E+03  0.7561462E-02  0.1226717E+00
          3   -1    0    0  501    0  0.00000000000E+00  0.00000000000E+00  0.43704474235E+02  0.43704474235E+02  0.00000000000E+00 0. -1.
         -3   -1    0    0    0  501 -0.00000000000E+00 -0.00000000000E+00 -0.46831289279E+03  0.46831289279E+03  0.00000000000E+00 0.  1.
         25    2    1    2    0    0 -0.73609185483E+02  0.24561533969E+02 -0.14154790522E+03  0.20421601851E+03  0.12508713606E+03 0.  0.
          5    1    3    3  502    0 -0.33646344649E+02 -0.50811646545E+02 -0.49305842008E+02  0.78501199921E+02  0.41800000000E+01 0. -1.
         -5    1    3    3    0  502 -0.39962840834E+02  0.75373180514E+02 -0.92242063209E+02  0.12571481859E+03  0.41800000000E+01 0. -1.
        -11    1    1    2    0    0  0.54197305489E+02 -0.55757102297E+02 -0.14049389661E+03  0.16057626650E+03  0.00000000000E+00 0. -1.
         11    1    1    2    0    0  0.19411879994E+02  0.31195568328E+02 -0.14256661674E+03  0.14722508202E+03  0.00000000000E+00 0.  1.
</event>
<event>
 7    1  0.2626349E-009  0.1281504E+03  0.7561462E-02  0.1230226E+00
         -2   -1    0    0    0  501 -0.00000000000E+00  0.00000000000E+00  0.32492030315E+02  0.32492030315E+02  0.00000000000E+00 0.  1.
          2   -1    0    0  501    0  0.00000000000E+00 -0.00000000000E+00 -0.81250473179E+03  0.81250473179E+03  0.00000000000E+00 0. -1.
         25    2    1    2    0    0  0.83304186087E+02 -0.66833465403E+02 -0.56437633359E+03  0.58785539113E+03  0.12508803078E+03 0.  0.
          5    1    3    3  502    0 -0.38084449752E+01 -0.36256194166E+02 -0.35816378808E+02  0.51276712642E+02  0.41800000000E+01 0. -1.
         -5    1    3    3    0  502  0.87112631063E+02 -0.30577271237E+02 -0.52855995478E+03  0.53657867849E+03  0.41800000000E+01 0. -1.
        -11    1    1    2    0    0 -0.15709526920E+02  0.56702833010E+02 -0.15492454374E+03  0.16572149758E+03  0.00000000000E+00 0. -1.
         11    1    1    2    0    0 -0.67594659168E+02  0.10130632393E+02 -0.60711824150E+02  0.91419873399E+02  0.00000000000E+00 0.  1.
</event>
<event>
 7    1  0.2626349E-009  0.1550829E+03  0.7561462E-02  0.1194363E+00
         -1   -1    0    0    0  501 -0.00000000000E+00  0.00000000000E+00  0.58466188391E+02  0.58466188391E+02  0.00000000000E+00 0.  1.
          1   -1    0    0  501    0  0.00000000000E+00 -0.00000000000E+00 -0.71445010216E+03  0.71445010216E+03  0.00000000000E+00 0. -1.
         25    2    1    2    0    0  0.22637416863E+02 -0.14541608754E+03 -0.17399038121E+03  0.25995931723E+03  0.12509157727E+03 0.  0.
          5    1    3    3  502    0 -0.14377799229E+02 -0.10040537999E+03 -0.17409860610E+03  0.20153351703E+03  0.41800000000E+01 0.  1.
         -5    1    3    3    0  502  0.37015216092E+02 -0.45010707548E+02  0.10822488609E+00  0.58425800200E+02  0.41800000000E+01 0.  1.
        -11    1    1    2    0    0 -0.14435996326E+02  0.13916639865E+03 -0.48275155653E+03  0.50261789645E+03  0.00000000000E+00 0. -1.
         11    1    1    2    0    0 -0.82014205367E+01  0.62496888910E+01  0.75802397506E+00  0.10339076864E+02  0.00000000000E+00 0.  1.
</event>
<event>
 7    1  0.2626349E-009  0.1134385E+03  0.7561462E-02  0.1254332E+00
          1   -1    0    0  501    0  0.00000000000E+00  0.00000000000E+00  0.42663470648E+03  0.42663470648E+03  0.00000000000E+00 0. -1.
         -1   -1    0    0    0  501 -0.00000000000E+00 -0.00000000000E+00 -0.33145708479E+02  0.33145708479E+02  0.00000000000E+00 0.  1.
         25    2    1    2    0    0 -0.34995357477E+02 -0.96386474323E+01  0.16616935339E+03  0.21113367482E+03  0.12509035162E+03 0.  0.
          5    1    3    3  502    0 -0.65115736348E+02 -0.47974881733E+02  0.11075618010E+03  0.13720806182E+03  0.41800000000E+01 0.  1.
         -5    1    3    3    0  502  0.30120378871E+02  0.38336234301E+02  0.55413173291E+02  0.73925613003E+02  0.41800000000E+01 0.  1.
        -11    1    1    2    0    0  0.64027675896E+02 -0.54094993488E+01  0.18001950699E+03  0.19114347716E+03  0.00000000000E+00 0.  1.
         11    1    1    2    0    0 -0.29032318419E+02  0.15048146781E+02  0.47300137625E+02  0.57503262983E+02  0.00000000000E+00 0. -1.
</event>
<event>
 7    1  0.2626349E-009  0.1938376E+03  0.7561462E-02  0.1155045E+00
          2   -1    0    0  501    0  0.00000000000E+00  0.00000000000E+00  0.11817485324E+04  0.11817485324E+04  0.00000000000E+00 0.  1.
         -2   -1    0    0    0  501 -0.00000000000E+00 -0.00000000000E+00 -0.39974609358E+02  0.39974609358E+02  0.00000000000E+00 0. -1.
         25    2    1    2    0    0  0.17411878394E+03  0.44338315863E+02  0.74146249363E+03  0.77310835096E+03  0.12508659274E+03 0.  0.
          5    1    3    3  502    0  0.10302338770E+03  0.31223133498E+01  0.60520007651E+03  0.61392847488E+03  0.41800000000E+01 0.  1.
         -5    1    3    3    0  502  0.71095396242E+02  0.41216002513E+02  0.13626241712E+03  0.15917987608E+03  0.41800000000E+01 0.  1.
        -11    1    1    2    0    0 -0.10895200165E+03 -0.72892228620E+02  0.27026735420E+03  0.30038018976E+03  0.00000000000E+00 0. -1.
         11    1    1    2    0    0 -0.65166782289E+02  0.28553912758E+02  0.13004407523E+03  0.14823460106E+03  0.00000000000E+00 0.  1.
</event>
<event>
 7    1  0.2626349E-009  0.1261766E+03  0.7561462E-02  0.1233242E+00
         -3   -1    0    0    0  501 -0.00000000000E+00  0.00000000000E+00  0.61696321208E+03  0.61696321208E+03  0.00000000000E+00 0.  1.
          3   -1    0    0  501    0  0.00000000000E+00 -0.00000000000E+00 -0.49555103638E+02  0.49555103638E+02  0.00000000000E+00 0. -1.
         25    2    1    2    0    0  0.94554660710E+02 -0.34266209114E+02  0.45528355891E+03  0.48274882590E+03  0.12509417629E+03 0.  0.
          5    1    3    3  502    0  0.11872451864E+03 -0.13512231392E+02  0.27867642629E+03  0.30324266635E+03  0.41800000000E+01 0. -1.
         -5    1    3    3    0  502 -0.24169857934E+02 -0.20753977722E+02  0.17660713262E+03  0.17950615955E+03  0.41800000000E+01 0. -1.
        -11    1    1    2    0    0 -0.46681190224E+02  0.19133284699E+02  0.12251632833E+03  0.13249704454E+03  0.00000000000E+00 0. -1.
         11    1    1    2    0    0 -0.47873470486E+02  0.15132924415E+02 -0.10391778804E+02  0.51272445274E+02  0.00000000000E+00 0.  1.
</event>
<event>
 7    1  0.2626349E-009  0.1025669E+03  0.7561462E-02  0.1274989E+00
         -3   -1    0    0    0  501 -0.00000000000E+00  0.00000000000E+00  0.12142448576E+03  0.12142448576E+03  0.00000000000E+00 0.  1.
          3   -1    0    0  501    0  0.00000000000E+00 -0.00000000000E+00 -0.15731665483E+03  0.15731665483E+03  0.00000000000E+00 0. -1.
         25    2    1    2    0    0 -0.36366307743E+02 -0.76879035501E+02 -0.77143769491E+01  0.15146161266E+03  0.12509282177E+03 0.  0.
          5    1    3    3  502    0 -0.59547272045E+02 -0.38800758544E+02  0.43500968081E+02  0.83433704793E+02  0.41800000000E+01 0.  1.
         -5    1    3    3    0  502  0.23180964302E+02 -0.38078276958E+02 -0.51215345030E+02  0.68027907866E+02  0.41800000000E+01 0.  1.
        -11    1    1    2    0    0  0.99049711285E+01  0.51687390102E+02 -0.59300127193E+02  0.79285558797E+02  0.00000000000E+00 0. -1.
         11    1    1    2    0    0  0.26461336614E+02  0.25191645399E+02  0.31122335071E+02  0.47993969138E+02  0.00000000000E+00 0.  1.
</event>
<event>
 7    1  0.2626349E-009  0.2217827E+03  0.7561462E-02  0.1132561E+00
          1   -1    0    0  501    0  0.00000000000E+00  0.00000000000E+00  0.32214932092E+03  0.32214932092E+03  0.00000000000E+00 0. -1.
         -1   -1    0    0    0  501 -0.00000000000E+00 -0.00000000000E+00 -0.23008836879E+03  0.23008836879E+03  0.00000000000E+00 0.  1.
         25    2    1    2    0    0 -0.10533562827E+03 -0.17936952465E+03 -0.92086863957E+02  0.25960800245E+03  0.12508918206E+03 0.  0.
          5    1    3    3  502    0 -0.84413616580E+01 -0.80304943237E+02  0.17695585718E+02  0.82769237333E+02  0.41800000000E+01 0.  1.
         -5    1    3    3    0  502 -0.96894266611E+02 -0.99064581411E+02 -0.10978244967E+03  0.17683876512E+03  0.41800000000E+01 0.  1.
        -11    1    1    2    0    0 -0.81186053494E+01  0.55535807894E+02  0.25682579499E+02  0.61723031366E+02  0.00000000000E+00 0.  1.
         11    1    1    2    0    0  0.11345423362E+03  0.12383371675E+03  0.15846523658E+03  0.23090665589E+03  0.00000000000E+00 0. -1.
</event>
<event>
 7    1  0.2626349E-009  0.1285221E+03  0.7561462E-02  0.1229665E+00
          2   -1    0    0  501    0  0.00000000000E+00  0.00000000000E+00  0.19278737475E+03  0.19278737475E+03  0.00000000000E+00 0. -1.
         -2   -1    0    0    0  501 -0.00000000000E+00 -0.00000000000E+00 -0.11209894915E+03  0.11209894915E+03  0.00000000000E+00 0.  1.
         25    2    1    2    0    0 -0.61736953412E+02  0.74839130044E+02  0.22438840477E+02  0.15987172462E+03  0.12507245887E+03 0.  0.
          5    1    3    3  502    0 -0.73340148311E+02  0.10355224543E+03  0.19992437023E+02  0.12852631958E+03  0.41800000000E+01 0. -1.
         -5    1    3    3    0  502  0.11603194899E+02 -0.28713115385E+02  0.24464034537E+01  0.31345405035E+02  0.41800000000E+01 0. -1.
        -11    1    1    2    0    0  0.17507875822E+02 -0.35744615691E+02 -0.21933936091E+02  0.45445580854E+02  0.00000000000E+00 0.  1.
         11    1    1    2    0    0  0.44229077590E+02 -0.39094514353E+02  0.80183521207E+02  0.99569018425E+02  0.00000000000E+00 0. -1.
</event>
<event>
 7    1  0.2626349E-009  0.8179475E+02  0.7561462E-02  0.1324034E+00
         -1   -1    0    0    0  501 -0.00000000000E+00  0.00000000000E+00  0.45743586505E+03  0.45743586505E+03  0.00000000000E+00 0.  1.
          1   -1    0    0  501    0  0.00000000000E+00 -0.00000000000E+00 -0.34851118469E+02  0.34851118469E+02  0.00000000000E+00 0. -1.
         25    2    1    2    0    0 -0.55319999088E+02  0.13931777712E+02  0.28927946140E+03  0.32028709533E+03  0.12508724924E+03 0.  0.
          5    1    3    3  502    0 -0.24436656647E+02 -0.24118587974E+02  0.90202875222E+01  0.35744852230E+02  0.41800000000E+01 0. -1.
         -5    1    3    3    0  502 -0.30883342441E+02  0.38050365686E+02  0.28025917388E+03  0.28454224311E+03  0.41800000000E+01 0. -1.
        -11    1    1    2    0    0  0.36033601809E+02  0.19685786357E+02  0.12605076175E+03  0.13256977477E+03  0.00000000000E+00 0.  1.
         11    1    1    2    0    0  0.19286397278E+02 -0.33617564069E+02  0.72545234330E+01  0.39430113418E+02  0.00000000000E+00 0. -1.
</event>
<event>
 7    1  0.2626349E-009  0.8898617E+02  0.7561462E-02  0.1305326E+00
         -2   -1    0    0    0  501 -0.00000000000E+00  0.00000000000E+00  0.72412436910E+03  0.72412436910E+03  0.00000000000E+00 0. -1.
          2   -1    0    0  501    0  0.00000000000E+00 -0.00000000000E+00 -0.20556164904E+02  0.20556164904E+02  0.00000000000E+00 0.  1.
         25    2    1    2    0    0  0.19049786780E+02 -0.56888731953E+02  0.32218350857E+03  0.35078402849E+03  0.12509196318E+03 0.  0.
          5    1    3    3  502    0 -0.20844323575E+02 -0.31770086308E+02  0.16801448358E+02  0.41756260324E+02  0.41800000000E+01 0. -1.
         -5    1    3    3    0  502  0.39894110354E+02 -0.25118645645E+02  0.30538206021E+03  0.30902776817E+03  0.41800000000E+01 0. -1.
        -11    1    1    2    0    0  0.36064725680E+01  0.67361203815E+02  0.32932264011E+03  0.33616058619E+03  0.00000000000E+00 0.  1.
         11    1    1    2    0    0 -0.22656259348E+02 -0.10472471862E+02  0.52062055520E+02  0.57735919318E+02  0.00000000000E+00 0. -1.
</event>
<event>
 7    1  0.2626349E-009  0.1210497E+03  0.7561462E-02  0.1241375E+00
         -1   -1    0    0    0  501 -0.00000000000E+00  0.00000000000E+00  0.63050065791E+02  0.63050065791E+02  0.00000000000E+00 0.  1.
          1   -1    0    0  501    0  0.00000000000E+00 -0.00000000000E+00 -0.34038360366E+03  0.34038360366E+03  0.00000000000E+00 0. -1.
         25    2    1    2    0    0  0.49318076305E+02 -0.82903202751E+02 -0.17459278438E+03  0.23544563152E+03  0.12508713509E+03 0.  0.
          5    1    3    3  502    0  0.60713366059E+02 -0.99967825373E+02 -0.88192341851E+02  0.14654364704E+03  0.41800000000E+01 0. -1.
         -5    1    3    3    0  502 -0.11395289753E+02  0.17064622621E+02 -0.86400442531E+02  0.88901984473E+02  0.41800000000E+01 0. -1.
        -11    1    1    2    0    0  0.67749615992E+01  0.11148897288E+02  0.14514685343E+02  0.19515996157E+02  0.00000000000E+00 0.  1.
         11    1    1    2    0    0 -0.56093037905E+02  0.71754305464E+02 -0.11725543883E+03  0.14847204178E+03  0.00000000000E+00 0. -1.
</event>
<event>
 7    1  0.2626349E-009  0.7763804E+02  0.7561462E-02  0.1335891E+00
          2   -1    0    0  501    0  0.00000000000E+00  0.00000000000E+00  0.24795262084E+03  0.24795262084E+03  0.00000000000E+00 0.  1.
         -2   -1    0    0    0  501 -0.00000000000E+00 -0.00000000000E+00 -0.68077951375E+02  0.68077951375E+02  0.00000000000E+00 0. -1.
         25    2    1    2    0    0 -0.46710576484E+02 -0.36571033685E+02  0.47921358151E+02  0.14649803285E+03  0.12508356647E+03 0.  0.
          5    1    3    3  502    0 -0.22882463817E+02  0.86249080095E+01 -0.38626647402E+02  0.45907368450E+02  0.41800000000E+01 0. -1.
         -5    1    3    3    0  502 -0.23828112667E+02 -0.45195941695E+02  0.86548005553E+02  0.10059066440E+03  0.41800000000E+01 0. -1.
        -11    1    1    2    0    0  0.58306345364E+02  0.27417823515E+02  0.13896857079E+03  0.15317842741E+03  0.00000000000E+00 0.  1.
         11    1    1    2    0    0 -0.11595768881E+02  0.91532101704E+01 -0.70152594776E+01  0.16354111957E+02  0.00000000000E+00 0. -1.
</event>
<event>
 7    1  0.2626349E-009  0.2715792E+03  0.7561462E-02  0.1100379E+00
          3   -1    0    0  501    0  0.00000000000E+00  0.00000000000E+00  0.10970599183E+04  0.10970599183E+04  0.00000000000E+00 0. -1.
         -3   -1    0    0    0  501 -0.00000000000E+00 -0.00000000000E+00 -0.73055187159E+02  0.73055187159E+02  0.00000000000E+00 0.  1.
         25    2    1    2    0    0 -0.18031978493E+03  0.17733250951E+03  0.65895395157E+03  0.71681935609E+03  0.12509050808E+03 0.  0.
          5    1    3    3  502    0 -0.18167938425E+03  0.18893807749E+03  0.65168861613E+03  0.70243897997E+03  0.41800000000E+01 0.  1.
         -5    1    3    3    0  502  0.13595993141E+01 -0.11605567978E+02  0.72653354376E+01  0.14380376122E+02  0.41800000000E+01 0.  1.
        -11    1    1    2    0    0  0.16822057257E+03 -0.11185843961E+03  0.26838648764E+03  0.33591930325E+03  0.00000000000E+00 0.  1.
         11    1    1    2    0    0  0.12099212362E+02 -0.65474069901E+02  0.96664291964E+02  0.11737644615E+03  0.00000000000E+00 0. -1.
</event>
<event>
 7    1  0.2626349E-009  0.1516282E+03  0.7561462E-02  0.1198486E+00
         -1   -1    0    0    0  501 -0.00000000000E+00  0.00000000000E+00  0.15672523228E+03  0.15672523228E+03  0.00000000000E+00 0.  1.
          1   -1    0    0  501    0  0.00000000000E+00 -0.00000000000E+00 -0.18103111308E+03  0.18103111308E+03  0.00000000000E+00 0. -1.
         25    2    1    2    0    0  0.11391922552E+03  0.35815484342E+01 -0.71860633047E+02  0.18386403758E+03  0.12510641990E+03 0.  0.
          5    1    3    3  502    0  0.10137362921E+03  0.46827239122E+02 -0.17425603301E+02  0.11309521243E+03  0.41800000000E+01 0.  1.
         -5    1    3    3    0  502  0.12545596308E+02 -0.43245690688E+02 -0.54435029746E+02  0.70768825151E+02  0.41800000000E+01 0.  1.
        -11    1    1    2    0    0 -0.52635248785E+02  0.44078669853E+02  0.24712500919E+02  0.72966473482E+02  0.00000000000E+00 0.  1.
         11    1    1    2    0    0 -0.61283976735E+02 -0.47660218287E+02  0.22842251323E+02  0.80925834299E+02  0.00000000000E+00 0. -1.
</event>
<event>
 7    1  0.2626349E-009  0.8502715E+02  0.7561462E-02  0.1315362E+00
          2   -1    0    0  501    0  0.00000000000E+00  0.00000000000E+00  0.42319469738E+03  0.42319469738E+03  0.00000000000E+00 0. -1.
         -2   -1    0    0    0  501 -0.00000000000E+00 -0.00000000000E+00 -0.31390171770E+02  0.31390171770E+02  0.00000000000E+00 0.  1.
         25    2    1    2    0    0  0.29710382359E+02  0.95851996339E+01  0.27877232555E+03  0.30714214707E+03  0.12509079158E+03 0.  0.
          5    1    3    3  502    0 -0.34242927181E+02  0.23260155204E+01  0.18938352424E+02  0.39422354099E+02  0.41800000000E+01 0.  1.
         -5    1    3    3    0  502  0.63953309540E+02  0.72591841134E+01  0.25983397313E+03  0.26771979297E+03  0.41800000000E+01 0.  1.
        -11    1    1    2    0    0 -0.47487607295E+02 -0.18657031627E+02  0.11650272433E+03  0.12718507165E+03  0.00000000000E+00 0. -1.
         11    1    1    2    0    0  0.17777224937E+02  0.90718319936E+01 -0.34705242718E+01  0.20257650429E+02  0.00000000000E+00 0.  1.
</event>
<event>
 7    1  0.2626349E-009  0.1132475E+03  0.7561462E-02  0.1254672E+00
          1   -1    0    0  501    0  0.00000000000E+00  0.00000000000E+00  0.23973558237E+03  0.23973558237E+03  0.00000000000E+00 0. -1.
         -1   -1    0    0    0  501 -0.00000000000E+00 -0.00000000000E+00 -0.60583060474E+02  0.60583060474E+02  0.00000000000E+00 0.  1.
         25    2    1    2    0    0 -0.52336895266E+02  0.58810487683E+01  0.12992689152E+03  0.18788784040E+03  0.12508839311E+03 0.  0.
          5    1    3    3  502    0  0.64354256901E+01 -0.52186688481E+02  0.56199418065E+02  0.77076015396E+02  0.41800000000E+01 0.  1.
         -5    1    3    3    0  502 -0.58772320956E+02  0.58067737249E+02  0.73727473451E+02  0.11081182501E+03  0.41800000000E+01 0.  1.
        -11    1    1    2    0    0  0.35633060347E+01 -0.34358615774E+02 -0.40628012357E+01  0.34781000297E+02  0.00000000000E+00 0.  1.
         11    1    1    2    0    0  0.48773589231E+02  0.28477567006E+02  0.53288431617E+02  0.77649802145E+02  0.00000000000E+00 0. -1.
</event>
<event>
 7    1  0.2626349E-009  0.1029000E+03  0.7561462E-02  0.1274313E+00
          2   -1    0    0  501    0  0.00000000000E+00  0.00000000000E+00  0.77645193216E+02  0.77645193216E+02  0.00000000000E+00 0. -1.
         -2   -1    0    0    0  501 -0.00000000000E+00 -0.00000000000E+00 -0.23037470624E+03  0.23037470624E+03  0.00000000000E+00 0.  1.
         25    2    1    2    0    0  0.41404552992E+02 -0.37545999038E+02 -0.21736590204E+02  0.13872163915E+03  0.12508866761E+03 0.  0.
          5    1    3    3  502    0 -0.35956048949E+02  0.86066286481E+01  0.16587443418E+02  0.40737294852E+02  0.41800000000E+01 0.  1.
         -5    1    3    3    0  502  0.77360601942E+02 -0.46152627686E+02 -0.38324033622E+02  0.97984344301E+02  0.41800000000E+01 0.  1.
        -11    1    1    2    0    0 -0.53590610925E+02  0.38802525931E+02 -0.13949216406E+03  0.15438799640E+03  0.00000000000E+00 0.  1.
         11    1    1    2    0    0  0.12186057932E+02 -0.12565268924E+01  0.84992412457E+01  0.14910263898E+02  0.00000000000E+00 0. -1.
</event>
<event>
 7    1  0.2626349E-009  0.1406515E+03  0.7561462E-02  0.1212455E+00
          1   -1    0    0  501    0  0.00000000000E+00  0.00000000000E+00  0.36174943418E+03  0.36174943418E+03  0.00000000000E+00 0. -1.
         -1   -1    0    0    0  501 -0.00000000000E+00 -0.00000000000E+00 -0.14818387134E+03  0.14818387134E+03  0.00000000000E+00 0.  1.
         25    2    1    2    0    0  0.31941501883E+02 -0.96082541018E+02  0.30592037386E+03  0.34567005677E+03  0.12509356006E+03 0.  0.
          5    1    3    3  502    0 -0.18114359732E+02  0.20787710835E+02  0.98295923764E+02  0.10217543726E+03  0.41800000000E+01 0. -1.
         -5    1    3    3    0  502  0.50055861614E+02 -0.11687025185E+03  0.20762445010E+03  0.24349461951E+03  0.41800000000E+01 0. -1.
        -11    1    1    2    0    0 -0.87846301721E+01  0.10194309514E+03 -0.95752294094E+02  0.14013588476E+03  0.00000000000E+00 0.  1.
         11    1    1    2    0    0 -0.23156871710E+02 -0.58605541200E+01  0.33974830726E+01  0.24127363993E+02  0.00000000000E+00 0. -1.
</event>
<event>
 7    1  0.2626349E-009  0.1624385E+03  0.7561462E-02  0.1185971E+00
         -1   -1    0    0    0  501 -0.00000000000E+00  0.00000000000E+00  0.36188764497E+03  0.36188764497E+03  0.00000000000E+00 0.  1.
          1   -1    0    0  501    0  0.00000000000E+00 -0.00000000000E+00 -0.10966696942E+03  0.10966696942E+03  0.00000000000E+00 0. -1.
         25    2    1    2    0    0 -0.10012147711E+03 -0.10824336260E+03  0.38513707051E+02  0.19716088180E+03  0.12509265348E+03 0.  0.
          5    1    3    3  502    0  0.12376595128E+02 -0.81822605627E+00 -0.25687588106E+02  0.28830091632E+02  0.41800000000E+01 0.  1.
         -5    1    3    3    0  502 -0.11249807224E+03 -0.10742513654E+03  0.64201295157E+02  0.16833079017E+03  0.41800000000E+01 0.  1.
        -11    1    1    2    0    0  0.42897813709E+02  0.83423582142E+02  0.18123482472E+03  0.20407297266E+03  0.00000000000E+00 0. -1.
         11    1    1    2    0    0  0.57223663403E+02  0.24819780454E+02  0.32472143775E+02  0.70320759925E+02  0.00000000000E+00 0.  1.
</event>
<event>
 7    1  0.2626349E-009  0.1581102E+03  0.7561462E-02  0.1190847E+00
         -2   -1    0    0    0  501 -0.00000000000E+00  0.00000000000E+00  0.30886670114E+02  0.30886670114E+02  0.00000000000E+00 0. -1.
          2   -1    0    0  501    0  0.00000000000E+00 -0.00000000000E+00 -0.94242618246E+03  0.94242618246E+03  0.00000000000E+00 0.  1.
         25    2    1    2    0    0  0.98121321135E+02  0.63064781032E+02 -0.31182619141E+03  0.35565241751E+03  0.12509239851E+03 0.  0.
          5    1    3    3  502    0  0.13194325984E+02 -0.36864329256E+02 -0.61556401058E+02  0.73073469336E+02  0.41800000000E+01 0. -1.
         -5    1    3    3    0  502  0.84926995151E+02  0.99929110287E+02 -0.25026979035E+03  0.28257894818E+03  0.41800000000E+01 0. -1.
        -11    1    1    2    0    0 -0.62796009261E+02 -0.83765714604E+02 -0.37961618090E+03  0.39378735191E+03  0.00000000000E+00 0. -1.
         11    1    1    2    0    0 -0.35325311874E+02  0.20700933572E+02 -0.22009714004E+03  0.22387308316E+03  0.00000000000E+00 0.  1.
</event>
<event>
 7    1  0.2626349E-009  0.9311253E+02  0.7561462E-02  0.1295485E+00
         -2   -1    0    0    0  501 -0.00000000000E+00  0.00000000000E+00  0.34788539556E+02  0.34788539556E+02  0.00000000000E+00 0.  1.
          2   -1    0    0  501    0  0.00000000000E+00 -0.00000000000E+00 -0.43417798078E+03  0.43417798078E+03  0.00000000000E+00 0. -1.
         25    2    1    2    0    0 -0.48066198565E+02  0.33191460160E+02 -0.21875847621E+03  0.25867978894E+03  0.12509168566E+03 0.  0.
          5    1    3    3  502    0 -0.42585436657E+02  0.59461131384E+02 -0.52276163565E+02  0.89996751263E+02  0.41800000000E+01 0.  1.
         -5    1    3    3    0  502 -0.54807619083E+01 -0.26269671224E+02 -0.16648231264E+03  0.16868303768E+03  0.41800000000E+01 0.  1.
        -11    1    1    2    0    0  0.12581774134E+02 -0.46301214838E+02 -0.33874400327E+02  0.58733112750E+02  0.00000000000E+00 0.  1.
         11    1    1    2    0    0  0.35484424431E+02  0.13109754677E+02 -0.14675656469E+03  0.15155361865E+03  0.00000000000E+00 0. -1.
</event>
<event>
 7    1  0.2626349E-009  0.1286734E+03  0.7561462E-02  0.1229437E+00
          1   -1    0    0  501    0  0.00000000000E+00  0.00000000000E+00  0.21714072744E+03  0.21714072744E+03  0.00000000000E+00 0. -1.
         -1   -1    0    0    0  501 -0.00000000000E+00 -0.00000000000E+00 -0.15480452062E+03  0.15480452062E+03  0.00000000000E+00 0.  1.
         25    2    1    2    0    0  0.89700701097E+02 -0.24109527917E+01  0.15004723372E+03  0.21498180470E+03  0.12510385900E+03 0.  0.
          5    1    3    3  502    0 -0.35763912555E+01 -0.40385781313E+02  0.87043248915E+02  0.96113482344E+02  0.41800000000E+01 0. -1.
         -5    1    3    3    0  502  0.93277092353E+02  0.37974828521E+02  0.63003984806E+02  0.11886832236E+03  0.41800000000E+01 0. -1.
        -11    1    1    2    0    0 -0.44674488124E+01  0.26773541622E+02  0.61780621272E+01  0.27837907276E+02  0.00000000000E+00 0. -1.
         11    1    1    2    0    0 -0.85233252285E+02 -0.24362588830E+02 -0.93889089022E+02  0.12912553608E+03  0.00000000000E+00 0.  1.
</event>
<event>
 7    1  0.2626349E-009  0.1927232E+03  0.7561462E-02  0.1156028E+00
          4   -1    0    0  501    0  0.00000000000E+00  0.00000000000E+00  0.84005560936E+02  0.84005560936E+02  0.00000000000E+00 0. -1.
         -4   -1    0    0    0  501 -0.00000000000E+00 -0.00000000000E+00 -0.61726670678E+03  0.61726670678E+03  0.00000000000E+00 0.  1.
         25    2    1    2    0    0  0.16618336908E+03  0.84444130939E+02 -0.16553340098E+03  0.27892007105E+03  0.12508947113E+03 0.  0.
          5    1    3    3  502    0  0.56929869090E+02 -0.56463188862E+01 -0.11499310171E+03  0.12850594053E+03  0.41800000000E+01 0.  1.
         -5    1    3    3    0  502  0.10925349999E+03  0.90090449825E+02 -0.50540299268E+02  0.15041413052E+03  0.41800000000E+01 0.  1.
        -11    1    1    2    0    0 -0.37461820998E+02 -0.19866416566E+02 -0.18446236069E+03  0.18927341348E+03  0.00000000000E+00 0.  1.
         11    1    1    2    0    0 -0.12872154808E+03 -0.64577714372E+02 -0.18326538418E+03  0.23307878318E+03  0.00000000000E+00 0. -1.
</event>
<event>
 7    1  0.2626349E-009  0.9333200E+02  0.7561462E-02  0.1294978E+00
          2   -1    0    0  501    0  0.00000000000E+00  0.00000000000E+00  0.21459096213E+03  0.21459096213E+03  0.00000000000E+00 0. -1.
         -2   -1    0    0    0  501 -0.00000000000E+00 -0.00000000000E+00 -0.65509920940E+02  0.65509920940E+02  0.00000000000E+00 0.  1.
         25    2    1    2    0    0  0.26896896834E+02 -0.44438861163E+02  0.77885715629E+02  0.15624535691E+03  0.12509265132E+03 0.  0.
          5    1    3    3  502    0  0.56101054421E+02  0.46993753556E+01  0.81131499625E+02  0.98839289088E+02  0.41800000000E+01 0. -1.
         -5    1    3    3    0  502 -0.29204157587E+02 -0.49138236519E+02 -0.32457839965E+01  0.57406067818E+02  0.41800000000E+01 0. -1.
        -11    1    1    2    0    0 -0.85967446774E+01  0.52284276178E+02  0.32867501890E+01  0.53088155754E+02  0.00000000000E+00 0.  1.
         11    1    1    2    0    0 -0.18300152157E+02 -0.78454150153E+01  0.67908575374E+02  0.70767370412E+02  0.00000000000E+00 0. -1.
</event>
<event>
 7    1  0.2626349E-009  0.9120032E+02  0.7561462E-02  0.1299971E+00
          2   -1    0    0  501    0  0.00000000000E+00  0.00000000000E+00  0.38689459477E+02  0.38689459477E+02  0.00000000000E+00 0. -1.
         -2   -1    0    0    0  501 -0.00000000000E+00 -0.00000000000E+00 -0.39513242287E+03  0.39513242287E+03  0.00000000000E+00 0.  1.
         25    2    1    2    0    0  0.38200502958E+02  0.36637808370E+02 -0.24919709394E+03  0.28380350454E+03  0.12507449833E+03 0.  0.
          5    1    3    3  502    0 -0.30413888677E+01  0.73217338932E+02 -0.18530889283E+03  0.19931604784E+03  0.41800000000E+01 0. -1.
         -5    1    3    3    0  502  0.41241891826E+02 -0.36579530562E+02 -0.63888201113E+02  0.84487456696E+02  0.41800000000E+01 0. -1.
        -11    1    1    2    0    0 -0.23862082498E+02 -0.16565339269E+02  0.96026625202E+01  0.30594453316E+02  0.00000000000E+00 0. -1.
         11    1    1    2    0    0 -0.14338420461E+02 -0.20072469101E+02 -0.11684853198E+03  0.11942392450E+03  0.00000000000E+00 0.  1.
</event>
<event>
 7    1  0.2626349E-009  0.9954507E+02  0.7561462E-02  0.1281256E+00
          2   -1    0    0  501    0  0.00000000000E+00  0.00000000000E+00  0.92782057554E+03  0.92782057554E+03  0.00000000000E+00 0. -1.
         -2   -1    0    0    0  501 -0.00000000000E+00 -0.00000000000E+00 -0.14851875784E+02  0.14851875784E+02  0.00000000000E+00 0.  1.
         25    2    1    2    0    0  0.68463429932E+01 -0.19914574213E+01  0.70281084280E+03  0.71389073378E+03  0.12508421445E+03 0.  0.
          5    1    3    3  502    0 -0.51736340539E+02  0.26540159104E+02  0.27360942710E+03  0.27975099638E+03  0.41800000000E+01 0. -1.
         -5    1    3    3    0  502  0.58582683532E+02 -0.28531616526E+02  0.42920141570E+03  0.43413973740E+03  0.41800000000E+01 0. -1.
        -11    1    1    2    0    0 -0.41156291677E+02  0.15527526073E+01  0.17450565349E+03  0.17929995674E+03  0.00000000000E+00 0. -1.
         11    1    1    2    0    0  0.34309948684E+02  0.43870481400E+00  0.35652203458E+02  0.49481760802E+02  0.00000000000E+00 0.  1.
</event>
<event>
 7    1  0.2626349E-009  0.2283497E+03  0.7561462E-02  0.1127807E+00
         -2   -1    0    0    0  501 -0.00000000000E+00  0.00000000000E+00  0.44149410443E+03  0.44149410443E+03  0.00000000000E+00 0.  1.
          2   -1    0    0  501    0  0.00000000000E+00 -0.00000000000E+00 -0.19756150063E+03  0.19756150063E+03  0.00000000000E+00 0. -1.
         25    2    1    2    0    0 -0.21259430902E+03  0.22655616170E+02  0.31032605592E+03  0.39706263669E+03  0.12508740663E+03 0.  0.
          5    1    3    3  502    0 -0.11303071336E+03 -0.21287747743E+02  0.73951041437E+02  0.13680401784E+03  0.41800000000E+01 0.  1.
         -5    1    3    3    0  502 -0.99563595663E+02  0.43943363913E+02  0.23637501448E+03  0.26025861885E+03  0.41800000000E+01 0.  1.
        -11    1    1    2    0    0  0.65232960327E+02  0.35507998422E+02 -0.22309656759E+02  0.77549196319E+02  0.00000000000E+00 0. -1.
         11    1    1    2    0    0  0.14736134870E+03 -0.58163614592E+02 -0.44083795362E+02  0.16444377205E+03  0.00000000000E+00 0.  1.
</event>
<event>
 7    1  0.2626349E-009  0.1080194E+03  0.7561462E-02  0.1264282E+00
          1   -1    0    0  501    0  0.00000000000E+00  0.00000000000E+00  0.31872619924E+03  0.31872619924E+03  0.00000000000E+00 0. -1.
         -1   -1    0    0    0  501 -0.00000000000E+00 -0.00000000000E+00 -0.37309657441E+02  0.37309657441E+02  0.00000000000E+00 0.  1.
         25    2    1    2    0    0  0.11594667928E+02  0.48450311092E+01  0.17270952549E+03  0.21361985873E+03  0.12508778197E+03 0.  0.
          5    1    3    3  502    0 -0.55715000334E+02  0.84247040301E+01  0.96214545948E+02  0.11157888757E+03  0.41800000000E+01 0. -1.
         -5    1    3    3    0  502  0.67309668261E+02 -0.35796729209E+01  0.76494979542E+02  0.10204097116E+03  0.41800000000E+01 0. -1.
        -11    1    1    2    0    0 -0.47972797087E+02  0.15381355139E+02  0.60238312291E+02  0.78527890676E+02  0.00000000000E+00 0. -1.
         11    1    1    2    0    0  0.36378129160E+02 -0.20226386248E+02  0.48468704018E+02  0.63888107274E+02  0.00000000000E+00 0.  1.
</event>
<event>
 7    1  0.2626349E-009  0.6471294E+02  0.7561462E-02  0.1379055E+00
         -2   -1    0    0    0  501 -0.00000000000E+00  0.00000000000E+00  0.36569659137E+02  0.36569659137E+02  0.00000000000E+00 0.  1.
          2   -1    0    0  501    0  0.00000000000E+00 -0.00000000000E+00 -0.40940092562E+03  0.40940092562E+03  0.00000000000E+00 0. -1.
         25    2    1    2    0    0 -0.55082843195E+01 -0.18224271526E+02 -0.12536745118E+03  0.17811947768E+03  0.12508830978E+03 0.  0.
          5    1    3    3  502    0  0.61261916661E+01 -0.59657495289E+01  0.24998410369E+02  0.26749080596E+02  0.41800000000E+01 0. -1.
         -5    1    3    3    0  502 -0.11634475986E+02 -0.12258521997E+02 -0.15036586155E+03  0.15137039708E+03  0.41800000000E+01 0. -1.
        -11    1    1    2    0    0  0.49974392679E+02 -0.83927007836E+01 -0.12262541238E+03  0.13268334150E+03  0.00000000000E+00 0.  1.
         11    1    1    2    0    0 -0.44466108360E+02  0.26616972309E+02 -0.12483840292E+03  0.13516776557E+03  0.00000000000E+00 0. -1.
</event>
<event>
 7    1  0.2626349E-009  0.1315445E+03  0.7561462E-02  0.1225182E+00
         -1   -1    0    0    0  501 -0.00000000000E+00  0.00000000000E+00  0.28488727928E+03  0.28488727928E+03  0.00000000000E+00 0.  1.
          1   -1    0    0  501    0  0.00000000000E+00 -0.00000000000E+00 -0.12571972220E+03  0.12571972220E+03  0.00000000000E+00 0. -1.
         25    2    1    2    0    0  0.24447635948E+02 -0.77927186913E+02  0.22650948086E+03  0.27133970701E+03  0.12509339837E+03 0.  0.
          5    1    3    3  502    0 -0.38916609892E+02  0.79067671306E+01  0.40564648967E+02  0.56920845371E+02  0.41800000000E+01 0. -1.
         -5    1    3    3    0  502  0.63364245840E+02 -0.85833954043E+02  0.18594483189E+03  0.21441886164E+03  0.41800000000E+01 0. -1.
        -11    1    1    2    0    0 -0.54895937028E+02  0.40948745653E+02 -0.59511975531E+02  0.90730584172E+02  0.00000000000E+00 0.  1.
         11    1    1    2    0    0  0.30448301080E+02  0.36978441260E+02 -0.78299482513E+01  0.48536710295E+02  0.00000000000E+00 0. -1.
</event>
<event>
 7    1  0.2626349E-009  0.1142229E+03  0.7561462E-02  0.1252944E+00
          2   -1    0    0  501    0  0.00000000000E+00  0.00000000000E+00  0.99417763846E+03  0.99417763846E+03  0.00000000000E+00 0. -1.
         -2   -1    0    0    0  501 -0.00000000000E+00 -0.00000000000E+00 -0.37243921230E+02  0.37243921230E+02  0.00000000000E+00 0.  1.
         25    2    1    2    0    0 -0.68371979530E+01 -0.83180872751E+02  0.86180796867E+03  0.87482961015E+03  0.12509223425E+03 0.  0.
          5    1    3    3  502    0  0.28575481952E+02  0.20380922617E+02  0.12412760601E+03  0.12906229174E+03  0.41800000000E+01 0.  1.
         -5    1    3    3    0  502 -0.35412679905E+02 -0.10356179537E+03  0.73768036265E+03  0.74576731841E+03  0.41800000000E+01 0.  1.
        -11    1    1    2    0    0 -0.11575066150E+00  0.21196415118E+02 -0.17738281756E+02  0.27639610195E+02  0.00000000000E+00 0.  1.
         11    1    1    2    0    0  0.69529486145E+01  0.61984457633E+02  0.11286403032E+03  0.12895233934E+03  0.00000000000E+00 0. -1.
</event>
<event>
 7    1  0.2626349E-009  0.1394683E+03  0.7561462E-02  0.1214046E+00
         -2   -1    0    0    0  501 -0.00000000000E+00  0.00000000000E+00  0.78933905186E+03  0.78933905186E+03  0.00000000000E+00 0.  1.
          2   -1    0    0  501    0  0.00000000000E+00 -0.00000000000E+00 -0.27124875558E+02  0.27124875558E+02  0.00000000000E+00 0. -1.
         25    2    1    2    0    0 -0.93265319534E+01 -0.96868986049E+02  0.43805583766E+03  0.46584480848E+03  0.12509150262E+03 0.  0.
          5    1    3    3  502    0 -0.53032549303E+02 -0.17974911924E+02  0.26242573657E+03  0.26836595976E+03  0.41800000000E+01 0. -1.
         -5    1    3    3    0  502  0.43706017349E+02 -0.78894074125E+02  0.17563010108E+03  0.19747884872E+03  0.41800000000E+01 0. -1.
        -11    1    1    2    0    0  0.45165050666E+02  0.23662128969E+02  0.14748701047E+03  0.15605190293E+03  0.00000000000E+00 0.  1.
         11    1    1    2    0    0 -0.35838518712E+02  0.73206857080E+02  0.17667132818E+03  0.19456721601E+03  0.00000000000E+00 0. -1.
</event>
<event>
 7    1  0.2626349E-009  0.8607613E+02  0.7561462E-02  0.1312642E+00
          2   -1    0    0  501    0  0.00000000000E+00  0.00000000000E+00  0.22970847182E+03  0.22970847182E+03  0.00000000000E+00 0. -1.
         -2   -1    0    0    0  501 -0.00000000000E+00 -0.00000000000E+00 -0.63907990254E+02  0.63907990254E+02  0.00000000000E+00 0.  1.
         25    2    1    2    0    0  0.22972810764E+02  0.44115984362E+02  0.11988527329E+03  0.18025635361E+03  0.12508358867E+03 0.  0.
          5    1    3    3  502    0 -0.25650767039E+02  0.74205678200E+01  0.11596280300E+03  0.11907086443E+03  0.41800000000E+01 0.  1.
         -5    1    3    3    0  502  0.48623577803E+02  0.36695416542E+02  0.39224702974E+01  0.61185489185E+02  0.41800000000E+01 0.  1.
        -11    1    1    2    0    0 -0.43036944117E+02 -0.95285782991E+01 -0.94349635843E+01  0.45077609754E+02  0.00000000000E+00 0.  1.
         11    1    1    2    0    0  0.20064133353E+02 -0.34587406063E+02  0.55350171856E+02  0.68282498709E+02  0.00000000000E+00 0. -1.
</event>
<event>
 7    1  0.2626349E-009  0.1141728E+03  0.7561462E-02  0.1253032E+00
          1   -1    0    0  501    0  0.00000000000E+00  0.00000000000E+00  0.38115855656E+03  0.38115855656E+03  0.00000000000E+00 0. -1.
         -1   -1    0    0    0  501 -0.00000000000E+00 -0.00000000000E+00 -0.36342622150E+02  0.36342622150E+02  0.00000000000E+00 0.  1.
         25    2    1    2    0    0  0.27781150475E+02  0.33336832069E+02  0.16895859824E+03  0.21465683399E+03  0.12508961494E+03 0.  0.
          5    1    3    3  502    0  0.34898687202E+02  0.76033401838E+02  0.80936171262E+02  0.11647803562E+03  0.41800000000E+01 0. -1.
         -5    1    3    3    0  502 -0.71175367267E+01 -0.42696569769E+02  0.88022426973E+02  0.98178798369E+02  0.41800000000E+01 0. -1.
        -11    1    1    2    0    0 -0.59756041646E+02 -0.79826644584E+01  0.10498578282E+03  0.12106412367E+03  0.00000000000E+00 0.  1.
         11    1    1    2    0    0  0.31974891171E+02 -0.25354167611E+02  0.70871553360E+02  0.81780221058E+02  0.00000000000E+00 0. -1.
</event>
<event>
 7    1  0.2626349E-009  0.1811970E+03  0.7561462E-02  0.1166650E+00
          2   -1    0    0  501    0  0.00000000000E+00  0.00000000000E+00  0.53043781499E+03  0.53043781499E+03  0.00000000000E+00 0. -1.
         -2   -1    0    0    0  501 -0.00000000000E+00 -0.00000000000E+00 -0.70675107477E+02  0.70675107477E+02  0.00000000000E+00 0.  1.
         25    2    1    2    0    0 -0.63169826022E+02  0.13660649973E+03  0.32166981844E+03  0.37652703636E+03  0.12509745930E+03 0.  0.
          5    1    3    3  502    0 -0.10110182520E+03  0.10580807286E+03  0.23228764962E+03  0.27457594925E+03  0.41800000000E+01 0.  1.
         -5    1    3    3    0  502  0.37931999174E+02  0.30798426877E+02  0.89382168821E+02  0.10195108711E+03  0.41800000000E+01 0.  1.
        -11    1    1    2    0    0 -0.13409461054E+02 -0.47993840840E+02  0.79002374556E+02  0.93405554385E+02  0.00000000000E+00 0.  1.
         11    1    1    2    0    0  0.76579287077E+02 -0.88612658894E+02  0.59090514513E+02  0.13118033172E+03  0.00000000000E+00 0. -1.
</event>
<event>
 7    1  0.2626349E-009  0.1046010E+03  0.7561462E-02  0.1270908E+00
          2   -1    0    0  501    0  0.00000000000E+00  0.00000000000E+00  0.21846180756E+04  0.21846180756E+04  0.00000000000E+00 0. -1.
         -2   -1    0    0    0  501 -0.00000000000E+00 -0.00000000000E+00 -0.11825003651E+02  0.11825003651E+02  0.00000000000E+00 0.  1.
         25    2    1    2    0    0  0.25499201937E+02 -0.66061850188E+02  0.18129373178E+04  0.18186268496E+04  0.12509005777E+03 0.  0.
          5    1    3    3  502    0  0.45466374720E+02 -0.56049723287E+02  0.47263160887E+03  0.47812851077E+03  0.41800000000E+01 0. -1.
         -5    1    3    3    0  502 -0.19967172784E+02 -0.10012126901E+02  0.13403057089E+04  0.13404983388E+04  0.41800000000E+01 0. -1.
        -11    1    1    2    0    0 -0.51377005033E+02  0.98644434799E+01  0.14136716084E+03  0.15073678401E+03  0.00000000000E+00 0.  1.
         11    1    1    2    0    0  0.25877803096E+02  0.56197406708E+02  0.21848859338E+03  0.22707944568E+03  0.00000000000E+00 0. -1.
</event>
<event>
 7    1  0.2626349E-009  0.1152756E+03  0.7561462E-02  0.1251101E+00
         -2   -1    0    0    0  501 -0.00000000000E+00  0.00000000000E+00  0.25585736033E+03  0.25585736033E+03  0.00000000000E+00 0.  1.
          2   -1    0    0  501    0  0.00000000000E+00 -0.00000000000E+00 -0.58413092153E+02  0.58413092153E+02  0.00000000000E+00 0. -1.
         25    2    1    2    0    0  0.21195420266E+01 -0.48809514725E+02  0.14785352935E+03  0.19973780720E+03  0.12509062434E+03 0.  0.
          5    1    3    3  502    0  0.26084333602E+01 -0.88500040061E+02  0.12652530052E+03  0.15448360782E+03  0.41800000000E+01 0.  1.
         -5    1    3    3    0  502 -0.48889133358E+00  0.39690525336E+02  0.21328228831E+02  0.45254199377E+02  0.41800000000E+01 0.  1.
        -11    1    1    2    0    0  0.40446441178E+02  0.43012202213E+02  0.37348935313E+02  0.69863489121E+02  0.00000000000E+00 0.  1.
         11    1    1    2    0    0 -0.42565983205E+02  0.57973125123E+01  0.12241803513E+02  0.44669156157E+02  0.00000000000E+00 0. -1.
</event>
<event>
 7    1  0.2626349E-009  0.2571278E+03  0.7561462E-02  0.1108881E+00
         -2   -1    0    0    0  501 -0.00000000000E+00  0.00000000000E+00  0.62149413215E+02  0.62149413215E+02  0.00000000000E+00 0. -1.
          2   -1    0    0  501    0  0.00000000000E+00 -0.00000000000E+00 -0.14216878007E+04  0.14216878007E+04  0.00000000000E+00 0.  1.
         25    2    1    2    0    0  0.22700999954E+03  0.67238561647E+02 -0.10495361782E+04  0.10831569244E+04  0.12509264303E+03 0.  0.
          5    1    3    3  502    0  0.23319950546E+03  0.80839181220E+02 -0.91442183069E+03  0.94715454885E+03  0.41800000000E+01 0. -1.
         -5    1    3    3    0  502 -0.61895059202E+01 -0.13600619573E+02 -0.13511434755E+03  0.13600237554E+03  0.41800000000E+01 0. -1.
        -11    1    1    2    0    0 -0.13365667197E+03 -0.82833006467E+02 -0.16880343756E+03  0.23069463248E+03  0.00000000000E+00 0.  1.
         11    1    1    2    0    0 -0.93353327575E+02  0.15594444820E+02 -0.14119877167E+03  0.16998565704E+03  0.00000000000E+00 0. -1.
</event>
<event>
 7    1  0.2626349E-009  0.1356103E+03  0.7561462E-02  0.1219361E+00
          2   -1    0    0  501    0  0.00000000000E+00  0.00000000000E+00  0.94951124296E+03  0.94951124296E+03  0.00000000000E+00 0. -1.
         -2   -1    0    0    0  501 -0.00000000000E+00 -0.00000000000E+00 -0.22471265211E+02  0.22471265211E+02  0.00000000000E+00 0.  1.
         25    2    1    2    0    0 -0.89524683258E+02 -0.24675590708E+02  0.62826853235E+03  0.64729619568E+03  0.12508981777E+03 0.  0.
          5    1    3    3  502    0 -0.13043470580E+02  0.44957298888E+02  0.12619343626E+03  0.13466085773E+03  0.41800000000E+01 0.  1.
         -5    1    3    3    0  502 -0.76481212678E+02 -0.69632889597E+02  0.50207509608E+03  0.51263533795E+03  0.41800000000E+01 0.  1.
        -11    1    1    2    0    0  0.10121746681E+02 -0.25050814498E+02  0.11829284613E+03  0.12133915489E+03  0.00000000000E+00 0. -1.
         11    1    1    2    0    0  0.79402936577E+02  0.49726405207E+02  0.18047859927E+03  0.20334715760E+03  0.00000000000E+00 0.  1.
</event>
<event>
 7    1  0.2626349E-009  0.1507079E+03  0.7561462E-02  0.1199606E+00
         -2   -1    0    0    0  501 -0.00000000000E+00  0.00000000000E+00  0.23892994961E+03  0.23892994961E+03  0.00000000000E+00 0.  1.
          2   -1    0    0  501    0  0.00000000000E+00 -0.00000000000E+00 -0.10978778573E+03  0.10978778573E+03  0.00000000000E+00 0. -1.
         25    2    1    2    0    0  0.47453118645E+02 -0.10970129354E+03  0.89356867505E+02  0.19472400490E+03  0.12508643427E+03 0.  0.
          5    1    3    3  502    0  0.67909439341E+02 -0.11375921918E+03  0.36106179376E+02  0.13738260621E+03  0.41800000000E+01 0. -1.
         -5    1    3    3    0  502 -0.20456320696E+02  0.40579256420E+01  0.53250688129E+02  0.57341398685E+02  0.41800000000E+01 0. -1.
        -11    1    1    2    0    0 -0.41663124246E+02  0.41348457805E+01  0.20135634273E+02  0.46458117043E+02  0.00000000000E+00 0. -1.
         11    1    1    2    0    0 -0.57899943989E+01  0.10556644776E+03  0.19649662104E+02  0.10753561340E+03  0.00000000000E+00 0.  1.
</event>
<event>
 7    1  0.2893551E-009  0.1213034E+03  0.7561462E-02  0.1240962E+00
         -2   -1    0    0    0  501 -0.00000000000E+00  0.00000000000E+00  0.28256168041E+02  0.28256168041E+02  0.00000000000E+00 0.  1.
          2   -1    0    0  501    0  0.00000000000E+00 -0.00000000000E+00 -0.67529736741E+03  0.67529736741E+03  0.00000000000E+00 0. -1.
         25    2    1    2    0    0 -0.40401952378E+02 -0.55752383875E+02 -0.22646187895E+03  0.26771682703E+03  0.12508665315E+03 0.  0.
          5    1    3    3  502    0 -0.81273760108E+02 -0.25383645127E+02 -0.10048579735E+03  0.13177488908E+03  0.41800000000E+01 0.  1.
         -5    1    3    3    0  502  0.40871807731E+02 -0.30368738748E+02 -0.12597608160E+03  0.13594193795E+03  0.41800000000E+01 0.  1.
        -11    1    1    2    0    0 -0.81920415283E+01  0.57071526849E+02 -0.14572149807E+03  0.15671318937E+03  0.00000000000E+00 0. -1.
         11    1    1    2    0    0  0.48593993906E+02 -0.13191429744E+01 -0.27485782234E+03  0.27912351905E+03  0.00000000000E+00 0.  1.
</event>
<event>
 7    1  0.2626349E-009  0.1020299E+03  0.7561462E-02  0.1276084E+00
          2   -1    0    0  501    0  0.00000000000E+00  0.00000000000E+00  0.35948593865E+03  0.35948593865E+03  0.00000000000E+00 0. -1.
         -2   -1    0    0    0  501 -0.00000000000E+00 -0.00000000000E+00 -0.44402395678E+02  0.44402395678E+02  0.00000000000E+00 0.  1.
         25    2    1    2    0    0 -0.94708695943E+01 -0.39279461861E+02  0.88400731843E+02  0.15841631991E+03  0.12509383489E+03 0.  0.
          5    1    3    3  502    0 -0.28725603674E+02  0.28120581584E+02 -0.58986708057E+01  0.40843532320E+02  0.41800000000E+01 0. -1.
         -5    1    3    3    0  502  0.19254734080E+02 -0.67400043444E+02  0.94299402649E+02  0.11757278759E+03  0.41800000000E+01 0. -1.
        -11    1    1    2    0    0  0.34511363741E+02  0.54214817071E+02  0.16973134631E+03  0.18149107564E+03  0.00000000000E+00 0.  1.
         11    1    1    2    0    0 -0.25040494146E+02 -0.14935355210E+02  0.56951464820E+02  0.63980938783E+02  0.00000000000E+00 0. -1.
</event>
<event>
 7    1  0.2626349E-009  0.1517793E+03  0.7561462E-02  0.1198304E+00
         -1   -1    0    0    0  501 -0.00000000000E+00  0.00000000000E+00  0.26379943645E+02  0.26379943645E+02  0.00000000000E+00 0.  1.
          1   -1    0    0  501    0  0.00000000000E+00 -0.00000000000E+00 -0.12042677447E+04  0.12042677447E+04  0.00000000000E+00 0. -1.
         25    2    1    2    0    0 -0.80118168281E+02 -0.11359575122E+03 -0.70289407813E+03  0.72734550034E+03  0.12509386956E+03 0.  0.
          5    1    3    3  502    0 -0.48825780521E+02 -0.81175942897E+02 -0.18889383221E+03  0.21135714512E+03  0.41800000000E+01 0. -1.
         -5    1    3    3    0  502 -0.31292387760E+02 -0.32419808325E+02 -0.51400024593E+03  0.51598835521E+03  0.41800000000E+01 0. -1.
        -11    1    1    2    0    0  0.73322908017E+02  0.29369543307E+02 -0.27674912556E+03  0.28780009974E+03  0.00000000000E+00 0. -1.
         11    1    1    2    0    0  0.67952602647E+01  0.84226207914E+02 -0.19824459731E+03  0.21550208821E+03  0.00000000000E+00 0.  1.
</event>
<event>
 7    1  0.2626349E-009  0.9397131E+02  0.7561462E-02  0.1293510E+00
         -1   -1    0    0    0  501 -0.00000000000E+00  0.00000000000E+00  0.30450319455E+02  0.30450319455E+02  0.00000000000E+00 0.  1.
          1   -1    0    0  501    0  0.00000000000E+00 -0.00000000000E+00 -0.50617021205E+03  0.50617021205E+03  0.00000000000E+00 0. -1.
         25    2    1    2    0    0 -0.23647116643E+02 -0.20586418545E+02 -0.15305736082E+03  0.20014160426E+03  0.12508844591E+03 0.  0.
          5    1    3    3  502    0 -0.49512133605E+02  0.19628045070E+02 -0.14081406624E+03  0.15060805151E+03  0.41800000000E+01 0.  1.
         -5    1    3    3    0  502  0.25865016961E+02 -0.40214463615E+02 -0.12243294580E+02  0.49533552754E+02  0.41800000000E+01 0.  1.
        -11    1    1    2    0    0  0.53034378246E+02  0.50345592787E+01 -0.26142244754E+03  0.26679521762E+03  0.00000000000E+00 0. -1.
         11    1    1    2    0    0 -0.29387261602E+02  0.15551859266E+02 -0.61240084230E+02  0.69683709628E+02  0.00000000000E+00 0.  1.
</event>
<event>
 7    1  0.2626349E-009  0.1039480E+03  0.7561462E-02  0.1272206E+00
          2   -1    0    0  501    0  0.00000000000E+00  0.00000000000E+00  0.25177846324E+02  0.25177846324E+02  0.00000000000E+00 0. -1.
         -2   -1    0    0    0  501 -0.00000000000E+00 -0.00000000000E+00 -0.54413691562E+03  0.54413691562E+03  0.00000000000E+00 0.  1.
         25    2    1    2    0    0  0.87375272626E+01 -0.42794252594E+02 -0.28312730328E+03  0.31259513162E+03  0.12508778522E+03 0.  0.
          5    1    3    3  502    0 -0.41081361230E+02 -0.53558218088E+00 -0.29746570549E+02  0.50894950125E+02  0.41800000000E+01 0.  1.
         -5    1    3    3    0  502  0.49818888492E+02 -0.42258670413E+02 -0.25338073273E+03  0.26170018149E+03  0.41800000000E+01 0.  1.
        -11    1    1    2    0    0 -0.40259302332E+02  0.54286996611E+02 -0.14817060206E+03  0.16285704388E+03  0.00000000000E+00 0.  1.
         11    1    1    2    0    0  0.31521775069E+02 -0.11492744017E+02 -0.87661163963E+02  0.93862586454E+02  0.00000000000E+00 0. -1.
</event>
<event>
 7    1  0.2626349E-009  0.1228632E+03  0.7561462E-02  0.1238447E+00
         -2   -1    0    0    0  501 -0.00000000000E+00  0.00000000000E+00  0.95751987994E+02  0.95751987994E+02  0.00000000000E+00 0.  1.
          2   -1    0    0  501    0  0.00000000000E+00 -0.00000000000E+00 -0.21030319065E+03  0.21030319065E+03  0.00000000000E+00 0. -1.
         25    2    1    2    0    0  0.81226441121E+02 -0.24142673993E+02 -0.29765001388E+02  0.15399332868E+03  0.12508951405E+03 0.  0.
          5    1    3    3  502    0 -0.13464450055E+02  0.11646589198E+02  0.30899214485E+02  0.35904990058E+02  0.41800000000E+01 0.  1.
         -5    1    3    3    0  502  0.94690891176E+02 -0.35789263191E+02 -0.60664215874E+02  0.11808833862E+03  0.41800000000E+01 0.  1.
        -11    1    1    2    0    0 -0.98573406414E+02  0.36187703939E+02 -0.68218460616E+02  0.12521990552E+03  0.00000000000E+00 0. -1.
         11    1    1    2    0    0  0.17346965293E+02 -0.12045029946E+02 -0.16567740649E+02  0.26841944443E+02  0.00000000000E+00 0.  1.
</event>
<event>
 7    1  0.2626349E-009  0.8409725E+02  0.7561462E-02  0.1317810E+00
         -3   -1    0    0    0  501 -0.00000000000E+00  0.00000000000E+00  0.32023558006E+03  0.32023558006E+03  0.00000000000E+00 0.  1.
          3   -1    0    0  501    0  0.00000000000E+00 -0.00000000000E+00 -0.12769001160E+03  0.12769001160E+03  0.00000000000E+00 0. -1.
         25    2    1    2    0    0 -0.19144040902E+02 -0.44947178465E+02 -0.80202038711E+02  0.15641825710E+03  0.12509021140E+03 0.  0.
          5    1    3    3  502    0  0.15324390415E+02 -0.70749222322E+01  0.30085929800E+02  0.34749489753E+02  0.41800000000E+01 0. -1.
         -5    1    3    3    0  502 -0.34468431318E+02 -0.37872256233E+02 -0.11028796851E+03  0.12166876735E+03  0.41800000000E+01 0. -1.
        -11    1    1    2    0    0  0.47537170961E+02  0.51708571954E+02  0.22331970813E+03  0.23410521369E+03  0.00000000000E+00 0.  1.
         11    1    1    2    0    0 -0.28393130059E+02 -0.67613934884E+01  0.49427899040E+02  0.57402120867E+02  0.00000000000E+00 0. -1.
</event>
<event>
 7    1  0.2626349E-009  0.9095732E+02  0.7561462E-02  0.1300550E+00
         -1   -1    0    0    0  501 -0.00000000000E+00  0.00000000000E+00  0.32334299430E+02  0.32334299430E+02  0.00000000000E+00 0.  1.
          1   -1    0    0  501    0  0.00000000000E+00 -0.00000000000E+00 -0.59686785047E+03  0.59686785047E+03  0.00000000000E+00 0. -1.
         25    2    1    2    0    0  0.37188561122E+02  0.48552033464E+02 -0.16991100507E+03  0.21967740913E+03  0.12509246743E+03 0.  0.
          5    1    3    3  502    0 -0.66792492733E+01  0.20791560936E+02  0.15491197844E+02  0.27098911190E+02  0.41800000000E+01 0. -1.
         -5    1    3    3    0  502  0.43867810395E+02  0.27760472527E+02 -0.18540220291E+03  0.19257849794E+03  0.41800000000E+01 0. -1.
        -11    1    1    2    0    0 -0.53449777155E+02  0.30085775069E+01 -0.23406804588E+03  0.24011201619E+03  0.00000000000E+00 0.  1.
         11    1    1    2    0    0  0.16261216033E+02 -0.51560610970E+02 -0.16055450008E+03  0.16941272457E+03  0.00000000000E+00 0. -1.
</event>
<event>
 7    1  0.2626349E-009  0.1390105E+03  0.7561462E-02  0.1214667E+00
         -2   -1    0    0    0  501 -0.00000000000E+00  0.00000000000E+00  0.22893010714E+02  0.22893010714E+02  0.00000000000E+00 0.  1.
          2   -1    0    0  501    0  0.00000000000E+00 -0.00000000000E+00 -0.96648281202E+03  0.96648281202E+03  0.00000000000E+00 0. -1.
         25    2    1    2    0    0 -0.90363222613E+02 -0.45098858315E+02 -0.53838487917E+03  0.56187623476E+03  0.12508879263E+03 0.  0.
          5    1    3    3  502    0 -0.86892197414E+02 -0.79983487432E+02 -0.47332708321E+03  0.48785613897E+03  0.41800000000E+01 0.  1.
         -5    1    3    3    0  502 -0.34710251984E+01  0.34884629117E+02 -0.65057795964E+02  0.74020095787E+02  0.41800000000E+01 0.  1.
        -11    1    1    2    0    0  0.82505514773E+02  0.38970809948E+01 -0.34060510892E+03  0.35047708545E+03  0.00000000000E+00 0. -1.
         11    1    1    2    0    0  0.78577078397E+01  0.41201777320E+02 -0.64599813212E+02  0.77022502516E+02  0.00000000000E+00 0.  1.
</event>
<event>
 7    1  0.2626349E-009  0.1052899E+03  0.7561462E-02  0.1269549E+00
          2   -1    0    0  501    0  0.00000000000E+00  0.00000000000E+00  0.80213221038E+03  0.80213221038E+03  0.00000000000E+00 0. -1.
         -2   -1    0    0    0  501 -0.00000000000E+00 -0.00000000000E+00 -0.19027957564E+02  0.19027957564E+02  0.00000000000E+00 0.  1.
         25    2    1    2    0    0 -0.72595029698E+00 -0.59355838822E+02  0.42093136161E+03  0.44311892643E+03  0.12509008420E+03 0.  0.
          5    1    3    3  502    0  0.28612109443E+02 -0.65982217013E+02  0.39952028834E+03  0.40596334682E+03  0.41800000000E+01 0. -1.
         -5    1    3    3    0  502 -0.29338059740E+02  0.66263781914E+01  0.21411073271E+02  0.37155579607E+02  0.41800000000E+01 0. -1.
        -11    1    1    2    0    0  0.42619035869E+02  0.49151164730E+02  0.22905987737E+03  0.23811897579E+03  0.00000000000E+00 0. -1.
         11    1    1    2    0    0 -0.41893085572E+02  0.10204674093E+02  0.13311301383E+03  0.13992226572E+03  0.00000000000E+00 0.  1.
</event>
<event>
 7    1  0.2626349E-009  0.1384319E+03  0.7561462E-02  0.1215455E+00
          2   -1    0    0  501    0  0.00000000000E+00  0.00000000000E+00  0.33650942402E+03  0.33650942402E+03  0.00000000000E+00 0.  1.
         -2   -1    0    0    0  501 -0.00000000000E+00 -0.00000000000E+00 -0.71574664907E+02  0.71574664907E+02  0.00000000000E+00 0. -1.
         25    2    1    2    0    0 -0.46543424721E+02 -0.86838080509E+02  0.71910512738E+02  0.17471825498E+03  0.12509278225E+03 0.  0.
          5    1    3    3  502    0 -0.63793992287E+02 -0.64685198702E+01 -0.17251413482E+01  0.64280352472E+02  0.41800000000E+01 0.  1.
         -5    1    3    3    0  502  0.17250567566E+02 -0.80369560639E+02  0.73635654086E+02  0.11043790251E+03  0.41800000000E+01 0.  1.
        -11    1    1    2    0    0  0.54264147843E+02  0.12659731964E+02  0.69576254161E+02  0.89138777743E+02  0.00000000000E+00 0.  1.
         11    1    1    2    0    0 -0.77207231222E+01  0.74178348545E+02  0.12344799221E+03  0.14422705620E+03  0.00000000000E+00 0. -1.
</event>
<event>
 7    1  0.2626349E-009  0.1117047E+03  0.7561462E-02  0.1257445E+00
          1   -1    0    0  501    0  0.00000000000E+00  0.00000000000E+00  0.11618070324E+04  0.11618070324E+04  0.00000000000E+00 0. -1.
         -1   -1    0    0    0  501 -0.00000000000E+00 -0.00000000000E+00 -0.15883262775E+02  0.15883262775E+02  0.00000000000E+00 0.  1.
         25    2    1    2    0    0 -0.61187311055E+02 -0.45997018275E+01  0.86219763003E+03  0.87338261332E+03  0.12508953485E+03 0.  0.
          5    1    3    3  502    0 -0.81135811643E+02  0.17849159259E+02  0.33000324995E+03  0.34032518243E+03  0.41800000000E+01 0.  1.
         -5    1    3    3    0  502  0.19948500588E+02 -0.22448861087E+02  0.53219438009E+03  0.53305743090E+03  0.41800000000E+01 0.  1.
        -11    1    1    2    0    0 -0.58098801496E+01  0.35610345685E+02  0.86999853191E+02  0.94185061886E+02  0.00000000000E+00 0.  1.
         11    1    1    2    0    0  0.66997191204E+02 -0.31010643857E+02  0.19672628645E+03  0.21012262001E+03  0.00000000000E+00 0. -1.
</event>
<event>
 7    1  0.2626349E-009  0.1406504E+03  0.7561462E-02  0.1212456E+00
         -1   -1    0    0    0  501 -0.00000000000E+00  0.00000000000E+00  0.78432815541E+03  0.78432815541E+03  0.00000000000E+00 0.  1.
          1   -1    0    0  501    0  0.00000000000E+00 -0.00000000000E+00 -0.38102795032E+02  0.38102795032E+02  0.00000000000E+00 0. -1.
         25    2    1    2    0    0  0.65255135086E+02 -0.91050307903E+02  0.57318411677E+03  0.59727409012E+03  0.12509162957E+03 0.  0.
          5    1    3    3  502    0 -0.28154891612E+02 -0.63745765498E+02  0.21287338691E+03  0.22402850666E+03  0.41800000000E+01 0.  1.
         -5    1    3    3    0  502  0.93410026697E+02 -0.27304542405E+02  0.36031072986E+03  0.37324558346E+03  0.41800000000E+01 0.  1.
        -11    1    1    2    0    0 -0.22420623447E+02  0.49793238567E+02  0.15291223353E+03  0.16237057039E+03  0.00000000000E+00 0. -1.
         11    1    1    2    0    0 -0.42834511638E+02  0.41257069336E+02  0.20129010077E+02  0.62786289938E+02  0.00000000000E+00 0.  1.
</event>
<event>
 7    1  0.2626349E-009  0.1927589E+03  0.7561462E-02  0.1155996E+00
         -1   -1    0    0    0  501 -0.00000000000E+00  0.00000000000E+00  0.57021772501E+02  0.57021772501E+02  0.00000000000E+00 0.  1.
          1   -1    0    0  501    0  0.00000000000E+00 -0.00000000000E+00 -0.77759879245E+03  0.77759879245E+03  0.00000000000E+00 0. -1.
         25    2    1    2    0    0 -0.17387652989E+03 -0.41694517570E+02 -0.42065079744E+03  0.47388500185E+03  0.12509364950E+03 0.  0.
          5    1    3    3  502    0 -0.14571529369E+03 -0.69899820511E+02 -0.24366949419E+03  0.29242302666E+03  0.41800000000E+01 0.  1.
         -5    1    3    3    0  502 -0.28161236206E+02  0.28205302941E+02 -0.17698130325E+03  0.18146197519E+03  0.41800000000E+01 0.  1.
        -11    1    1    2    0    0  0.97492758735E+02  0.15970534257E+01 -0.85787149445E+02  0.12987233576E+03  0.00000000000E+00 0.  1.
         11    1    1    2    0    0  0.76383771159E+02  0.40097464144E+02 -0.21413907307E+03  0.23086322735E+03  0.00000000000E+00 0. -1.
</event>
<event>
 7    1  0.2626349E-009  0.7247249E+02  0.7561462E-02  0.1351881E+00
         -3   -1    0    0    0  501 -0.00000000000E+00  0.00000000000E+00  0.52780902539E+02  0.52780902539E+02  0.00000000000E+00 0.  1.
          3   -1    0    0  501    0  0.00000000000E+00 -0.00000000000E+00 -0.23605506995E+03  0.23605506995E+03  0.00000000000E+00 0. -1.
         25    2    1    2    0    0  0.27582136385E+02  0.10077524473E+02 -0.78739181851E+02  0.15069725397E+03  0.12508985910E+03 0.  0.
          5    1    3    3  502    0  0.56299839797E+02 -0.21626744274E+01 -0.98473774924E+02  0.11352931723E+03  0.41800000000E+01 0. -1.
         -5    1    3    3    0  502 -0.28717703411E+02  0.12240198901E+02  0.19734593073E+02  0.37167936748E+02  0.41800000000E+01 0. -1.
        -11    1    1    2    0    0 -0.41743794280E+02 -0.57076679299E+01 -0.11332774982E+03  0.12090616491E+03  0.00000000000E+00 0. -1.
         11    1    1    2    0    0  0.14161657895E+02 -0.43698565435E+01  0.87927642576E+01  0.17232553607E+02  0.00000000000E+00 0.  1.
</event>
<event>
 7    1  0.2626349E-009  0.1204092E+03  0.7561462E-02  0.1242424E+00
          2   -1    0    0  501    0  0.00000000000E+00  0.00000000000E+00  0.87119257749E+03  0.87119257749E+03  0.00000000000E+00 0. -1.
         -2   -1    0    0    0  501 -0.00000000000E+00 -0.00000000000E+00 -0.17983339885E+02  0.17983339885E+02  0.00000000000E+00 0.  1.
         25    2    1    2    0    0  0.42607364361E+02  0.41418222571E+02  0.55108831206E+03  0.56822256820E+03  0.12509077769E+03 0.  0.
          5    1    3    3  502    0  0.74306702258E+02 -0.67384723210E+01  0.22598093244E+03  0.23801627515E+03  0.41800000000E+01 0. -1.
         -5    1    3    3    0  502 -0.31699337897E+02  0.48156694892E+02  0.32510737962E+03  0.33020629305E+03  0.41800000000E+01 0. -1.
        -11    1    1    2    0    0 -0.54249796972E+02  0.10346111628E+02  0.15836772396E+03  0.16772125235E+03  0.00000000000E+00 0. -1.
         11    1    1    2    0    0  0.11642432611E+02 -0.51764334199E+02  0.14375320159E+03  0.15323209683E+03  0.00000000000E+00 0.  1.
</event>
<event>
 7    1  0.2626349E-009  0.1174635E+03  0.7561462E-02  0.1247341E+00
          1   -1    0    0  501    0  0.00000000000E+00  0.00000000000E+00  0.39459247828E+03  0.39459247828E+03  0.00000000000E+00 0. -1.
         -1   -1    0    0    0  501 -0.00000000000E+00 -0.00000000000E+00 -0.52614356995E+02  0.52614356995E+02  0.00000000000E+00 0.  1.
         25    2    1    2    0    0  0.85282391924E+02  0.24633831866E+02  0.23058464446E+03  0.27694176538E+03  0.12509017190E+03 0.  0.
          5    1    3    3  502    0  0.10253721671E+03  0.25658175297E+02  0.10137742331E+03  0.14651647391E+03  0.41800000000E+01 0.  1.
         -5    1    3    3    0  502 -0.17254824782E+02 -0.10243434310E+01  0.12920722115E+03  0.13042529147E+03  0.41800000000E+01 0.  1.
        -11    1    1    2    0    0 -0.90369477122E+02 -0.43759177786E+01  0.45761860002E+02  0.10139003345E+03  0.00000000000E+00 0.  1.
         11    1    1    2    0    0  0.50870851984E+01 -0.20257914088E+02  0.65631616830E+02  0.68875036456E+02  0.00000000000E+00 0. -1.
</event>
<event>
 7    1  0.2626349E-009  0.1008385E+03  0.7561462E-02  0.1278542E+00
          1   -1    0    0  501    0  0.00000000000E+00  0.00000000000E+00  0.58494665091E+03  0.58494665091E+03  0.00000000000E+00 0. -1.
         -1   -1    0    0    0  501 -0.00000000000E+00 -0.00000000000E+00 -0.20742822862E+02  0.20742822862E+02  0.00000000000E+00 0.  1.
         25    2    1    2    0    0 -0.86823623424E+01  0.60295174235E+01  0.44548053900E+03  0.46283091004E+03  0.12509117540E+03 0.  0.
          5    1    3    3  502    0  0.34141233190E+01  0.64778738423E+02  0.24996299747E+03  0.25827681602E+03  0.41800000000E+01 0. -1.
         -5    1    3    3    0  502 -0.12096485661E+02 -0.58749221000E+02  0.19551754153E+03  0.20455409402E+03  0.41800000000E+01 0. -1.
        -11    1    1    2    0    0  0.29708638644E+02  0.25160462662E+02  0.41158050103E+02  0.56653659897E+02  0.00000000000E+00 0.  1.
         11    1    1    2    0    0 -0.21026276302E+02 -0.31189980085E+02  0.77565238939E+02  0.86204903831E+02  0.00000000000E+00 0. -1.
</event>
<event>
 7    1  0.2626349E-009  0.9530709E+02  0.7561462E-02  0.1290486E+00
         -1   -1    0    0    0  501 -0.00000000000E+00  0.00000000000E+00  0.43370043963E+02  0.43370043963E+02  0.00000000000E+00 0.  1.
          1   -1    0    0  501    0  0.00000000000E+00 -0.00000000000E+00 -0.84968882972E+03  0.84968882972E+03  0.00000000000E+00 0. -1.
         25    2    1    2    0    0 -0.47932018239E+02 -0.49164489890E+02 -0.75285238532E+03  0.76625633217E+03  0.12508967610E+03 0.  0.
          5    1    3    3  502    0 -0.20223435615E+02 -0.72004431288E+02 -0.68752239815E+03  0.69159102498E+03  0.41800000000E+01 0.  1.
         -5    1    3    3    0  502 -0.27708582623E+02  0.22839941397E+02 -0.65329987171E+02  0.74665307190E+02  0.41800000000E+01 0.  1.
        -11    1    1    2    0    0  0.24643971187E+02  0.50538900412E+02  0.11834923887E+02  0.57459300328E+02  0.00000000000E+00 0.  1.
         11    1    1    2    0    0  0.23288047052E+02 -0.13744105220E+01 -0.65301324319E+02  0.69343241182E+02  0.00000000000E+00 0. -1.
</event>
<event>
 7    1  0.2626349E-009  0.6379626E+02  0.7561462E-02  0.1382558E+00
          2   -1    0    0  501    0  0.00000000000E+00  0.00000000000E+00  0.21760019719E+03  0.21760019719E+03  0.00000000000E+00 0. -1.
         -2   -1    0    0    0  501 -0.00000000000E+00 -0.00000000000E+00 -0.68747898009E+02  0.68747898009E+02  0.00000000000E+00 0.  1.
         25    2    1    2    0    0  0.15788199239E+02  0.39953704235E+02  0.40527561633E+02  0.13833050891E+03  0.12508909116E+03 0.  0.
          5    1    3    3  502    0  0.17117632176E+02  0.96304153946E+01  0.83317044663E+02  0.85702745367E+02  0.41800000000E+01 0. -1.
         -5    1    3    3    0  502 -0.13294329377E+01  0.30323288840E+02 -0.42789483030E+02  0.52627763547E+02  0.41800000000E+01 0. -1.
        -11    1    1    2    0    0 -0.37254102120E+02 -0.40980047301E+02  0.22898613167E+02  0.59929782967E+02  0.00000000000E+00 0.  1.
         11    1    1    2    0    0  0.21465902881E+02  0.10263430661E+01  0.85426124385E+02  0.88087803321E+02  0.00000000000E+00 0. -1.
</event>
<event>
 7    1  0.2626349E-009  0.1678519E+03  0.7561462E-02  0.1180107E+00
         -1   -1    0    0    0  501 -0.00000000000E+00  0.00000000000E+00  0.32216741802E+02  0.32216741802E+02  0.00000000000E+00 0.  1.
          1   -1    0    0  501    0  0.00000000000E+00 -0.00000000000E+00 -0.10089722967E+04  0.10089722967E+04  0.00000000000E+00 0. -1.
         25    2    1    2    0    0 -0.13330255013E+03 -0.50699625909E+02 -0.57344236905E+03  0.60400698459E+03  0.12509302488E+03 0.  0.
          5    1    3    3  502    0 -0.49330311515E+02  0.26209297186E+02 -0.33601871014E+03  0.34065591564E+03  0.41800000000E+01 0.  1.
         -5    1    3    3    0  502 -0.83972238614E+02 -0.76908923095E+02 -0.23742365891E+03  0.26335106896E+03  0.41800000000E+01 0.  1.
        -11    1    1    2    0    0  0.29224584409E+02 -0.23846943958E+02 -0.13018389858E+03  0.13553818842E+03  0.00000000000E+00 0. -1.
         11    1    1    2    0    0  0.10407796572E+03  0.74546569867E+02 -0.27312928729E+03  0.30164386551E+03  0.00000000000E+00 0.  1.
</event>
<event>
 7    1  0.2626349E-009  0.1160342E+03  0.7561462E-02  0.1249787E+00
         -1   -1    0    0    0  501 -0.00000000000E+00  0.00000000000E+00  0.75002138234E+02  0.75002138234E+02  0.00000000000E+00 0.  1.
          1   -1    0    0  501    0  0.00000000000E+00 -0.00000000000E+00 -0.38052820141E+03  0.38052820141E+03  0.00000000000E+00 0. -1.
         25    2    1    2    0    0  0.40519949474E+02 -0.42349870925E+02 -0.78326594044E+01  0.13836261253E+03  0.12508990415E+03 0.  0.
          5    1    3    3  502    0  0.77261365546E+02 -0.54605254463E+02 -0.21438567327E+02  0.97098594172E+02  0.41800000000E+01 0.  1.
         -5    1    3    3    0  502 -0.36741416072E+02  0.12255383539E+02  0.13605907923E+02  0.41264018358E+02  0.41800000000E+01 0.  1.
        -11    1    1    2    0    0 -0.12252804765E+02 -0.23636548999E+02 -0.15676197448E+03  0.15900671154E+03  0.00000000000E+00 0.  1.
         11    1    1    2    0    0 -0.28267144709E+02  0.65986419924E+02 -0.14093142930E+03  0.15816101558E+03  0.00000000000E+00 0. -1.
</event>
<event>
 7    1  0.2626349E-009  0.1135651E+03  0.7561462E-02  0.1254107E+00
          1   -1    0    0  501    0  0.00000000000E+00  0.00000000000E+00  0.25224846871E+03  0.25224846871E+03  0.00000000000E+00 0. -1.
         -1   -1    0    0    0  501 -0.00000000000E+00 -0.00000000000E+00 -0.53500716696E+02  0.53500716696E+02  0.00000000000E+00 0.  1.
         25    2    1    2    0    0  0.33498608489E+02  0.27225283189E+02  0.91166286520E+02  0.16069314246E+03  0.12509045295E+03 0.  0.
          5    1    3    3  502    0  0.71964170389E+02 -0.15890778409E+02  0.58499519699E+02  0.94186118209E+02  0.41800000000E+01 0.  1.
         -5    1    3    3    0  502 -0.38465561900E+02  0.43116061598E+02  0.32666766821E+02  0.66507024249E+02  0.41800000000E+01 0.  1.
        -11    1    1    2    0    0 -0.39505880600E+02  0.22386846780E+02  0.37000281708E+02  0.58573939232E+02  0.00000000000E+00 0. -1.
         11    1    1    2    0    0  0.60072721105E+01 -0.49612129969E+02  0.70581183784E+02  0.86482103713E+02  0.00000000000E+00 0.  1.
</event>
<event>
 7    1  0.2626349E-009  0.8664325E+02  0.7561462E-02  0.1311190E+00
          1   -1    0    0  501    0  0.00000000000E+00  0.00000000000E+00  0.37949376988E+03  0.37949376988E+03  0.00000000000E+00 0. -1.
         -1   -1    0    0    0  501 -0.00000000000E+00 -0.00000000000E+00 -0.45081009155E+02  0.45081009155E+02  0.00000000000E+00 0.  1.
         25    2    1    2    0    0 -0.17951595057E+02  0.69666807761E+02  0.13087621681E+03  0.19481169444E+03  0.12508912141E+03 0.  0.
          5    1    3    3  502    0  0.73902965954E+01 -0.12073091906E+02  0.10396088151E+03  0.10500339669E+03  0.41800000000E+01 0. -1.
         -5    1    3    3    0  502 -0.25341891652E+02  0.81739899666E+02  0.26915335296E+02  0.89808297746E+02  0.41800000000E+01 0. -1.
        -11    1    1    2    0    0 -0.13074434934E+01 -0.11506788789E+02 -0.48512448010E+01  0.12555882002E+02  0.00000000000E+00 0.  1.
         11    1    1    2    0    0  0.19259038550E+02 -0.58160018971E+02  0.20838778872E+03  0.21720720260E+03  0.00000000000E+00 0. -1.
</event>
<event>
 7    1  0.2626349E-009  0.1734130E+03  0.7561462E-02  0.1174335E+00
         -3   -1    0    0    0  501 -0.00000000000E+00  0.00000000000E+00  0.13505737247E+03  0.13505737247E+03  0.00000000000E+00 0.  1.
          3   -1    0    0  501    0  0.00000000000E+00 -0.00000000000E+00 -0.34022734417E+03  0.34022734417E+03  0.00000000000E+00 0. -1.
         25    2    1    2    0    0 -0.12497097378E+03  0.71404195427E+02 -0.23489008617E+03  0.30255136210E+03  0.12509064998E+03 0.  0.
          5    1    3    3  502    0  0.15250154638E+02 -0.17941122331E+02 -0.36931747725E+02  0.43998607671E+02  0.41800000000E+01 0. -1.
         -5    1    3    3    0  502 -0.14022112842E+03  0.89345317758E+02 -0.19795833845E+03  0.25855275443E+03  0.41800000000E+01 0. -1.
        -11    1    1    2    0    0  0.43498870126E+02 -0.60321616087E+02  0.47985167495E+02  0.88506640254E+02  0.00000000000E+00 0.  1.
         11    1    1    2    0    0  0.81472103655E+02 -0.11082579340E+02 -0.18265053023E+02  0.84226714294E+02  0.00000000000E+00 0. -1.
</event>
<event>
 7    1  0.2626349E-009  0.1846818E+03  0.7561462E-02  0.1163347E+00
         -2   -1    0    0    0  501 -0.00000000000E+00  0.00000000000E+00  0.42132134500E+02  0.42132134500E+02  0.00000000000E+00 0.  1.
          2   -1    0    0  501    0  0.00000000000E+00 -0.00000000000E+00 -0.89534162702E+03  0.89534162702E+03  0.00000000000E+00 0. -1.
         25    2    1    2    0    0 -0.15253254960E+03 -0.48369305905E+02 -0.49238452200E+03  0.53263092807E+03  0.12508964621E+03 0.  0.
          5    1    3    3  502    0 -0.17015077474E+03 -0.42784797237E+02 -0.47687929469E+03  0.50814678895E+03  0.41800000000E+01 0. -1.
         -5    1    3    3    0  502  0.17618225144E+02 -0.55845086681E+01 -0.15505227312E+02  0.24484139116E+02  0.41800000000E+01 0. -1.
        -11    1    1    2    0    0  0.37715115655E+02  0.46778832142E+02 -0.18782190841E+03  0.19719979301E+03  0.00000000000E+00 0.  1.
         11    1    1    2    0    0  0.11481743394E+03  0.15904737630E+01 -0.17300306211E+03  0.20764304044E+03  0.00000000000E+00 0. -1.
</event>
<event>
 7    1  0.2626349E-009  0.7618342E+02  0.7561462E-02  0.1340245E+00
         -1   -1    0    0    0  501 -0.00000000000E+00  0.00000000000E+00  0.32619159666E+02  0.32619159666E+02  0.00000000000E+00 0.  1.
          1   -1    0    0  501    0  0.00000000000E+00 -0.00000000000E+00 -0.43314171965E+03  0.43314171965E+03  0.00000000000E+00 0. -1.
         25    2    1    2    0    0  0.45200027048E+02  0.18584222031E+01 -0.24481408276E+03  0.27861931916E+03  0.12509314016E+03 0.  0.
          5    1    3    3  502    0  0.27068766044E+02 -0.14045989998E+02 -0.25139485365E+03  0.25327228978E+03  0.41800000000E+01 0. -1.
         -5    1    3    3    0  502  0.18131261003E+02  0.15904412202E+02  0.65807708860E+01  0.25347029382E+02  0.41800000000E+01 0. -1.
        -11    1    1    2    0    0  0.12234891530E+02 -0.30547321009E+02 -0.24358998161E+02  0.40941326102E+02  0.00000000000E+00 0.  1.
         11    1    1    2    0    0 -0.57434918578E+02  0.28688898806E+02 -0.13134947906E+03  0.14620023405E+03  0.00000000000E+00 0. -1.
</event>
<event>
 7    1  0.2626349E-009  0.1252618E+03  0.7561462E-02  0.1234661E+00
          4   -1    0    0  501    0  0.00000000000E+00  0.00000000000E+00  0.27090081568E+03  0.27090081568E+03  0.00000000000E+00 0. -1.
         -4   -1    0    0    0  501 -0.00000000000E+00 -0.00000000000E+00 -0.72486006855E+02  0.72486006855E+02  0.00000000000E+00 0.  1.
         25    2    1    2    0    0 -0.78745521093E+02 -0.21358687097E+01  0.57167265907E+02  0.15849826037E+03  0.12509269851E+03 0.  0.
          5    1    3    3  502    0  0.38092444625E+01 -0.46746579415E+02  0.42497986422E+02  0.63429522151E+02  0.41800000000E+01 0. -1.
         -5    1    3    3    0  502 -0.82554765556E+02  0.44610710705E+02  0.14669279485E+02  0.95068738217E+02  0.41800000000E+01 0. -1.
        -11    1    1    2    0    0  0.46920566174E+02 -0.36503443881E+02  0.39154659871E+02  0.71183764546E+02  0.00000000000E+00 0.  1.
         11    1    1    2    0    0  0.31824954919E+02  0.38639312591E+02  0.10209288305E+03  0.11370479762E+03  0.00000000000E+00 0. -1.
</event>
<event>
 7    1  0.2626349E-009  0.1653646E+03  0.7561462E-02  0.1182770E+00
         -2   -1    0    0    0  501 -0.00000000000E+00  0.00000000000E+00  0.35047634560E+02  0.35047634560E+02  0.00000000000E+00 0.  1.
          2   -1    0    0  501    0  0.00000000000E+00 -0.00000000000E+00 -0.84001037896E+03  0.84001037896E+03  0.00000000000E+00 0. -1.
         25    2    1    2    0    0  0.13034954642E+03 -0.29200258031E+02 -0.46258165326E+03  0.49746690163E+03  0.12509145840E+03 0.  0.
          5    1    3    3  502    0  0.14487989358E+03 -0.52961488078E+02 -0.40396419577E+03  0.43243455765E+03  0.41800000000E+01 0.  1.
         -5    1    3    3    0  502 -0.14530347154E+02  0.23761230047E+02 -0.58617457488E+02  0.65032343985E+02  0.41800000000E+01 0.  1.
        -11    1    1    2    0    0 -0.17043781595E+02  0.30499791245E+02 -0.15265860505E+03  0.15660580275E+03  0.00000000000E+00 0. -1.
         11    1    1    2    0    0 -0.11330576483E+03 -0.12995332143E+01 -0.18972248608E+03  0.22098530914E+03  0.00000000000E+00 0.  1.
</event>
<event>
 7    1  0.2626349E-009  0.1293369E+03  0.7561462E-02  0.1228443E+00
         -1   -1    0    0    0  501 -0.00000000000E+00  0.00000000000E+00  0.56515433204E+02  0.56515433204E+02  0.00000000000E+00 0.  1.
          1   -1    0    0  501    0  0.00000000000E+00 -0.00000000000E+00 -0.32872686656E+03  0.32872686656E+03  0.00000000000E+00 0. -1.
         25    2    1    2    0    0  0.77759543734E+02 -0.36929871674E+01 -0.19177348877E+03  0.24183734250E+03  0.12509214379E+03 0.  0.
          5    1    3    3  502    0  0.91561903905E+02  0.35508823723E+02 -0.96209904507E+02  0.13754372735E+03  0.41800000000E+01 0. -1.
         -5    1    3    3    0  502 -0.13802360170E+02 -0.39201810890E+02 -0.95563584267E+02  0.10429361515E+03  0.41800000000E+01 0. -1.
        -11    1    1    2    0    0 -0.11922016106E+02 -0.38571723365E+02 -0.30367344379E+02  0.50518193910E+02  0.00000000000E+00 0.  1.
         11    1    1    2    0    0 -0.65837527629E+02  0.42264710532E+02 -0.50070600202E+02  0.92886763348E+02  0.00000000000E+00 0. -1.
</event>
<event>
 7    1  0.2626349E-009  0.1832292E+03  0.7561462E-02  0.1164714E+00
         -1   -1    0    0    0  501 -0.00000000000E+00  0.00000000000E+00  0.12884750461E+03  0.12884750461E+03  0.00000000000E+00 0.  1.
          1   -1    0    0  501    0  0.00000000000E+00 -0.00000000000E+00 -0.30018587815E+03  0.30018587815E+03  0.00000000000E+00 0. -1.
         25    2    1    2    0    0  0.15074721768E+03 -0.21610645419E+02 -0.17546087806E+02  0.19785785419E+03  0.12509245234E+03 0.  0.
          5    1    3    3  502    0  0.13525363867E+03  0.33433043716E+02 -0.70159590318E+01  0.13956364593E+03  0.41800000000E+01 0.  1.
         -5    1    3    3    0  502  0.15493579012E+02 -0.55043689135E+02 -0.10530128774E+02  0.58294208256E+02  0.41800000000E+01 0.  1.
        -11    1    1    2    0    0 -0.58040476689E+02 -0.28163305780E+02 -0.38688883940E+02  0.75224320982E+02  0.00000000000E+00 0.  1.
         11    1    1    2    0    0 -0.92706740992E+02  0.49773951199E+02 -0.11510340179E+03  0.15595120759E+03  0.00000000000E+00 0. -1.
</event>
<event>
 7    1  0.2626349E-009  0.1169266E+03  0.7561462E-02  0.1248255E+00
         -2   -1    0    0    0  501 -0.00000000000E+00  0.00000000000E+00  0.13677979104E+02  0.13677979104E+02  0.00000000000E+00 0.  1.
          2   -1    0    0  501    0  0.00000000000E+00 -0.00000000000E+00 -0.17325363201E+04  0.17325363201E+04  0.00000000000E+00 0. -1.
         25    2    1    2    0    0 -0.77724521008E+02  0.36268009391E+02 -0.13012588616E+04  0.13100682412E+04  0.12509077477E+03 0.  0.
          5    1    3    3  502    0 -0.33699589507E+02 -0.19918360339E+02 -0.11302729987E+03  0.11968728557E+03  0.41800000000E+01 0.  1.
         -5    1    3    3    0  502 -0.44024931502E+02  0.56186369730E+02 -0.11882315617E+04  0.11903809556E+04  0.41800000000E+01 0.  1.
        -11    1    1    2    0    0  0.27019350488E+02  0.29456840271E+02 -0.18237524191E+03  0.18670425705E+03  0.00000000000E+00 0.  1.
         11    1    1    2    0    0  0.50705170520E+02 -0.65724849662E+02 -0.23522423745E+03  0.24944180096E+03  0.00000000000E+00 0. -1.
</event>
<event>
 7    1  0.2626349E-009  0.1059942E+03  0.7561462E-02  0.1268173E+00
          2   -1    0    0  501    0  0.00000000000E+00  0.00000000000E+00  0.18184069043E+03  0.18184069043E+03  0.00000000000E+00 0. -1.
         -2   -1    0    0    0  501 -0.00000000000E+00 -0.00000000000E+00 -0.12093236147E+03  0.12093236147E+03  0.00000000000E+00 0.  1.
         25    2    1    2    0    0  0.65037031388E+02 -0.26356437180E+02  0.10652864980E+03  0.17866101009E+03  0.12508767352E+03 0.  0.
          5    1    3    3  502    0 -0.45157317905E+01 -0.46976169238E+02 -0.27173860422E+01  0.47455335809E+02  0.41800000000E+01 0.  1.
         -5    1    3    3    0  502  0.69552763179E+02  0.20619732058E+02  0.10924603585E+03  0.13120567428E+03  0.41800000000E+01 0.  1.
        -11    1    1    2    0    0 -0.20592617541E+02  0.40391543488E+02  0.14901147176E+02  0.47723965360E+02  0.00000000000E+00 0. -1.
         11    1    1    2    0    0 -0.44444413848E+02 -0.14035106308E+02 -0.60521468021E+02  0.76388076444E+02  0.00000000000E+00 0.  1.
</event>
<event>
 7    1  0.2626349E-009  0.1753541E+03  0.7561462E-02  0.1172377E+00
          1   -1    0    0  501    0  0.00000000000E+00  0.00000000000E+00  0.28713078126E+03  0.28713078126E+03  0.00000000000E+00 0. -1.
         -1   -1    0    0    0  501 -0.00000000000E+00 -0.00000000000E+00 -0.13476613077E+03  0.13476613077E+03  0.00000000000E+00 0.  1.
         25    2    1    2    0    0 -0.14951476258E+03 -0.30930543867E+02  0.30280081986E+02  0.19968367970E+03  0.12508127678E+03 0.  0.
          5    1    3    3  502    0  0.19993315429E+02 -0.15494858927E+01  0.17813458001E+02  0.27146367240E+02  0.41800000000E+01 0. -1.
         -5    1    3    3    0  502 -0.16950807801E+03 -0.29381057974E+02  0.12466623985E+02  0.17253731246E+03  0.41800000000E+01 0. -1.
        -11    1    1    2    0    0  0.13685558326E+03  0.14830714631E+02  0.13901636009E+03  0.19563984548E+03  0.00000000000E+00 0. -1.
         11    1    1    2    0    0  0.12659179312E+02  0.16099829236E+02 -0.16931791587E+02  0.26573386849E+02  0.00000000000E+00 0.  1.
</event>
<event>
 7    1  0.2985715E-009  0.1311725E+03  0.7561462E-02  0.1225726E+00
          2   -1    0    0  501    0  0.00000000000E+00  0.00000000000E+00  0.64581882901E+03  0.64581882901E+03  0.00000000000E+00 0. -1.
         -2   -1    0    0    0  501 -0.00000000000E+00 -0.00000000000E+00 -0.33788239525E+02  0.33788239525E+02  0.00000000000E+00 0.  1.
         25    2    1    2    0    0  0.40320040006E+02 -0.78524995822E+02  0.22521521227E+03  0.27232609165E+03  0.12509087801E+03 0.  0.
          5    1    3    3  502    0 -0.37342703912E+02 -0.35086666505E+02  0.13962281495E+03  0.14878694350E+03  0.41800000000E+01 0.  1.
         -5    1    3    3    0  502  0.77662743918E+02 -0.43438329317E+02  0.85592397326E+02  0.12353914815E+03  0.41800000000E+01 0.  1.
        -11    1    1    2    0    0  0.26201480425E+02  0.16952721579E+02  0.54267494018E+02  0.62600904565E+02  0.00000000000E+00 0.  1.
         11    1    1    2    0    0 -0.66521520431E+02  0.61572274243E+02  0.33254788319E+03  0.34468007232E+03  0.00000000000E+00 0. -1.
</event>
<event>
 7    1  0.2626349E-009  0.1500974E+03  0.7561462E-02  0.1200353E+00
         -1   -1    0    0    0  501 -0.00000000000E+00  0.00000000000E+00  0.27869558994E+03  0.27869558994E+03  0.00000000000E+00 0.  1.
          1   -1    0    0  501    0  0.00000000000E+00 -0.00000000000E+00 -0.11845949387E+03  0.11845949387E+03  0.00000000000E+00 0. -1.
         25    2    1    2    0    0 -0.11012865941E+03 -0.35747336076E+02 -0.20021789606E+02  0.17162153504E+03  0.12508751165E+03 0.  0.
          5    1    3    3  502    0 -0.30605413275E+02  0.46349810084E+02 -0.12236313156E+01  0.55713246990E+02  0.41800000000E+01 0.  1.
         -5    1    3    3    0  502 -0.79523246132E+02 -0.82097146160E+02 -0.18798158291E+02  0.11590828805E+03  0.41800000000E+01 0.  1.
        -11    1    1    2    0    0  0.24255644376E+02  0.36996858257E+02  0.33493872694E+02  0.55488226797E+02  0.00000000000E+00 0. -1.
         11    1    1    2    0    0  0.85873015031E+02 -0.12495221817E+01  0.14676401299E+03  0.17004532197E+03  0.00000000000E+00 0.  1.
</event>
<event>
 7    1  0.2626349E-009  0.8866582E+02  0.7561462E-02  0.1306115E+00
         -2   -1    0    0    0  501 -0.00000000000E+00  0.00000000000E+00  0.11492061206E+03  0.11492061206E+03  0.00000000000E+00 0. -1.
          2   -1    0    0  501    0  0.00000000000E+00 -0.00000000000E+00 -0.14367928494E+03  0.14367928494E+03  0.00000000000E+00 0.  1.
         25    2    1    2    0    0  0.36124387644E+02 -0.35345755578E+02 -0.65495563367E+02  0.14997187223E+03  0.12509036662E+03 0.  0.
          5    1    3    3  502    0 -0.17434814440E+02 -0.23002484288E+02  0.28646127574E+02  0.40879824645E+02  0.41800000000E+01 0.  1.
         -5    1    3    3    0  502  0.53559202084E+02 -0.12343271290E+02 -0.94141690941E+02  0.10909204759E+03  0.41800000000E+01 0.  1.
        -11    1    1    2    0    0  0.12158922697E+02  0.42526975147E+02  0.40093716420E+02  0.59698317503E+02  0.00000000000E+00 0. -1.
         11    1    1    2    0    0 -0.48283310341E+02 -0.71812195690E+01 -0.33568259346E+01  0.48929707258E+02  0.00000000000E+00 0.  1.
</event>
<event>
 7    1  0.2626349E-009  0.1172686E+03  0.7561462E-02  0.1247672E+00
         -1   -1    0    0    0  501 -0.00000000000E+00  0.00000000000E+00  0.72496336715E+02  0.72496336715E+02  0.00000000000E+00 0.  1.
          1   -1    0    0  501    0  0.00000000000E+00 -0.00000000000E+00 -0.38070779452E+03  0.38070779452E+03  0.00000000000E+00 0. -1.
         25    2    1    2    0    0 -0.39025657603E+02 -0.99502424438E+02 -0.75669651328E+02  0.18109975655E+03  0.12508993272E+03 0.  0.
          5    1    3    3  502    0  0.33275128134E+01 -0.66016614458E+02  0.21689518817E+02  0.69693424026E+02  0.41800000000E+01 0. -1.
         -5    1    3    3    0  502 -0.42353170416E+02 -0.33485809980E+02 -0.97359170145E+02  0.11140633252E+03  0.41800000000E+01 0. -1.
        -11    1    1    2    0    0  0.89134914854E+01  0.74446946338E+02 -0.62508998916E+02  0.97617483551E+02  0.00000000000E+00 0.  1.
         11    1    1    2    0    0  0.30112166117E+02  0.25055478100E+02 -0.17003280756E+03  0.17448689113E+03  0.00000000000E+00 0. -1.
</event>
<event>
 7    1  0.2626349E-009  0.1438090E+03  0.7561462E-02  0.1208294E+00
          2   -1    0    0  501    0  0.00000000000E+00  0.00000000000E+00  0.23688830318E+03  0.23688830318E+03  0.00000000000E+00 0. -1.
         -2   -1    0    0    0  501 -0.00000000000E+00 -0.00000000000E+00 -0.10961438593E+03  0.10961438593E+03  0.00000000000E+00 0.  1.
         25    2    1    2    0    0 -0.87694159511E+02 -0.68548958717E+02  0.11241460240E+03  0.20167747028E+03  0.12509010284E+03 0.  0.
          5    1    3    3  502    0  0.19049396474E+02 -0.43995344868E+02  0.52931147778E+01  0.48414453835E+02  0.41800000000E+01 0. -1.
         -5    1    3    3    0  502 -0.10674355598E+03 -0.24553613849E+02  0.10712148763E+03  0.15326301644E+03  0.41800000000E+01 0. -1.
        -11    1    1    2    0    0  0.97878582462E+02  0.68892021284E+02  0.32876724766E+02  0.12412576901E+03  0.00000000000E+00 0. -1.
         11    1    1    2    0    0 -0.10184422951E+02 -0.34306256712E+00 -0.18017409923E+02  0.20699449826E+02  0.00000000000E+00 0.  1.
</event>
<event>
 7    1  0.2626349E-009  0.1007328E+03  0.7561462E-02  0.1278762E+00
          4   -1    0    0  501    0  0.00000000000E+00  0.00000000000E+00  0.25095362152E+03  0.25095362152E+03  0.00000000000E+00 0.  1.
         -4   -1    0    0    0  501 -0.00000000000E+00 -0.00000000000E+00 -0.57700133013E+02  0.57700133013E+02  0.00000000000E+00 0. -1.
         25    2    1    2    0    0 -0.31710334417E+02 -0.11748853960E+02  0.16230968120E+03  0.20768007230E+03  0.12507197505E+03 0.  0.
          5    1    3    3  502    0 -0.16721424846E+02 -0.68162238090E+02  0.77495673331E+02  0.10463626778E+03  0.41800000000E+01 0. -1.
         -5    1    3    3    0  502 -0.14988909571E+02  0.56413384131E+02  0.84814007867E+02  0.10304380452E+03  0.41800000000E+01 0. -1.
        -11    1    1    2    0    0  0.41194034511E+01  0.35799638302E+02 -0.17659069817E+02  0.40130117545E+02  0.00000000000E+00 0. -1.
         11    1    1    2    0    0  0.27590930966E+02 -0.24050784343E+02  0.48602877130E+02  0.60843564691E+02  0.00000000000E+00 0.  1.
</event>
<event>
 7    1  0.2626349E-009  0.1856024E+03  0.7561462E-02  0.1162489E+00
          1   -1    0    0  501    0  0.00000000000E+00  0.00000000000E+00  0.11964256810E+04  0.11964256810E+04  0.00000000000E+00 0. -1.
         -1   -1    0    0    0  501 -0.00000000000E+00 -0.00000000000E+00 -0.39497128285E+02  0.39497128285E+02  0.00000000000E+00 0.  1.
         25    2    1    2    0    0 -0.34053597406E+02  0.14636708119E+03  0.88275130322E+03  0.90414602764E+03  0.12508879254E+03 0.  0.
          5    1    3    3  502    0 -0.30158181065E+02 -0.93852889386E+01  0.74853475823E+02  0.81351796393E+02  0.41800000000E+01 0.  1.
         -5    1    3    3    0  502 -0.38954163407E+01  0.15575237013E+03  0.80789782740E+03  0.82279423125E+03  0.41800000000E+01 0.  1.
        -11    1    1    2    0    0 -0.73754681160E+01 -0.14159209451E+03  0.23556591482E+03  0.27494366511E+03  0.00000000000E+00 0. -1.
         11    1    1    2    0    0  0.41429065522E+02 -0.47749866776E+01  0.38611334633E+02  0.56833116489E+02  0.00000000000E+00 0.  1.
</event>
<event>
 7    1  0.2626349E-009  0.1053990E+03  0.7561462E-02  0.1269336E+00
          4   -1    0    0  501    0  0.00000000000E+00  0.00000000000E+00  0.55404280484E+02  0.55404280484E+02  0.00000000000E+00 0. -1.
         -4   -1    0    0    0  501 -0.00000000000E+00 -0.00000000000E+00 -0.24735052561E+03  0.24735052561E+03  0.00000000000E+00 0.  1.
         25    2    1    2    0    0  0.37723480166E+02 -0.22665585661E+02 -0.11283883761E+03  0.17411981316E+03  0.12509323055E+03 0.  0.
          5    1    3    3  502    0  0.63366906319E+02  0.13855916593E+02 -0.15298729776E+02  0.66774806430E+02  0.41800000000E+01 0.  1.
         -5    1    3    3    0  502 -0.25643426153E+02 -0.36521502255E+02 -0.97540107839E+02  0.10734500673E+03  0.41800000000E+01 0.  1.
        -11    1    1    2    0    0 -0.14982388490E+01  0.53431114406E+02 -0.47933989196E+02  0.71796908196E+02  0.00000000000E+00 0.  1.
         11    1    1    2    0    0 -0.36225241317E+02 -0.30765528745E+02 -0.31173418311E+02  0.56838084738E+02  0.00000000000E+00 0. -1.
</event>
<event>
 7    1  0.2626349E-009  0.1073604E+03  0.7561462E-02  0.1265538E+00
          1   -1    0    0  501    0  0.00000000000E+00  0.00000000000E+00  0.39355304487E+02  0.39355304487E+02  0.00000000000E+00 0. -1.
         -1   -1    0    0    0  501 -0.00000000000E+00 -0.00000000000E+00 -0.41531909528E+03  0.41531909528E+03  0.00000000000E+00 0.  1.
         25    2    1    2    0    0 -0.60973124256E+02  0.27232539339E+02 -0.19736721326E+03  0.24302360753E+03  0.12508926358E+03 0.  0.
          5    1    3    3  502    0 -0.70265723734E+02 -0.33901804471E+02 -0.91197834338E+02  0.12008797469E+03  0.41800000000E+01 0.  1.
         -5    1    3    3    0  502  0.92925994775E+01  0.61134343810E+02 -0.10616937893E+03  0.12293563283E+03  0.41800000000E+01 0.  1.
        -11    1    1    2    0    0  0.46486191339E+02 -0.34988367932E+02 -0.18506176361E+03  0.19399228909E+03  0.00000000000E+00 0.  1.
         11    1    1    2    0    0  0.14486932917E+02  0.77558285925E+01  0.64651860816E+01  0.17658503152E+02  0.00000000000E+00 0. -1.
</event>
<event>
 7    1  0.2626349E-009  0.9361160E+02  0.7561462E-02  0.1294334E+00
         -2   -1    0    0    0  501 -0.00000000000E+00  0.00000000000E+00  0.34260478132E+02  0.34260478132E+02  0.00000000000E+00 0. -1.
          2   -1    0    0  501    0  0.00000000000E+00 -0.00000000000E+00 -0.45491000237E+03  0.45491000237E+03  0.00000000000E+00 0.  1.
         25    2    1    2    0    0  0.36637692830E+02 -0.35457240821E+02 -0.30292344978E+03  0.33167543907E+03  0.12508574656E+03 0.  0.
          5    1    3    3  502    0 -0.67413168859E+01 -0.63467160479E+02 -0.24824646315E+03  0.25635386613E+03  0.41800000000E+01 0. -1.
         -5    1    3    3    0  502  0.43379009716E+02  0.28009919658E+02 -0.54676986629E+02  0.75321572939E+02  0.41800000000E+01 0. -1.
        -11    1    1    2    0    0 -0.28612699966E+02 -0.59960988284E+01 -0.11094376325E+03  0.11473080843E+03  0.00000000000E+00 0.  1.
         11    1    1    2    0    0 -0.80249928641E+01  0.41453339649E+02 -0.67823112085E+01  0.42764232998E+02  0.00000000000E+00 0. -1.
</event>
<event>
 7    1  0.2626349E-009  0.1533019E+03  0.7561462E-02  0.1196473E+00
         -2   -1    0    0    0  501 -0.00000000000E+00  0.00000000000E+00  0.48372634953E+03  0.48372634953E+03  0.00000000000E+00 0.  1.
          2   -1    0    0  501    0  0.00000000000E+00 -0.00000000000E+00 -0.61929383160E+02  0.61929383160E+02  0.00000000000E+00 0. -1.
         25    2    1    2    0    0 -0.65381670260E+02 -0.98350613769E+02  0.12410101328E+03  0.21212278034E+03  0.12508959352E+03 0.  0.
          5    1    3    3  502    0 -0.61495023713E+02  0.97534284514E+01  0.58536567659E+02  0.85561495203E+02  0.41800000000E+01 0.  1.
         -5    1    3    3    0  502 -0.38866465462E+01 -0.10810404222E+03  0.65564445623E+02  0.12656128514E+03  0.41800000000E+01 0.  1.
        -11    1    1    2    0    0  0.67127074208E+02  0.41187533755E+02  0.23874631195E+03  0.25140059367E+03  0.00000000000E+00 0.  1.
         11    1    1    2    0    0 -0.17454039486E+01  0.57163080015E+02  0.58949641139E+02  0.82132358679E+02  0.00000000000E+00 0. -1.
</event>
<event>
 7    1  0.2626349E-009  0.4461473E+03  0.7561462E-02  0.1028877E+00
          1   -1    0    0  501    0  0.00000000000E+00  0.00000000000E+00  0.12229058133E+04  0.12229058133E+04  0.00000000000E+00 0. -1.
         -1   -1    0    0    0  501 -0.00000000000E+00 -0.00000000000E+00 -0.28583483598E+03  0.28583483598E+03  0.00000000000E+00 0.  1.
         25    2    1    2    0    0 -0.43186029683E+03 -0.31888615442E+02 -0.23494995633E+02  0.45135320844E+03  0.12508998433E+03 0.  0.
          5    1    3    3  502    0 -0.34388867337E+03  0.25992559614E+02 -0.26599472326E+02  0.34591911938E+03  0.41800000000E+01 0. -1.
         -5    1    3    3    0  502 -0.87971623460E+02 -0.57881175057E+02  0.31044766931E+01  0.10543408906E+03  0.41800000000E+01 0. -1.
        -11    1    1    2    0    0  0.37380050919E+03 -0.38749493510E+01  0.81468688525E+03  0.89635738235E+03  0.00000000000E+00 0. -1.
         11    1    1    2    0    0  0.58059787641E+02  0.35763564793E+02  0.14587908770E+03  0.16103005848E+03  0.00000000000E+00 0.  1.
</event>
<event>
 7    1  0.2626349E-009  0.1087973E+03  0.7561462E-02  0.1262813E+00
         -3   -1    0    0    0  501 -0.00000000000E+00  0.00000000000E+00  0.96418850897E+02  0.96418850897E+02  0.00000000000E+00 0.  1.
          3   -1    0    0  501    0  0.00000000000E+00 -0.00000000000E+00 -0.15781901335E+03  0.15781901335E+03  0.00000000000E+00 0. -1.
         25    2    1    2    0    0 -0.29358273188E+02 -0.38639548332E+02 -0.43191352422E+02  0.14094824516E+03  0.12508393977E+03 0.  0.
          5    1    3    3  502    0 -0.71557752890E+02 -0.51162370864E+02 -0.17428014154E+02  0.89773650190E+02  0.41800000000E+01 0. -1.
         -5    1    3    3    0  502  0.42199479702E+02  0.12522822533E+02 -0.25763338268E+02  0.51174594967E+02  0.41800000000E+01 0. -1.
        -11    1    1    2    0    0  0.41888790349E+02  0.52147054738E+02  0.20884212575E+02  0.70072365520E+02  0.00000000000E+00 0.  1.
         11    1    1    2    0    0 -0.12530517161E+02 -0.13507506406E+02 -0.39093022603E+02  0.43217253566E+02  0.00000000000E+00 0. -1.
</event>
<event>
 7    1  0.2626349E-009  0.1115444E+03  0.7561462E-02  0.1257736E+00
          1   -1    0    0  501    0  0.00000000000E+00  0.00000000000E+00  0.21132148285E+03  0.21132148285E+03  0.00000000000E+00 0. -1.
         -1   -1    0    0    0  501 -0.00000000000E+00 -0.00000000000E+00 -0.74472861317E+02  0.74472861317E+02  0.00000000000E+00 0.  1.
         25    2    1    2    0    0 -0.25711729434E+02  0.56293601556E+02  0.83333658885E+02  0.16254271156E+03  0.12508226002E+03 0.  0.
          5    1    3    3  502    0  0.45223026756E+02  0.43081842927E+02  0.18053374617E+02  0.65150319063E+02  0.41800000000E+01 0. -1.
         -5    1    3    3    0  502 -0.70934756189E+02  0.13211758630E+02  0.65280284268E+02  0.97392392495E+02  0.41800000000E+01 0. -1.
        -11    1    1    2    0    0 -0.49907403147E+00 -0.61491079076E+02  0.68954109641E+02  0.92390860572E+02  0.00000000000E+00 0. -1.
         11    1    1    2    0    0  0.26210803465E+02  0.51974775192E+01 -0.15439146994E+02  0.30860772037E+02  0.00000000000E+00 0.  1.
</event>
<event>
 7    1  0.2626349E-009  0.8296439E+02  0.7561462E-02  0.1320843E+00
          1   -1    0    0  501    0  0.00000000000E+00  0.00000000000E+00  0.73437463278E+02  0.73437463278E+02  0.00000000000E+00 0. -1.
         -1   -1    0    0    0  501 -0.00000000000E+00 -0.00000000000E+00 -0.28494913864E+03  0.28494913864E+03  0.00000000000E+00 0.  1.
         25    2    1    2    0    0 -0.46274016303E+02 -0.65043654341E+02 -0.17957535087E+03  0.23295439846E+03  0.12509389900E+03 0.  0.
          5    1    3    3  502    0 -0.13701757617E+02 -0.34955460283E+02 -0.18433101304E+03  0.18816220963E+03  0.41800000000E+01 0.  1.
         -5    1    3    3    0  502 -0.32572258686E+02 -0.30088194058E+02  0.47556621707E+01  0.44792188831E+02  0.41800000000E+01 0.  1.
        -11    1    1    2    0    0  0.15703722754E+02  0.43407205344E+02 -0.62076537293E+02  0.77358185516E+02  0.00000000000E+00 0.  1.
         11    1    1    2    0    0  0.30570293549E+02  0.21636448998E+02  0.30140212802E+02  0.48074017937E+02  0.00000000000E+00 0. -1.
</event>
<event>
 7    1  0.2626349E-009  0.1110502E+03  0.7561462E-02  0.1258637E+00
          3   -1    0    0  501    0  0.00000000000E+00  0.00000000000E+00  0.39619294278E+02  0.39619294278E+02  0.00000000000E+00 0. -1.
         -3   -1    0    0    0  501 -0.00000000000E+00 -0.00000000000E+00 -0.38372142627E+03  0.38372142627E+03  0.00000000000E+00 0.  1.
         25    2    1    2    0    0 -0.20924769025E+01  0.11010609461E+02 -0.27619658567E+03  0.30340968134E+03  0.12508904355E+03 0.  0.
          5    1    3    3  502    0 -0.47946898476E+02  0.46148037623E+02 -0.12867381513E+03  0.14492401302E+03  0.41800000000E+01 0. -1.
         -5    1    3    3    0  502  0.45854421574E+02 -0.35137428162E+02 -0.14752277054E+03  0.15848566833E+03  0.41800000000E+01 0. -1.
        -11    1    1    2    0    0 -0.46261815634E+02  0.50817549334E+01 -0.42332387870E+02  0.62912724323E+02  0.00000000000E+00 0. -1.
         11    1    1    2    0    0  0.48354292536E+02 -0.16092364394E+02 -0.25573158447E+02  0.57018314877E+02  0.00000000000E+00 0.  1.
</event>
<event>
 7    1  0.2626349E-009  0.2511149E+03  0.7561462E-02  0.1112602E+00
         -2   -1    0    0    0  501 -0.00000000000E+00  0.00000000000E+00  0.30478543021E+03  0.30478543021E+03  0.00000000000E+00 0.  1.
          2   -1    0    0  501    0  0.00000000000E+00 -0.00000000000E+00 -0.23329662113E+03  0.23329662113E+03  0.00000000000E+00 0. -1.
         25    2    1    2    0    0 -0.99403285398E+02  0.22198153944E+03  0.43279309831E+02  0.27690801259E+03  0.12509249289E+03 0.  0.
          5    1    3    3  502    0 -0.10193332070E+03  0.21769864798E+03  0.69205629337E+02  0.25017992472E+03  0.41800000000E+01 0. -1.
         -5    1    3    3    0  502  0.25300352972E+01  0.42828914545E+01 -0.25926319506E+02  0.26728087866E+02  0.41800000000E+01 0. -1.
        -11    1    1    2    0    0  0.19803483292E+02 -0.13871607412E+03 -0.82065021263E+01  0.14036265118E+03  0.00000000000E+00 0.  1.
         11    1    1    2    0    0  0.79599802106E+02 -0.83265465316E+02  0.36416001374E+02  0.12081138757E+03  0.00000000000E+00 0. -1.
</event>
<event>
 7    1  0.2724160E-009  0.3642005E+02  0.7561462E-02  0.1536340E+00
         -1   -1    0    0    0  501 -0.00000000000E+00  0.00000000000E+00  0.74860235122E+02  0.74860235122E+02  0.00000000000E+00 0. -1.
          1   -1    0    0  501    0  0.00000000000E+00 -0.00000000000E+00 -0.17493813267E+03  0.17493813267E+03  0.00000000000E+00 0.  1.
         25    2    1    2    0    0  0.13568444205E+02 -0.30886550075E+02 -0.40601339285E+02  0.13576923814E+03  0.12508691226E+03 0.  0.
          5    1    3    3  502    0  0.13313161241E+02 -0.13239794179E+02  0.44646218748E+02  0.48613677711E+02  0.41800000000E+01 0. -1.
         -5    1    3    3    0  502  0.25528296399E+00 -0.17646755896E+02 -0.85247558033E+02  0.87155560429E+02  0.41800000000E+01 0. -1.
        -11    1    1    2    0    0 -0.55741478187E+01  0.24803729195E+02 -0.83875297001E+02  0.87643377120E+02  0.00000000000E+00 0.  1.
         11    1    1    2    0    0 -0.79942963868E+01  0.60828208801E+01  0.24398738740E+02  0.26385752532E+02  0.00000000000E+00 0. -1.
</event>
<event>
 7    1  0.2626349E-009  0.9674148E+02  0.7561462E-02  0.1287301E+00
         -1   -1    0    0    0  501 -0.00000000000E+00  0.00000000000E+00  0.42650021663E+02  0.42650021663E+02  0.00000000000E+00 0.  1.
          1   -1    0    0  501    0  0.00000000000E+00 -0.00000000000E+00 -0.35346945885E+03  0.35346945885E+03  0.00000000000E+00 0. -1.
         25    2    1    2    0    0 -0.46297591385E+02 -0.35065422683E+02 -0.20344345648E+03  0.24578353593E+03  0.12508899117E+03 0.  0.
          5    1    3    3  502    0  0.13370848314E+02 -0.64594682238E+02 -0.68142495891E+02  0.94932211100E+02  0.41800000000E+01 0. -1.
         -5    1    3    3    0  502 -0.59668439699E+02  0.29529259555E+02 -0.13530096059E+03  0.15085132483E+03  0.41800000000E+01 0. -1.
        -11    1    1    2    0    0  0.25933390849E+02  0.86746868675E+01  0.93837874851E+01  0.28911008643E+02  0.00000000000E+00 0.  1.
         11    1    1    2    0    0  0.20364200535E+02  0.26390735815E+02 -0.11675976820E+03  0.12142493595E+03  0.00000000000E+00 0. -1.
</event>
<event>
 7    1  0.2626349E-009  0.8958729E+02  0.7561462E-02  0.1303854E+00
         -2   -1    0    0    0  501 -0.00000000000E+00  0.00000000000E+00  0.27405026448E+02  0.27405026448E+02  0.00000000000E+00 0.  1.
          2   -1    0    0  501    0  0.00000000000E+00 -0.00000000000E+00 -0.56551164872E+03  0.56551164872E+03  0.00000000000E+00 0. -1.
         25    2    1    2    0    0 -0.42830387489E+02  0.17438184233E+02 -0.39988344575E+03  0.42153758581E+03  0.12509449910E+03 0.  0.
          5    1    3    3  502    0 -0.85179586319E+02  0.17588237356E+02 -0.31151562230E+03  0.32345689567E+03  0.41800000000E+01 0.  1.
         -5    1    3    3    0  502  0.42349198830E+02 -0.15005312338E+00 -0.88367823443E+02  0.98080690136E+02  0.41800000000E+01 0.  1.
        -11    1    1    2    0    0  0.31872498210E+02 -0.38770385451E+01 -0.14796400839E+03  0.15140751418E+03  0.00000000000E+00 0. -1.
         11    1    1    2    0    0  0.10957889279E+02 -0.13561145688E+02  0.97408318664E+01  0.19971575183E+02  0.00000000000E+00 0.  1.
</event>
<event>
 7    1  0.2626349E-009  0.9796561E+02  0.7561462E-02  0.1284633E+00
         -1   -1    0    0    0  501 -0.00000000000E+00  0.00000000000E+00  0.26887386591E+02  0.26887386591E+02  0.00000000000E+00 0.  1.
          1   -1    0    0  501    0  0.00000000000E+00 -0.00000000000E+00 -0.53780924081E+03  0.53780924081E+03  0.00000000000E+00 0. -1.
         25    2    1    2    0    0 -0.46696157216E+02  0.52910691943E+01 -0.35125243355E+03  0.37580955620E+03  0.12508406750E+03 0.  0.
          5    1    3    3  502    0 -0.24087304752E+02 -0.51844433159E+02 -0.25630813494E+03  0.26263925057E+03  0.41800000000E+01 0. -1.
         -5    1    3    3    0  502 -0.22608852464E+02  0.57135502353E+02 -0.94944298603E+02  0.11317030563E+03  0.41800000000E+01 0. -1.
        -11    1    1    2    0    0  0.47888620963E+02 -0.27205475820E+02 -0.15747743288E+03  0.16683105166E+03  0.00000000000E+00 0. -1.
         11    1    1    2    0    0 -0.11924637464E+01  0.21914406626E+02 -0.21919877914E+01  0.22056019542E+02  0.00000000000E+00 0.  1.
</event>
<event>
 7    1  0.2626349E-009  0.2923747E+03  0.7561462E-02  0.1089116E+00
         -1   -1    0    0    0  501 -0.00000000000E+00  0.00000000000E+00  0.14529732673E+04  0.14529732673E+04  0.00000000000E+00 0.  1.
          1   -1    0    0  501    0  0.00000000000E+00 -0.00000000000E+00 -0.58974453563E+02  0.58974453563E+02  0.00000000000E+00 0. -1.
         25    2    1    2    0    0 -0.13983966906E+03  0.23264522353E+03  0.72229503914E+03  0.78168800440E+03  0.12508828715E+03 0.  0.
          5    1    3    3  502    0 -0.91826139986E+02  0.23318832168E+03  0.60207369541E+03  0.65216488748E+03  0.41800000000E+01 0.  1.
         -5    1    3    3    0  502 -0.48013529072E+02 -0.54309814717E+00  0.12022134373E+03  0.12952311692E+03  0.41800000000E+01 0.  1.
        -11    1    1    2    0    0  0.15246575216E+03 -0.20475983666E+03  0.61354027967E+03  0.66453297215E+03  0.00000000000E+00 0.  1.
         11    1    1    2    0    0 -0.12626083107E+02 -0.27885386876E+02  0.58163494896E+02  0.65726744286E+02  0.00000000000E+00 0. -1.
</event>
<event>
 7    1  0.2626349E-009  0.2366372E+03  0.7561462E-02  0.1122054E+00
         -2   -1    0    0    0  501 -0.00000000000E+00  0.00000000000E+00  0.11397468183E+03  0.11397468183E+03  0.00000000000E+00 0.  1.
          2   -1    0    0  501    0  0.00000000000E+00 -0.00000000000E+00 -0.58941453873E+03  0.58941453873E+03  0.00000000000E+00 0. -1.
         25    2    1    2    0    0  0.12902832492E+03 -0.19472266803E+03 -0.31018353892E+03  0.40794843900E+03  0.12507147953E+03 0.  0.
          5    1    3    3  502    0  0.49153481563E+02 -0.10552063346E+03 -0.61068793946E+02  0.13152010808E+03  0.41800000000E+01 0. -1.
         -5    1    3    3    0  502  0.79874843361E+02 -0.89202034570E+02 -0.24911474497E+03  0.27642833092E+03  0.41800000000E+01 0. -1.
        -11    1    1    2    0    0 -0.37799163960E+02  0.92749513781E+02 -0.33818623555E+02  0.10571162851E+03  0.00000000000E+00 0.  1.
         11    1    1    2    0    0 -0.91229160963E+02  0.10197315425E+03 -0.13143769443E+03  0.18972915304E+03  0.00000000000E+00 0. -1.
</event>
<event>
 7    1  0.2626349E-009  0.1096464E+03  0.7561462E-02  0.1261226E+00
          1   -1    0    0  501    0  0.00000000000E+00  0.00000000000E+00  0.13112680347E+03  0.13112680347E+03  0.00000000000E+00 0. -1.
         -1   -1    0    0    0  501 -0.00000000000E+00 -0.00000000000E+00 -0.12645922943E+03  0.12645922943E+03  0.00000000000E+00 0.  1.
         25    2    1    2    0    0  0.61155426646E+02 -0.42872276392E+02  0.17162401146E+02  0.14669941472E+03  0.12509257362E+03 0.  0.
          5    1    3    3  502    0  0.61028969295E+01  0.33659040342E+02  0.36685035080E+02  0.50333294612E+02  0.41800000000E+01 0. -1.
         -5    1    3    3    0  502  0.55052529716E+02 -0.76531316734E+02 -0.19522633934E+02  0.96366120109E+02  0.41800000000E+01 0. -1.
        -11    1    1    2    0    0 -0.46526208419E+02  0.14674830478E+01  0.25271727568E+02  0.52966987743E+02  0.00000000000E+00 0. -1.
         11    1    1    2    0    0 -0.14629218227E+02  0.41404793344E+02 -0.37766554679E+02  0.57919630438E+02  0.00000000000E+00 0.  1.
</event>
<event>
 7    1  0.2626349E-009  0.1099881E+03  0.7561462E-02  0.1260592E+00
         -2   -1    0    0    0  501 -0.00000000000E+00  0.00000000000E+00  0.15162607937E+02  0.15162607937E+02  0.00000000000E+00 0.  1.
          2   -1    0    0  501    0  0.00000000000E+00 -0.00000000000E+00 -0.83244623891E+03  0.83244623891E+03  0.00000000000E+00 0. -1.
         25    2    1    2    0    0  0.19068708504E+02  0.73384704412E+01 -0.38894157618E+03  0.40907450072E+03  0.12509567804E+03 0.  0.
          5    1    3    3  502    0 -0.45374548072E+02  0.33281881565E+02 -0.19620497122E+03  0.20415777327E+03  0.41800000000E+01 0. -1.
         -5    1    3    3    0  502  0.64443256576E+02 -0.25943411124E+02 -0.19273660496E+03  0.20491672745E+03  0.41800000000E+01 0. -1.
        -11    1    1    2    0    0 -0.55008517093E+02  0.66065119652E+01 -0.25907076391E+03  0.26492875206E+03  0.00000000000E+00 0. -1.
         11    1    1    2    0    0  0.35939808589E+02 -0.13944982406E+02 -0.16927129088E+03  0.17360559407E+03  0.00000000000E+00 0.  1.
</event>
<event>
 7    1  0.2626349E-009  0.6182126E+02  0.7561462E-02  0.1390344E+00
         -1   -1    0    0    0  501 -0.00000000000E+00  0.00000000000E+00  0.95168157062E+02  0.95168157062E+02  0.00000000000E+00 0.  1.
          1   -1    0    0  501    0  0.00000000000E+00 -0.00000000000E+00 -0.13609348106E+03  0.13609348106E+03  0.00000000000E+00 0. -1.
         25    2    1    2    0    0 -0.24490974334E+02  0.22806802379E+01 -0.49390255323E+02  0.13671996057E+03  0.12509173023E+03 0.  0.
          5    1    3    3  502    0 -0.41643141158E+02  0.18779500781E+02  0.29281139984E+02  0.54421304779E+02  0.41800000000E+01 0.  1.
         -5    1    3    3    0  502  0.17152166824E+02 -0.16498820543E+02 -0.78671395307E+02  0.82298655795E+02  0.41800000000E+01 0.  1.
        -11    1    1    2    0    0  0.12631087126E+02  0.22686331569E+02 -0.34667039073E+02  0.43313018830E+02  0.00000000000E+00 0. -1.
         11    1    1    2    0    0  0.11859887209E+02 -0.24967011807E+02  0.43131970401E+02  0.51228658716E+02  0.00000000000E+00 0.  1.
</event>
<event>
 7    1  0.2626349E-009  0.1177576E+03  0.7561462E-02  0.1246843E+00
         -1   -1    0    0    0  501 -0.00000000000E+00  0.00000000000E+00  0.12625681861E+03  0.12625681861E+03  0.00000000000E+00 0.  1.
          1   -1    0    0  501    0  0.00000000000E+00 -0.00000000000E+00 -0.49676493268E+03  0.49676493268E+03  0.00000000000E+00 0. -1.
         25    2    1    2    0    0 -0.55454107197E+02  0.63766154721E+02  0.69022342901E+02  0.16599099850E+03  0.12509055628E+03 0.  0.
          5    1    3    3  502    0 -0.48455347194E+02 -0.45086318379E-01  0.86582746761E+02  0.99307437492E+02  0.41800000000E+01 0.  1.
         -5    1    3    3    0  502 -0.69987600026E+01  0.63811241039E+02 -0.17560403860E+02  0.66683561005E+02  0.41800000000E+01 0.  1.
        -11    1    1    2    0    0 -0.10801585352E+02 -0.54606078172E+02 -0.24758969702E+03  0.25376988807E+03  0.00000000000E+00 0. -1.
         11    1    1    2    0    0  0.66255692549E+02 -0.91600765489E+01 -0.19194075995E+03  0.20326086473E+03  0.00000000000E+00 0.  1.
</event>
<event>
 7    1  0.2757524E-009  0.1175798E+03  0.7561462E-02  0.1247144E+00
         -1   -1    0    0    0  501 -0.00000000000E+00  0.00000000000E+00  0.24858291583E+02  0.24858291583E+02  0.00000000000E+00 0.  1.
          1   -1    0    0  501    0  0.00000000000E+00 -0.00000000000E+00 -0.73164466040E+03  0.73164466040E+03  0.00000000000E+00 0. -1.
         25    2    1    2    0    0  0.47495293172E+02  0.35596013909E+02 -0.53918907935E+03  0.55667884933E+03  0.12507437358E+03 0.  0.
          5    1    3    3  502    0 -0.32258490117E+02  0.40721102834E+02 -0.29900683928E+03  0.30351504202E+03  0.41800000000E+01 0. -1.
         -5    1    3    3    0  502  0.79753783290E+02 -0.51250889247E+01 -0.24018224007E+03  0.25316380731E+03  0.41800000000E+01 0. -1.
        -11    1    1    2    0    0 -0.60667819869E+02 -0.53430830894E+02 -0.99463071701E+02  0.12817308879E+03  0.00000000000E+00 0.  1.
         11    1    1    2    0    0  0.13172526697E+02  0.17834816985E+02 -0.68134217769E+02  0.71651013862E+02  0.00000000000E+00 0. -1.
</event>
<event>
 7    1  0.2626349E-009  0.1050606E+03  0.7561462E-02  0.1270000E+00
          3   -1    0    0  501    0  0.00000000000E+00  0.00000000000E+00  0.53751905462E+03  0.53751905462E+03  0.00000000000E+00 0. -1.
         -3   -1    0    0    0  501 -0.00000000000E+00 -0.00000000000E+00 -0.42616180646E+02  0.42616180646E+02  0.00000000000E+00 0.  1.
         25    2    1    2    0    0  0.57503311348E+02 -0.51928378773E+02  0.13042555906E+03  0.19662489418E+03  0.12508930896E+03 0.  0.
          5    1    3    3  502    0  0.71157440476E+02 -0.67457664397E+02  0.14196036428E+03  0.17258080788E+03  0.41800000000E+01 0. -1.
         -5    1    3    3    0  502 -0.13654129128E+02  0.15529285624E+02 -0.11534805224E+02  0.24044086296E+02  0.41800000000E+01 0. -1.
        -11    1    1    2    0    0 -0.58833784805E+02  0.25002111156E+02  0.34337373075E+03  0.34927358727E+03  0.00000000000E+00 0. -1.
         11    1    1    2    0    0  0.13304734571E+01  0.26926267617E+02  0.21103584163E+02  0.34236753817E+02  0.00000000000E+00 0.  1.
</event>
<event>
 7    1  0.2626349E-009  0.1315425E+03  0.7561462E-02  0.1225185E+00
          2   -1    0    0  501    0  0.00000000000E+00  0.00000000000E+00  0.11920587116E+03  0.11920587116E+03  0.00000000000E+00 0. -1.
         -2   -1    0    0    0  501 -0.00000000000E+00 -0.00000000000E+00 -0.25390656443E+03  0.25390656443E+03  0.00000000000E+00 0.  1.
         25    2    1    2    0    0 -0.36480549083E+02 -0.88218639874E+02  0.31625339522E+02  0.16049614346E+03  0.12508193748E+03 0.  0.
          5    1    3    3  502    0  0.23534508983E+02 -0.75542839650E+02  0.53089337175E+02  0.95375803311E+02  0.41800000000E+01 0.  1.
         -5    1    3    3    0  502 -0.60015058066E+02 -0.12675800224E+02 -0.21463997653E+02  0.65120340150E+02  0.41800000000E+01 0.  1.
        -11    1    1    2    0    0 -0.86968645273E+01 -0.10601329288E+02 -0.56434779124E+02  0.58076741731E+02  0.00000000000E+00 0.  1.
         11    1    1    2    0    0  0.45177413610E+02  0.98819969162E+02 -0.10989125367E+03  0.15453955040E+03  0.00000000000E+00 0. -1.
</event>
<event>
 7    1  0.2626349E-009  0.8354222E+02  0.7561462E-02  0.1319289E+00
          1   -1    0    0  501    0  0.00000000000E+00  0.00000000000E+00  0.52346031261E+03  0.52346031261E+03  0.00000000000E+00 0. -1.
         -1   -1    0    0    0  501 -0.00000000000E+00 -0.00000000000E+00 -0.36073262708E+02  0.36073262708E+02  0.00000000000E+00 0.  1.
         25    2    1    2    0    0  0.17420439029E+02 -0.61736592777E+02  0.35861133619E+03  0.38518065950E+03  0.12508865426E+03 0.  0.
          5    1    3    3  502    0  0.10870663818E+02 -0.23354262765E+02  0.17271258746E+01  0.26154316755E+02  0.41800000000E+01 0. -1.
         -5    1    3    3    0  502  0.65497752111E+01 -0.38382330013E+02  0.35688421031E+03  0.35902634274E+03  0.41800000000E+01 0. -1.
        -11    1    1    2    0    0 -0.33308812141E+02 -0.45897166948E+01  0.63596145415E+01  0.34219689693E+02  0.00000000000E+00 0.  1.
         11    1    1    2    0    0  0.15888373111E+02  0.66326309472E+02  0.12241609918E+03  0.14013322613E+03  0.00000000000E+00 0. -1.
</event>
<event>
 7    1  0.2626349E-009  0.9793991E+02  0.7561462E-02  0.1284689E+00
         -2   -1    0    0    0  501 -0.00000000000E+00  0.00000000000E+00  0.16577928660E+02  0.16577928660E+02  0.00000000000E+00 0.  1.
          2   -1    0    0  501    0  0.00000000000E+00 -0.00000000000E+00 -0.73719780247E+03  0.73719780247E+03  0.00000000000E+00 0. -1.
         25    2    1    2    0    0 -0.11484897056E+02  0.11087102354E+02 -0.47019159542E+03  0.48680699292E+03  0.12508431256E+03 0.  0.
          5    1    3    3  502    0 -0.43548470647E+02 -0.28532835748E+02 -0.37615707387E+03  0.37976599194E+03  0.41800000000E+01 0.  1.
         -5    1    3    3    0  502  0.32063573590E+02  0.39619938101E+02 -0.94034521547E+02  0.10704100097E+03  0.41800000000E+01 0.  1.
        -11    1    1    2    0    0  0.71545016850E+01 -0.51434634554E+02 -0.14090419488E+03  0.15016890711E+03  0.00000000000E+00 0.  1.
         11    1    1    2    0    0  0.43303953712E+01  0.40347532200E+02 -0.10952408350E+03  0.11679983110E+03  0.00000000000E+00 0. -1.
</event>
<event>
 7    1  0.2626349E-009  0.1546861E+03  0.7561462E-02  0.1194830E+00
          2   -1    0    0  501    0  0.00000000000E+00  0.00000000000E+00  0.36895756138E+03  0.36895756138E+03  0.00000000000E+00 0. -1.
         -2   -1    0    0    0  501 -0.00000000000E+00 -0.00000000000E+00 -0.93925525185E+02  0.93925525185E+02  0.00000000000E+00 0.  1.
         25    2    1    2    0    0  0.63942877464E+02  0.11908069372E+03  0.59524471021E+02  0.19354370023E+03  0.12508836097E+03 0.  0.
          5    1    3    3  502    0  0.12585437951E+02 -0.14909573923E+02  0.45035340119E+02  0.49257922232E+02  0.41800000000E+01 0.  1.
         -5    1    3    3    0  502  0.51357439514E+02  0.13399026765E+03  0.14489130903E+02  0.14428577800E+03  0.41800000000E+01 0.  1.
        -11    1    1    2    0    0  0.17089554870E+01 -0.51902215207E+02  0.26552611718E+02  0.58324966020E+02  0.00000000000E+00 0.  1.
         11    1    1    2    0    0 -0.65651832951E+02 -0.67178478517E+02  0.18895495345E+03  0.21101442031E+03  0.00000000000E+00 0. -1.
</event>
<event>
 7    1  0.2626349E-009  0.1072765E+03  0.7561462E-02  0.1265698E+00
         -2   -1    0    0    0  501 -0.00000000000E+00  0.00000000000E+00  0.50875524733E+02  0.50875524733E+02  0.00000000000E+00 0.  1.
          2   -1    0    0  501    0  0.00000000000E+00 -0.00000000000E+00 -0.24252947139E+03  0.24252947139E+03  0.00000000000E+00 0. -1.
         25    2    1    2    0    0 -0.18418417144E+02 -0.17026470923E+02 -0.93816718202E+02  0.15835676104E+03  0.12508456480E+03 0.  0.
          5    1    3    3  502    0  0.28297638718E+02  0.39798185612E+02 -0.59469470750E+02  0.77063235634E+02  0.41800000000E+01 0.  1.
         -5    1    3    3    0  502 -0.46716055862E+02 -0.56824656535E+02 -0.34347247451E+02  0.81293525407E+02  0.41800000000E+01 0.  1.
        -11    1    1    2    0    0  0.40997978386E+02  0.41656110763E+02 -0.72438499113E+02  0.93077397629E+02  0.00000000000E+00 0.  1.
         11    1    1    2    0    0 -0.22579561242E+02 -0.24629639840E+02 -0.25398729347E+02  0.41970837458E+02  0.00000000000E+00 0. -1.
</event>
<event>
 7    1  0.2626349E-009  0.1032137E+03  0.7561462E-02  0.1273680E+00
          2   -1    0    0  501    0  0.00000000000E+00  0.00000000000E+00  0.39668139450E+03  0.39668139450E+03  0.00000000000E+00 0. -1.
         -2   -1    0    0    0  501 -0.00000000000E+00 -0.00000000000E+00 -0.34137095865E+02  0.34137095865E+02  0.00000000000E+00 0.  1.
         25    2    1    2    0    0  0.29759508611E+02 -0.39285775065E+02  0.19974340453E+03  0.24078147689E+03  0.12509712821E+03 0.  0.
          5    1    3    3  502    0 -0.42000088319E+02  0.14527250039E+02  0.68525693362E+02  0.81781975173E+02  0.41800000000E+01 0. -1.
         -5    1    3    3    0  502  0.71759596930E+02 -0.53813025104E+02  0.13121771116E+03  0.15899950171E+03  0.41800000000E+01 0. -1.
        -11    1    1    2    0    0 -0.85643364381E+00  0.42864527067E+02  0.15363502196E+03  0.15950492510E+03  0.00000000000E+00 0. -1.
         11    1    1    2    0    0 -0.28903074968E+02 -0.35787520019E+01  0.91658721561E+01  0.30532088380E+02  0.00000000000E+00 0.  1.
</event>
<event>
 7    1  0.2626349E-009  0.8607412E+02  0.7561462E-02  0.1312647E+00
         -2   -1    0    0    0  501 -0.00000000000E+00  0.00000000000E+00  0.55177847077E+02  0.55177847077E+02  0.00000000000E+00 0.  1.
          2   -1    0    0  501    0  0.00000000000E+00 -0.00000000000E+00 -0.23786874495E+03  0.23786874495E+03  0.00000000000E+00 0. -1.
         25    2    1    2    0    0 -0.23707378961E+02 -0.21448686880E+02 -0.12596832858E+03  0.18038236033E+03  0.12509072759E+03 0.  0.
          5    1    3    3  502    0 -0.39278913974E+02 -0.49144669857E+02 -0.14906996138E+02  0.64789834019E+02  0.41800000000E+01 0. -1.
         -5    1    3    3    0  502  0.15571535013E+02  0.27695982977E+02 -0.11106133244E+03  0.11559252632E+03  0.41800000000E+01 0. -1.
        -11    1    1    2    0    0  0.51800741181E+01  0.46000724959E+02  0.20422600541E+01  0.46336494157E+02  0.00000000000E+00 0.  1.
         11    1    1    2    0    0  0.18527304843E+02 -0.24552038079E+02 -0.58764829342E+02  0.66327737532E+02  0.00000000000E+00 0. -1.
</event>
<event>
 7    1  0.2626349E-009  0.1094951E+03  0.7561462E-02  0.1261508E+00
         -1   -1    0    0    0  501 -0.00000000000E+00  0.00000000000E+00  0.11117270257E+02  0.11117270257E+02  0.00000000000E+00 0.  1.
          1   -1    0    0  501    0  0.00000000000E+00 -0.00000000000E+00 -0.12030620094E+04  0.12030620094E+04  0.00000000000E+00 0. -1.
         25    2    1    2    0    0 -0.20456045829E+02  0.29915549218E+02 -0.77044063214E+03  0.78136842277E+03  0.12507779404E+03 0.  0.
          5    1    3    3  502    0  0.48372574077E+02  0.11452407862E+02 -0.46639727831E+03  0.46905752012E+03  0.41800000000E+01 0. -1.
         -5    1    3    3    0  502 -0.68828619906E+02  0.18463141356E+02 -0.30404335383E+03  0.31231090265E+03  0.41800000000E+01 0. -1.
        -11    1    1    2    0    0  0.27021653363E+00 -0.60813061803E+02 -0.28414347665E+03  0.29057841769E+03  0.00000000000E+00 0. -1.
         11    1    1    2    0    0  0.20185829295E+02  0.30897512585E+02 -0.13736063034E+03  0.14223243918E+03  0.00000000000E+00 0.  1.
</event>
<event>
 7    1  0.2626349E-009  0.1071973E+03  0.7561462E-02  0.1265850E+00
         -2   -1    0    0    0  501 -0.00000000000E+00  0.00000000000E+00  0.34259205769E+03  0.34259205769E+03  0.00000000000E+00 0.  1.
          2   -1    0    0  501    0  0.00000000000E+00 -0.00000000000E+00 -0.73709438015E+02  0.73709438015E+02  0.00000000000E+00 0. -1.
         25    2    1    2    0    0 -0.57736619131E+02 -0.20778780180E+02  0.15203157162E+02  0.14015484833E+03  0.12508785164E+03 0.  0.
          5    1    3    3  502    0  0.71795864172E+01  0.31289867057E+02  0.41634562468E+02  0.52740036343E+02  0.41800000000E+01 0.  1.
         -5    1    3    3    0  502 -0.64916205549E+02 -0.52068647237E+02 -0.26431405306E+02  0.87414811985E+02  0.41800000000E+01 0.  1.
        -11    1    1    2    0    0  0.14751217778E+02  0.46377681273E+02  0.66560637234E+02  0.82454873568E+02  0.00000000000E+00 0.  1.
         11    1    1    2    0    0  0.42985401353E+02 -0.25598901093E+02  0.18711882528E+03  0.19369177380E+03  0.00000000000E+00 0. -1.
</event>
<event>
 7    1  0.2626349E-009  0.8582676E+02  0.7561462E-02  0.1313285E+00
          2   -1    0    0  501    0  0.00000000000E+00  0.00000000000E+00  0.23401940990E+03  0.23401940990E+03  0.00000000000E+00 0. -1.
         -2   -1    0    0    0  501 -0.00000000000E+00 -0.00000000000E+00 -0.66183113552E+02  0.66183113552E+02  0.00000000000E+00 0.  1.
         25    2    1    2    0    0 -0.35332712807E+02  0.60791060895E+02  0.10252665049E+03  0.17636132923E+03  0.12509057002E+03 0.  0.
          5    1    3    3  502    0  0.49624752753E+01  0.53174677866E+02  0.12013461669E+03  0.13153695699E+03  0.41800000000E+01 0. -1.
         -5    1    3    3    0  502 -0.40295188082E+02  0.76163830292E+01 -0.17607966200E+02  0.44824372240E+02  0.41800000000E+01 0. -1.
        -11    1    1    2    0    0  0.10131292045E+02 -0.47111444594E+02 -0.44740998597E+01  0.48395752498E+02  0.00000000000E+00 0.  1.
         11    1    1    2    0    0  0.25201420761E+02 -0.13679616301E+02  0.69783745717E+02  0.75445441724E+02  0.00000000000E+00 0. -1.
</event>
<event>
 7    1  0.2626349E-009  0.1758011E+03  0.7561462E-02  0.1171930E+00
          2   -1    0    0  501    0  0.00000000000E+00  0.00000000000E+00  0.10376384878E+04  0.10376384878E+04  0.00000000000E+00 0.  1.
         -2   -1    0    0    0  501 -0.00000000000E+00 -0.00000000000E+00 -0.34660935381E+02  0.34660935381E+02  0.00000000000E+00 0. -1.
         25    2    1    2    0    0 -0.37584191317E+02  0.14973564142E+03  0.58284015199E+03  0.61577905881E+03  0.12509145755E+03 0.  0.
          5    1    3    3  502    0 -0.35243611562E+02 -0.55116819989E+01  0.18967803442E+03  0.19304849115E+03  0.41800000000E+01 0.  1.
         -5    1    3    3    0  502 -0.23405797549E+01  0.15524732342E+03  0.39316211757E+03  0.42273056766E+03  0.41800000000E+01 0.  1.
        -11    1    1    2    0    0 -0.17833614979E+01 -0.82004054408E+02  0.31439989263E+03  0.32492327987E+03  0.00000000000E+00 0.  1.
         11    1    1    2    0    0  0.39367552815E+02 -0.67731587016E+02  0.10573750785E+03  0.13159708454E+03  0.00000000000E+00 0. -1.
</event>
<event>
 7    1  0.2626349E-009  0.1195608E+03  0.7561462E-02  0.1243823E+00
         -3   -1    0    0    0  501 -0.00000000000E+00  0.00000000000E+00  0.99378442607E+02  0.99378442607E+02  0.00000000000E+00 0.  1.
          3   -1    0    0  501    0  0.00000000000E+00 -0.00000000000E+00 -0.18470716023E+03  0.18470716023E+03  0.00000000000E+00 0. -1.
         25    2    1    2    0    0  0.46197322850E+02 -0.59573350395E+02 -0.17863178930E+02  0.14713637303E+03  0.12508733905E+03 0.  0.
          5    1    3    3  502    0 -0.20219443743E+02 -0.68312690171E+02  0.14180730328E+02  0.72759982520E+02  0.41800000000E+01 0. -1.
         -5    1    3    3    0  502  0.66416766594E+02  0.87393397763E+01 -0.32043909257E+02  0.74376390508E+02  0.41800000000E+01 0. -1.
        -11    1    1    2    0    0  0.17429208361E+02  0.14349174072E+02  0.11991070713E+02  0.25562900413E+02  0.00000000000E+00 0.  1.
         11    1    1    2    0    0 -0.63626531211E+02  0.45224176323E+02 -0.79456609411E+02  0.11138632940E+03  0.00000000000E+00 0. -1.
</event>
<event>
 7    1  0.2626349E-009  0.9961633E+02  0.7561462E-02  0.1281105E+00
          2   -1    0    0  501    0  0.00000000000E+00  0.00000000000E+00  0.21338711833E+02  0.21338711833E+02  0.00000000000E+00 0. -1.
         -2   -1    0    0    0  501 -0.00000000000E+00 -0.00000000000E+00 -0.57358436781E+03  0.57358436781E+03  0.00000000000E+00 0.  1.
         25    2    1    2    0    0 -0.23350338995E+02  0.17669673393E+02 -0.30505289603E+03  0.33100297304E+03  0.12509293782E+03 0.  0.
          5    1    3    3  502    0 -0.51132904452E+02 -0.26194426787E+02 -0.24419069699E+03  0.25089298677E+03  0.41800000000E+01 0.  1.
         -5    1    3    3    0  502  0.27782565457E+02  0.43864100180E+02 -0.60862199043E+02  0.80109986271E+02  0.41800000000E+01 0.  1.
        -11    1    1    2    0    0  0.51805601506E+02  0.64898058066E+01 -0.17536119585E+03  0.18296854084E+03  0.00000000000E+00 0.  1.
         11    1    1    2    0    0 -0.28455262511E+02 -0.24159479199E+02 -0.71831564094E+02  0.80951565766E+02  0.00000000000E+00 0. -1.
</event>
<event>
 7    1  0.2626349E-009  0.1724343E+03  0.7561462E-02  0.1175333E+00
         -3   -1    0    0    0  501 -0.00000000000E+00  0.00000000000E+00  0.67024389301E+03  0.67024389301E+03  0.00000000000E+00 0.  1.
          3   -1    0    0  501    0  0.00000000000E+00 -0.00000000000E+00 -0.53498666233E+02  0.53498666233E+02  0.00000000000E+00 0. -1.
         25    2    1    2    0    0 -0.10115875470E+03 -0.10073686064E+03  0.43298125628E+03  0.47276050107E+03  0.12509482136E+03 0.  0.
          5    1    3    3  502    0  0.20495039306E+02 -0.21362689144E+02  0.16714548848E+03  0.16979840354E+03  0.41800000000E+01 0. -1.
         -5    1    3    3    0  502 -0.12165379401E+03 -0.79374171499E+02  0.26583576780E+03  0.30296209753E+03  0.41800000000E+01 0. -1.
        -11    1    1    2    0    0 -0.52847956106E+01  0.52541055361E+02  0.43431182279E+02  0.68372210417E+02  0.00000000000E+00 0. -1.
         11    1    1    2    0    0  0.10644355031E+03  0.48195805282E+02  0.14033278822E+03  0.18260984776E+03  0.00000000000E+00 0.  1.
</event>
<event>
 7    1  0.2626349E-009  0.1416575E+03  0.7561462E-02  0.1211116E+00
         -3   -1    0    0    0  501 -0.00000000000E+00  0.00000000000E+00  0.29503345583E+03  0.29503345583E+03  0.00000000000E+00 0.  1.
          3   -1    0    0  501    0  0.00000000000E+00 -0.00000000000E+00 -0.82989127742E+02  0.82989127742E+02  0.00000000000E+00 0. -1.
         25    2    1    2    0    0  0.73116265564E+02 -0.70529906891E+02  0.17315496859E+03  0.23653784908E+03  0.12508818826E+03 0.  0.
          5    1    3    3  502    0  0.54494293119E+02 -0.10619716983E+03  0.11583618146E+03  0.16638197077E+03  0.41800000000E+01 0. -1.
         -5    1    3    3    0  502  0.18621972445E+02  0.35667262938E+02  0.57318787120E+02  0.70155878301E+02  0.41800000000E+01 0. -1.
        -11    1    1    2    0    0  0.66518263599E+01  0.35822541670E+02  0.40501430122E+02  0.54478134398E+02  0.00000000000E+00 0.  1.
         11    1    1    2    0    0 -0.79768091924E+02  0.34707365221E+02 -0.16120706152E+01  0.87006600103E+02  0.00000000000E+00 0. -1.
</event>
<event>
 7    1  0.2626349E-009  0.1004381E+03  0.7561462E-02  0.1279377E+00
          4   -1    0    0  501    0  0.00000000000E+00  0.00000000000E+00  0.30403698385E+03  0.30403698385E+03  0.00000000000E+00 0.  1.
         -4   -1    0    0    0  501 -0.00000000000E+00 -0.00000000000E+00 -0.41229453208E+02  0.41229453208E+02  0.00000000000E+00 0. -1.
         25    2    1    2    0    0 -0.60331067712E+01 -0.27319351012E+02  0.14050128557E+03  0.19018686484E+03  0.12509071505E+03 0.  0.
          5    1    3    3  502    0 -0.25862131848E+02  0.33047957357E+02  0.11338881257E+03  0.12097732252E+03  0.41800000000E+01 0. -1.
         -5    1    3    3    0  502  0.19829025076E+02 -0.60367308369E+02  0.27112473006E+02  0.69209542317E+02  0.41800000000E+01 0. -1.
        -11    1    1    2    0    0 -0.37450861554E+02  0.34539894119E+02  0.59213461144E+02  0.78114053138E+02  0.00000000000E+00 0. -1.
         11    1    1    2    0    0  0.43483968326E+02 -0.72205431073E+01  0.63092783921E+02  0.76965519078E+02  0.00000000000E+00 0.  1.
</event>
<event>
 7    1  0.2626349E-009  0.9205811E+02  0.7561462E-02  0.1297943E+00
          1   -1    0    0  501    0  0.00000000000E+00  0.00000000000E+00  0.50602066923E+03  0.50602066923E+03  0.00000000000E+00 0. -1.
         -1   -1    0    0    0  501 -0.00000000000E+00 -0.00000000000E+00 -0.41373690846E+02  0.41373690846E+02  0.00000000000E+00 0.  1.
         25    2    1    2    0    0  0.22632365474E+02 -0.61083061687E+02  0.38481260983E+03  0.40984361826E+03  0.12509069651E+03 0.  0.
          5    1    3    3  502    0  0.46033064570E+02 -0.10785890205E+02  0.32386277367E+03  0.32732239005E+03  0.41800000000E+01 0. -1.
         -5    1    3    3    0  502 -0.23400699096E+02 -0.50297171482E+02  0.60949836169E+02  0.82521228216E+02  0.41800000000E+01 0. -1.
        -11    1    1    2    0    0 -0.75217144881E+01  0.64981212754E+02  0.10219920245E+02  0.66208617034E+02  0.00000000000E+00 0.  1.
         11    1    1    2    0    0 -0.15110650986E+02 -0.38981510672E+01  0.69614448304E+02  0.71342124777E+02  0.00000000000E+00 0. -1.
</event>
<event>
 7    1  0.2626349E-009  0.1094811E+03  0.7561462E-02  0.1261534E+00
          1   -1    0    0  501    0  0.00000000000E+00  0.00000000000E+00  0.74119035737E+02  0.74119035737E+02  0.00000000000E+00 0. -1.
         -1   -1    0    0    0  501 -0.00000000000E+00 -0.00000000000E+00 -0.31149968542E+03  0.31149968542E+03  0.00000000000E+00 0.  1.
         25    2    1    2    0    0 -0.66491189513E+01  0.10447963801E+03 -0.11034704043E+03  0.19693744369E+03  0.12509069452E+03 0.  0.
          5    1    3    3  502    0 -0.21349387490E+02  0.74311229102E+02 -0.13462686314E+03  0.15530556911E+03  0.41800000000E+01 0.  1.
         -5    1    3    3    0  502  0.14700268539E+02  0.30168408904E+02  0.24279822710E+02  0.41631874588E+02  0.41800000000E+01 0.  1.
        -11    1    1    2    0    0 -0.96087505137E+01 -0.47364986443E+02 -0.11939836178E+03  0.12880892369E+03  0.00000000000E+00 0.  1.
         11    1    1    2    0    0  0.16257869465E+02 -0.57114651562E+02 -0.76352474807E+01  0.59872353776E+02  0.00000000000E+00 0. -1.
</event>
<event>
 7    1  0.2626349E-009  0.1515858E+03  0.7561462E-02  0.1198538E+00
          2   -1    0    0  501    0  0.00000000000E+00  0.00000000000E+00  0.20765348340E+03  0.20765348340E+03  0.00000000000E+00 0.  1.
         -2   -1    0    0    0  501 -0.00000000000E+00 -0.00000000000E+00 -0.17248220004E+03  0.17248220004E+03  0.00000000000E+00 0. -1.
         25    2    1    2    0    0 -0.36527484183E+02  0.13206093872E+03 -0.58410060960E+02  0.19451101872E+03  0.12509377501E+03 0.  0.
          5    1    3    3  502    0 -0.62894116882E+02  0.76613959457E+02 -0.81892719261E+02  0.12864392170E+03  0.41800000000E+01 0.  1.
         -5    1    3    3    0  502  0.26366632699E+02  0.55446979267E+02  0.23482658302E+02  0.65867097026E+02  0.41800000000E+01 0.  1.
        -11    1    1    2    0    0  0.28918315103E+02 -0.36543514584E+02  0.74574415455E+02  0.87937710040E+02  0.00000000000E+00 0.  1.
         11    1    1    2    0    0  0.76091690795E+01 -0.95517424140E+02  0.19006928867E+02  0.97686954673E+02  0.00000000000E+00 0. -1.
</event>
<event>
 7    1  0.2626349E-009  0.1411813E+03  0.7561462E-02  0.1211748E+00
          1   -1    0    0  501    0  0.00000000000E+00  0.00000000000E+00  0.10673087807E+03  0.10673087807E+03  0.00000000000E+00 0. -1.
         -1   -1    0    0    0  501 -0.00000000000E+00 -0.00000000000E+00 -0.20058207566E+03  0.20058207566E+03  0.00000000000E+00 0.  1.
         25    2    1    2    0    0  0.89276337730E+02 -0.33325400635E+02 -0.22040948628E+02  0.15879347083E+03  0.12509482865E+03 0.  0.
          5    1    3    3  502    0  0.10991101560E+03 -0.56893133612E+02 -0.27166334770E+02  0.12677831892E+03  0.41800000000E+01 0.  1.
         -5    1    3    3    0  502 -0.20634677872E+02  0.23567732977E+02  0.51253861422E+01  0.32015151908E+02  0.41800000000E+01 0.  1.
        -11    1    1    2    0    0 -0.69084229862E+02 -0.18322039645E+02 -0.24282783709E+02  0.75484975572E+02  0.00000000000E+00 0.  1.
         11    1    1    2    0    0 -0.20192107868E+02  0.51647440280E+02 -0.47527465259E+02  0.73034507335E+02  0.00000000000E+00 0. -1.
</event>
<event>
 7    1  0.2626349E-009  0.1234034E+03  0.7561462E-02  0.1237586E+00
          2   -1    0    0  501    0  0.00000000000E+00  0.00000000000E+00  0.14168014234E+04  0.14168014234E+04  0.00000000000E+00 0.  1.
         -2   -1    0    0    0  501 -0.00000000000E+00 -0.00000000000E+00 -0.22497940728E+02  0.22497940728E+02  0.00000000000E+00 0. -1.
         25    2    1    2    0    0  0.46215432989E+02 -0.69629300334E+02  0.11974327918E+04  0.12068451141E+04  0.12508290324E+03 0.  0.
          5    1    3    3  502    0  0.75513024032E+02 -0.39258200904E+02  0.10495258961E+04  0.10529793455E+04  0.41800000000E+01 0. -1.
         -5    1    3    3    0  502 -0.29297591043E+02 -0.30371099430E+02  0.14790689574E+03  0.15386576854E+03  0.41800000000E+01 0. -1.
        -11    1    1    2    0    0 -0.27826715773E+02  0.88542083275E+02  0.12351025417E+03  0.15449533814E+03  0.00000000000E+00 0. -1.
         11    1    1    2    0    0 -0.18388717216E+02 -0.18912782941E+02  0.73360436653E+02  0.77958911904E+02  0.00000000000E+00 0.  1.
</event>
<event>
 7    1  0.2626349E-009  0.2439585E+03  0.7561462E-02  0.1117184E+00
          2   -1    0    0  501    0  0.00000000000E+00  0.00000000000E+00  0.30786281966E+03  0.30786281966E+03  0.00000000000E+00 0. -1.
         -2   -1    0    0    0  501 -0.00000000000E+00 -0.00000000000E+00 -0.21595734317E+03  0.21595734317E+03  0.00000000000E+00 0.  1.
         25    2    1    2    0    0  0.34304061978E+02 -0.22047221250E+03  0.11741651647E+03  0.28145727403E+03  0.12508714407E+03 0.  0.
          5    1    3    3  502    0  0.65899583494E+02 -0.58453119427E+02  0.59882942890E+02  0.10659719285E+03  0.41800000000E+01 0. -1.
         -5    1    3    3    0  502 -0.31595521516E+02 -0.16201909307E+03  0.57533573582E+02  0.17486008117E+03  0.41800000000E+01 0. -1.
        -11    1    1    2    0    0 -0.36271589023E+02  0.39516833927E+02 -0.29769310104E+02  0.61346720841E+02  0.00000000000E+00 0.  1.
         11    1    1    2    0    0  0.19675270452E+01  0.18095537857E+03  0.42582701192E+01  0.18101616795E+03  0.00000000000E+00 0. -1.
</event>
<event>
 7    1  0.2626349E-009  0.1023728E+03  0.7561462E-02  0.1275384E+00
          2   -1    0    0  501    0  0.00000000000E+00  0.00000000000E+00  0.76401481724E+02  0.76401481724E+02  0.00000000000E+00 0. -1.
         -2   -1    0    0    0  501 -0.00000000000E+00 -0.00000000000E+00 -0.35267965186E+03  0.35267965186E+03  0.00000000000E+00 0.  1.
         25    2    1    2    0    0 -0.31512109711E+02 -0.30669190852E+02 -0.29403644687E+03  0.32254892798E+03  0.12508703579E+03 0.  0.
          5    1    3    3  502    0  0.31350352517E+02  0.25398222357E+02 -0.50204434075E+02  0.64543565928E+02  0.41800000000E+01 0. -1.
         -5    1    3    3    0  502 -0.62862462229E+02 -0.56067413209E+02 -0.24383201280E+03  0.25800536205E+03  0.41800000000E+01 0. -1.
        -11    1    1    2    0    0 -0.21067188319E+02  0.10399769026E+02  0.39642028087E+02  0.46081145931E+02  0.00000000000E+00 0. -1.
         11    1    1    2    0    0  0.52579298030E+02  0.20269421825E+02 -0.21883751350E+02  0.60451059673E+02  0.00000000000E+00 0.  1.
</event>
<event>
 7    1  0.2626349E-009  0.1417812E+03  0.7561462E-02  0.1210952E+00
          2   -1    0    0  501    0  0.00000000000E+00  0.00000000000E+00  0.61862492229E+03  0.61862492229E+03  0.00000000000E+00 0. -1.
         -2   -1    0    0    0  501 -0.00000000000E+00 -0.00000000000E+00 -0.66304312267E+02  0.66304312267E+02  0.00000000000E+00 0.  1.
         25    2    1    2    0    0 -0.11718295860E+03  0.42941695549E+02  0.48364692647E+03  0.51491486460E+03  0.12508850186E+03 0.  0.
          5    1    3    3  502    0 -0.68158963733E+02  0.64965184809E+01  0.74729683773E+02  0.10143888370E+03  0.41800000000E+01 0. -1.
         -5    1    3    3    0  502 -0.49023994870E+02  0.36445177068E+02  0.40891724270E+03  0.41347598090E+03  0.41800000000E+01 0. -1.
        -11    1    1    2    0    0  0.65790845424E+02 -0.69657916482E+02  0.55079860569E+02  0.11051901063E+03  0.00000000000E+00 0.  1.
         11    1    1    2    0    0  0.51392113179E+02  0.26716220933E+02  0.13593822977E+02  0.59495359324E+02  0.00000000000E+00 0. -1.
</event>
<event>
 7    1  0.2626349E-009  0.1460246E+03  0.7561462E-02  0.1205445E+00
          2   -1    0    0  501    0  0.00000000000E+00  0.00000000000E+00  0.13210056095E+04  0.13210056095E+04  0.00000000000E+00 0. -1.
         -2   -1    0    0    0  501 -0.00000000000E+00 -0.00000000000E+00 -0.26041815992E+02  0.26041815992E+02  0.00000000000E+00 0.  1.
         25    2    1    2    0    0  0.15600413081E+02  0.10818389487E+03  0.10537382783E+04  0.10667518941E+04  0.12509243191E+03 0.  0.
          5    1    3    3  502    0  0.38120581323E+02  0.11823524380E+03  0.99733727865E+03  0.10050531684E+04  0.41800000000E+01 0. -1.
         -5    1    3    3    0  502 -0.22520168243E+02 -0.10051348928E+02  0.56400999610E+02  0.61698725675E+02  0.41800000000E+01 0. -1.
        -11    1    1    2    0    0 -0.46156855928E+02 -0.21680016047E+02  0.87509296174E+02  0.10128353944E+03  0.00000000000E+00 0.  1.
         11    1    1    2    0    0  0.30556442847E+02 -0.86503878827E+02  0.15371621907E+03  0.17901199194E+03  0.00000000000E+00 0. -1.
</event>
<event>
 7    1  0.2626349E-009  0.5370692E+02  0.7561462E-02  0.1426315E+00
          1   -1    0    0  501    0  0.00000000000E+00  0.00000000000E+00  0.44594811306E+02  0.44594811306E+02  0.00000000000E+00 0. -1.
         -1   -1    0    0    0  501 -0.00000000000E+00 -0.00000000000E+00 -0.28497343021E+03  0.28497343021E+03  0.00000000000E+00 0.  1.
         25    2    1    2    0    0 -0.60166838711E+01 -0.16796066004E+01 -0.88251083311E+02  0.15321554896E+03  0.12509088366E+03 0.  0.
          5    1    3    3  502    0 -0.11614018992E+02 -0.10500586881E+02  0.30177566204E+02  0.34253549655E+02  0.41800000000E+01 0.  1.
         -5    1    3    3    0  502  0.55973351212E+01  0.88209802809E+01 -0.11842864952E+03  0.11896199931E+03  0.41800000000E+01 0.  1.
        -11    1    1    2    0    0 -0.10799773889E+01  0.40488883209E+02 -0.37771441420E+02  0.55382287797E+02  0.00000000000E+00 0. -1.
         11    1    1    2    0    0  0.70966612600E+01 -0.38809276609E+02 -0.11435609417E+03  0.12097040475E+03  0.00000000000E+00 0.  1.
</event>
<event>
 7    1  0.2626349E-009  0.1810278E+03  0.7561462E-02  0.1166812E+00
         -2   -1    0    0    0  501 -0.00000000000E+00  0.00000000000E+00  0.12772623661E+03  0.12772623661E+03  0.00000000000E+00 0.  1.
          2   -1    0    0  501    0  0.00000000000E+00 -0.00000000000E+00 -0.37305832587E+03  0.37305832587E+03  0.00000000000E+00 0. -1.
         25    2    1    2    0    0 -0.17147530370E+03  0.43607149454E+02 -0.50245712722E+02  0.22243594195E+03  0.12509098033E+03 0.  0.
          5    1    3    3  502    0 -0.86370999278E+02  0.48073022056E+02 -0.84873471373E+02  0.13035314921E+03  0.41800000000E+01 0.  1.
         -5    1    3    3    0  502 -0.85104304421E+02 -0.44658726028E+01  0.34627758651E+02  0.92082792737E+02  0.41800000000E+01 0.  1.
        -11    1    1    2    0    0  0.58972239693E+02 -0.64938390935E+01 -0.13065447711E+03  0.14349385836E+03  0.00000000000E+00 0. -1.
         11    1    1    2    0    0  0.11250306401E+03 -0.37113310360E+02 -0.64431899429E+02  0.13485476217E+03  0.00000000000E+00 0.  1.
</event>
<event>
 7    1  0.2626349E-009  0.1378271E+03  0.7561462E-02  0.1216283E+00
         -1   -1    0    0    0  501 -0.00000000000E+00  0.00000000000E+00  0.29719251408E+02  0.29719251408E+02  0.00000000000E+00 0.  1.
          1   -1    0    0  501    0  0.00000000000E+00 -0.00000000000E+00 -0.99910596207E+03  0.99910596207E+03  0.00000000000E+00 0. -1.
         25    2    1    2    0    0  0.61275706656E+02  0.10528791356E+03 -0.67830914084E+03  0.70042229805E+03  0.12509135899E+03 0.  0.
          5    1    3    3  502    0  0.25587497364E+02  0.62908620633E+02 -0.60304344008E+03  0.60686990171E+03  0.41800000000E+01 0. -1.
         -5    1    3    3    0  502  0.35688209292E+02  0.42379292930E+02 -0.75265700759E+02  0.93552396348E+02  0.41800000000E+01 0. -1.
        -11    1    1    2    0    0 -0.47899914419E+01 -0.94404372104E+02 -0.18275701278E+03  0.20575532851E+03  0.00000000000E+00 0.  1.
         11    1    1    2    0    0 -0.56485715214E+02 -0.10883541458E+02 -0.10832055704E+03  0.12264758691E+03  0.00000000000E+00 0. -1.
</event>
<event>
 7    1  0.2626349E-009  0.1111085E+03  0.7561462E-02  0.1258531E+00
         -2   -1    0    0    0  501 -0.00000000000E+00  0.00000000000E+00  0.82246886885E+02  0.82246886885E+02  0.00000000000E+00 0.  1.
          2   -1    0    0  501    0  0.00000000000E+00 -0.00000000000E+00 -0.27654533313E+03  0.27654533313E+03  0.00000000000E+00 0. -1.
         25    2    1    2    0    0 -0.63645168816E+02  0.76038069009E+02 -0.62071895729E+02  0.17126692163E+03  0.12508774021E+03 0.  0.
          5    1    3    3  502    0 -0.37971784816E+02  0.16253157845E+02 -0.90936558390E+02  0.99964751957E+02  0.41800000000E+01 0.  1.
         -5    1    3    3    0  502 -0.25673384001E+02  0.59784911165E+02  0.28864662660E+02  0.71302169669E+02  0.41800000000E+01 0.  1.
        -11    1    1    2    0    0 -0.45579362476E+01 -0.36265687773E+02 -0.37693944479E+01  0.36744839461E+02  0.00000000000E+00 0. -1.
         11    1    1    2    0    0  0.68203105064E+02 -0.39772381236E+02 -0.12845715607E+03  0.15078045893E+03  0.00000000000E+00 0.  1.
</event>
<event>
 7    1  0.2626349E-009  0.1508507E+03  0.7561462E-02  0.1199432E+00
         -4   -1    0    0    0  501 -0.00000000000E+00  0.00000000000E+00  0.11201589969E+04  0.11201589969E+04  0.00000000000E+00 0.  1.
          4   -1    0    0  501    0  0.00000000000E+00 -0.00000000000E+00 -0.28912015235E+02  0.28912015235E+02  0.00000000000E+00 0. -1.
         25    2    1    2    0    0  0.12005996498E+02  0.12029873255E+03  0.82058315745E+03  0.83882128024E+03  0.12509393628E+03 0.  0.
          5    1    3    3  502    0  0.54652762962E+02  0.71650277399E+02  0.65184403552E+03  0.65805684085E+03  0.41800000000E+01 0.  1.
         -5    1    3    3    0  502 -0.42646766464E+02  0.48648455150E+02  0.16873912193E+03  0.18076443939E+03  0.41800000000E+01 0.  1.
        -11    1    1    2    0    0 -0.46396008181E+02 -0.48882979128E+02  0.16441107970E+03  0.17768831799E+03  0.00000000000E+00 0.  1.
         11    1    1    2    0    0  0.34390011683E+02 -0.71415753422E+02  0.10625274457E+03  0.13256141395E+03  0.00000000000E+00 0. -1.
</event>
<event>
 7    1  0.2626349E-009  0.1476922E+03  0.7561462E-02  0.1203338E+00
         -2   -1    0    0    0  501 -0.00000000000E+00  0.00000000000E+00  0.52605177392E+02  0.52605177392E+02  0.00000000000E+00 0.  1.
          2   -1    0    0  501    0  0.00000000000E+00 -0.00000000000E+00 -0.48043872805E+03  0.48043872805E+03  0.00000000000E+00 0. -1.
         25    2    1    2    0    0 -0.10118478417E+03 -0.10962076353E+01 -0.13720704295E+03  0.21145110905E+03  0.12508491781E+03 0.  0.
          5    1    3    3  502    0 -0.10894991720E+03  0.41954139989E+02 -0.10333930483E+03  0.15597024922E+03  0.41800000000E+01 0.  1.
         -5    1    3    3    0  502  0.77651330302E+01 -0.43050347625E+02 -0.33867738119E+02  0.55480859825E+02  0.41800000000E+01 0.  1.
        -11    1    1    2    0    0  0.75156046811E+01  0.34393639902E+02 -0.10894279961E+03  0.11448991382E+03  0.00000000000E+00 0. -1.
         11    1    1    2    0    0  0.93669179489E+02 -0.33297432267E+02 -0.18168370810E+03  0.20710288257E+03  0.00000000000E+00 0.  1.
</event>
<event>
 7    1  0.2626349E-009  0.1193803E+03  0.7561462E-02  0.1244123E+00
          2   -1    0    0  501    0  0.00000000000E+00  0.00000000000E+00  0.80219748152E+03  0.80219748152E+03  0.00000000000E+00 0. -1.
         -2   -1    0    0    0  501 -0.00000000000E+00 -0.00000000000E+00 -0.30103240372E+02  0.30103240372E+02  0.00000000000E+00 0.  1.
         25    2    1    2    0    0 -0.87778012793E+02 -0.46930744976E+01  0.60095037181E+03  0.62009356377E+03  0.12509066301E+03 0.  0.
          5    1    3    3  502    0 -0.83278545016E+02  0.48582624584E+02  0.43946497611E+03  0.44993613447E+03  0.41800000000E+01 0.  1.
         -5    1    3    3    0  502 -0.44994677769E+01 -0.53275699082E+02  0.16148539570E+03  0.17015742930E+03  0.41800000000E+01 0.  1.
        -11    1    1    2    0    0  0.44604418148E+02  0.80463108576E+01  0.16163809630E+03  0.16787248558E+03  0.00000000000E+00 0. -1.
         11    1    1    2    0    0  0.43173594645E+02 -0.33532363601E+01  0.95057730340E+01  0.44334672545E+02  0.00000000000E+00 0.  1.
</event>
<event>
 7    1  0.2626349E-009  0.1546226E+03  0.7561462E-02  0.1194905E+00
         -1   -1    0    0    0  501 -0.00000000000E+00  0.00000000000E+00  0.74346573286E+02  0.74346573286E+02  0.00000000000E+00 0.  1.
          1   -1    0    0  501    0  0.00000000000E+00 -0.00000000000E+00 -0.38895217121E+03  0.38895217121E+03  0.00000000000E+00 0. -1.
         25    2    1    2    0    0  0.10545216503E+03  0.61017172175E+02 -0.10404241643E+03  0.20326156736E+03  0.12508871227E+03 0.  0.
          5    1    3    3  502    0  0.10953687896E+03  0.12518589569E+02 -0.10782172020E+03  0.15426612941E+03  0.41800000000E+01 0.  1.
         -5    1    3    3    0  502 -0.40847139239E+01  0.48498582605E+02  0.37793037683E+01  0.48995437946E+02  0.41800000000E+01 0.  1.
        -11    1    1    2    0    0 -0.66865201635E+02  0.11571530097E+02 -0.11897002636E+03  0.13696248636E+03  0.00000000000E+00 0.  1.
         11    1    1    2    0    0 -0.38586963399E+02 -0.72588702271E+02 -0.91593155131E+02  0.12307469077E+03  0.00000000000E+00 0. -1.
</event>
<event>
 7    1  0.2626349E-009  0.1917214E+03  0.7561462E-02  0.1156918E+00
         -2   -1    0    0    0  501 -0.00000000000E+00  0.00000000000E+00  0.60704496352E+02  0.60704496352E+02  0.00000000000E+00 0. -1.
          2   -1    0    0  501    0  0.00000000000E+00 -0.00000000000E+00 -0.92666859278E+03  0.92666859278E+03  0.00000000000E+00 0.  1.
         25    2    1    2    0    0  0.50899754598E+02  0.15522321455E+03 -0.17061379613E+03  0.26728544762E+03  0.12508961478E+03 0.  0.
          5    1    3    3  502    0 -0.19876119324E+02  0.11086002669E+03 -0.13635896618E+03  0.17690744952E+03  0.41800000000E+01 0.  1.
         -5    1    3    3    0  502  0.70775873922E+02  0.44363187858E+02 -0.34254829954E+02  0.90377998105E+02  0.41800000000E+01 0.  1.
        -11    1    1    2    0    0  0.22389239384E+02 -0.75774488684E+02 -0.29860054587E+03  0.30887754397E+03  0.00000000000E+00 0. -1.
         11    1    1    2    0    0 -0.73288993982E+02 -0.79448725866E+02 -0.39674975443E+03  0.41121009754E+03  0.00000000000E+00 0.  1.
</event>
<event>
 7    1  0.2626349E-009  0.1448121E+03  0.7561462E-02  0.1206997E+00
          1   -1    0    0  501    0  0.00000000000E+00  0.00000000000E+00  0.43769247559E+03  0.43769247559E+03  0.00000000000E+00 0. -1.
         -1   -1    0    0    0  501 -0.00000000000E+00 -0.00000000000E+00 -0.60143032458E+02  0.60143032458E+02  0.00000000000E+00 0.  1.
         25    2    1    2    0    0  0.10377261449E+03  0.37203486159E+02  0.28757011943E+03  0.33240945527E+03  0.12508643996E+03 0.  0.
          5    1    3    3  502    0  0.13209052149E+03  0.22080634164E+02  0.23998464487E+03  0.27485553013E+03  0.41800000000E+01 0. -1.
         -5    1    3    3    0  502 -0.28317906997E+02  0.15122851995E+02  0.47585474559E+02  0.57553925133E+02  0.41800000000E+01 0. -1.
        -11    1    1    2    0    0 -0.44820842736E+02  0.12083121795E+02 -0.88170960047E+00  0.46429378498E+02  0.00000000000E+00 0.  1.
         11    1    1    2    0    0 -0.58951771759E+02 -0.49286607954E+02  0.90861033308E+02  0.11899667428E+03  0.00000000000E+00 0. -1.
</event>
<event>
 7    1  0.2626349E-009  0.9220036E+02  0.7561462E-02  0.1297609E+00
          2   -1    0    0  501    0  0.00000000000E+00  0.00000000000E+00  0.18072689822E+02  0.18072689822E+02  0.00000000000E+00 0.  1.
         -2   -1    0    0    0  501 -0.00000000000E+00 -0.00000000000E+00 -0.64552590759E+03  0.64552590759E+03  0.00000000000E+00 0. -1.
         25    2    1    2    0    0 -0.79291639563E+01  0.24195168647E+01 -0.35652898679E+03  0.37792753766E+03  0.12509028578E+03 0.  0.
          5    1    3    3  502    0  0.15785891935E+02 -0.45778597564E+02 -0.63393625358E+02  0.79881778367E+02  0.41800000000E+01 0. -1.
         -5    1    3    3    0  502 -0.23715055891E+02  0.48198114429E+02 -0.29313536143E+03  0.29804575929E+03  0.41800000000E+01 0. -1.
        -11    1    1    2    0    0 -0.39890943239E+01 -0.41176744324E+02 -0.75565276415E+02  0.86148407683E+02  0.00000000000E+00 0.  1.
         11    1    1    2    0    0  0.11918258280E+02  0.38757227459E+02 -0.19535895456E+03  0.19952265207E+03  0.00000000000E+00 0. -1.
</event>
<event>
 7    1  0.2626349E-009  0.1107854E+03  0.7561462E-02  0.1259122E+00
         -3   -1    0    0    0  501 -0.00000000000E+00  0.00000000000E+00  0.17367650762E+03  0.17367650762E+03  0.00000000000E+00 0.  1.
          3   -1    0    0  501    0  0.00000000000E+00 -0.00000000000E+00 -0.11572447873E+03  0.11572447873E+03  0.00000000000E+00 0. -1.
         25    2    1    2    0    0  0.49155012776E+02 -0.31479481560E+01 -0.45747385218E+02  0.14200831640E+03  0.12508962313E+03 0.  0.
          5    1    3    3  502    0  0.85656502663E+02 -0.42174321749E+01 -0.33928625082E+01  0.85929081798E+02  0.41800000000E+01 0.  1.
         -5    1    3    3    0  502 -0.36501489887E+02  0.10694840188E+01 -0.42354522710E+02  0.56079234607E+02  0.41800000000E+01 0.  1.
        -11    1    1    2    0    0  0.22957989980E+02 -0.11013086469E+02  0.50861734757E+02  0.56879464132E+02  0.00000000000E+00 0.  1.
         11    1    1    2    0    0 -0.72113002755E+02  0.14161034625E+02  0.52837679346E+02  0.90513205814E+02  0.00000000000E+00 0. -1.
</event>
<event>
 7    1  0.2626349E-009  0.1164512E+03  0.7561462E-02  0.1249069E+00
         -2   -1    0    0    0  501 -0.00000000000E+00  0.00000000000E+00  0.13308308223E+03  0.13308308223E+03  0.00000000000E+00 0.  1.
          2   -1    0    0  501    0  0.00000000000E+00 -0.00000000000E+00 -0.12477088445E+03  0.12477088445E+03  0.00000000000E+00 0. -1.
         25    2    1    2    0    0  0.36567976341E+02 -0.22709424416E+02  0.58483492407E+02  0.14463853587E+03  0.12508817820E+03 0.  0.
          5    1    3    3  502    0 -0.33500822043E+02  0.28864156798E+02  0.27221004549E+02  0.52095106430E+02  0.41800000000E+01 0. -1.
         -5    1    3    3    0  502  0.70068798384E+02 -0.51573581214E+02  0.31262487858E+02  0.92543429444E+02  0.41800000000E+01 0. -1.
        -11    1    1    2    0    0  0.22978504704E+02  0.33740708468E+02 -0.22796330731E+02  0.46755959846E+02  0.00000000000E+00 0.  1.
         11    1    1    2    0    0 -0.59546481044E+02 -0.11031284052E+02 -0.27374963886E+02  0.66459470961E+02  0.00000000000E+00 0. -1.
</event>
<event>
 7    1  0.2626349E-009  0.1386685E+03  0.7561462E-02  0.1215132E+00
         -2   -1    0    0    0  501 -0.00000000000E+00  0.00000000000E+00  0.73506609972E+02  0.73506609972E+02  0.00000000000E+00 0. -1.
          2   -1    0    0  501    0  0.00000000000E+00 -0.00000000000E+00 -0.46555372684E+03  0.46555372684E+03  0.00000000000E+00 0.  1.
         25    2    1    2    0    0  0.65414564117E+02 -0.75359259629E+02 -0.36819671552E+03  0.40146465514E+03  0.12508782833E+03 0.  0.
          5    1    3    3  502    0 -0.24966085394E+02 -0.34152917102E+02 -0.39384800271E+02  0.57951376678E+02  0.41800000000E+01 0.  1.
         -5    1    3    3    0  502  0.90380649511E+02 -0.41206342526E+02 -0.32881191525E+03  0.34351327846E+03  0.41800000000E+01 0.  1.
        -11    1    1    2    0    0 -0.46439203723E+01  0.74485383203E+02 -0.10438178799E+02  0.75356445537E+02  0.00000000000E+00 0.  1.
         11    1    1    2    0    0 -0.60770643744E+02  0.87387642565E+00 -0.13412222553E+02  0.62239236137E+02  0.00000000000E+00 0. -1.
</event>
<event>
 7    1  0.2626349E-009  0.1554734E+03  0.7561462E-02  0.1193904E+00
         -1   -1    0    0    0  501 -0.00000000000E+00  0.00000000000E+00  0.90957520297E+02  0.90957520297E+02  0.00000000000E+00 0.  1.
          1   -1    0    0  501    0  0.00000000000E+00 -0.00000000000E+00 -0.40966173098E+03  0.40966173098E+03  0.00000000000E+00 0. -1.
         25    2    1    2    0    0 -0.62155065052E+02 -0.11593057162E+03 -0.28243734155E+03  0.33574174495E+03  0.12509403606E+03 0.  0.
          5    1    3    3  502    0 -0.81759005924E+02 -0.10788300977E+03 -0.28342587017E+03  0.31411936446E+03  0.41800000000E+01 0. -1.
         -5    1    3    3    0  502  0.19603940871E+02 -0.80475618521E+01  0.98852862344E+00  0.21622380496E+02  0.41800000000E+01 0. -1.
        -11    1    1    2    0    0  0.63274162406E+02  0.33715593294E+02  0.68728720218E+01  0.72024976426E+02  0.00000000000E+00 0.  1.
         11    1    1    2    0    0 -0.11190973531E+01  0.82214978330E+02 -0.43139741158E+02  0.92852529894E+02  0.00000000000E+00 0. -1.
</event>
<event>
 7    1  0.2626349E-009  0.9921051E+02  0.7561462E-02  0.1281965E+00
         -3   -1    0    0    0  501 -0.00000000000E+00  0.00000000000E+00  0.43358389789E+02  0.43358389789E+02  0.00000000000E+00 0.  1.
          3   -1    0    0  501    0  0.00000000000E+00 -0.00000000000E+00 -0.34236477358E+03  0.34236477358E+03  0.00000000000E+00 0. -1.
         25    2    1    2    0    0 -0.36624530853E+02 -0.25294911236E+02 -0.22417908369E+03  0.26054983267E+03  0.12509502367E+03 0.  0.
          5    1    3    3  502    0 -0.60941255351E+02  0.11863372729E+02 -0.20073802368E+03  0.21016137316E+03  0.41800000000E+01 0.  1.
         -5    1    3    3    0  502  0.24316724498E+02 -0.37158283965E+02 -0.23441060005E+02  0.50388459509E+02  0.41800000000E+01 0.  1.
        -11    1    1    2    0    0  0.33541334687E+02 -0.24603616117E+02 -0.90792888925E+01  0.42576901548E+02  0.00000000000E+00 0.  1.
         11    1    1    2    0    0  0.30831961662E+01  0.49898527354E+02 -0.65748011209E+02  0.82596429152E+02  0.00000000000E+00 0. -1.
</event>
<event>
 7    1  0.2626349E-009  0.1115923E+03  0.7561462E-02  0.1257649E+00
         -1   -1    0    0    0  501 -0.00000000000E+00  0.00000000000E+00  0.72505362651E+02  0.72505362651E+02  0.00000000000E+00 0.  1.
          1   -1    0    0  501    0  0.00000000000E+00 -0.00000000000E+00 -0.22876566000E+03  0.22876566000E+03  0.00000000000E+00 0. -1.
         25    2    1    2    0    0  0.57134334677E+02  0.16206441435E+02 -0.12700205922E+03  0.18789450637E+03  0.12509133277E+03 0.  0.
          5    1    3    3  502    0 -0.33095185741E+01 -0.47749222111E+02 -0.29017496782E+02  0.56128679344E+02  0.41800000000E+01 0. -1.
         -5    1    3    3    0  502  0.60443853251E+02  0.63955663546E+02 -0.97984562439E+02  0.13176582703E+03  0.41800000000E+01 0. -1.
        -11    1    1    2    0    0 -0.68703402689E+02 -0.24352125751E+02  0.81844608832E+01  0.73349635102E+02  0.00000000000E+00 0.  1.
         11    1    1    2    0    0  0.11569068013E+02  0.81456843161E+01 -0.37442699007E+02  0.40026881175E+02  0.00000000000E+00 0. -1.
</event>
<event>
 7    1  0.2626349E-009  0.8748011E+02  0.7561462E-02  0.1309071E+00
          2   -1    0    0  501    0  0.00000000000E+00  0.00000000000E+00  0.31196338565E+03  0.31196338565E+03  0.00000000000E+00 0. -1.
         -2   -1    0    0    0  501 -0.00000000000E+00 -0.00000000000E+00 -0.67871108828E+02  0.67871108828E+02  0.00000000000E+00 0.  1.
         25    2    1    2    0    0 -0.30117065385E+02  0.58725382335E+02  0.51997229638E+02  0.15068677051E+03  0.12508829985E+03 0.  0.
          5    1    3    3  502    0 -0.51583471910E+02  0.65577422665E+02 -0.10428473036E+02  0.84187162842E+02  0.41800000000E+01 0. -1.
         -5    1    3    3    0  502  0.21466406524E+02 -0.68520403291E+01  0.62425702674E+02  0.66499607669E+02  0.41800000000E+01 0. -1.
        -11    1    1    2    0    0  0.27976012393E+02 -0.35589645584E+02  0.19964831846E+03  0.20471622116E+03  0.00000000000E+00 0. -1.
         11    1    1    2    0    0  0.21410529922E+01 -0.23135736751E+02 -0.75532712677E+01  0.24431502815E+02  0.00000000000E+00 0.  1.
</event>
<event>
 7    1  0.2626349E-009  0.1583396E+03  0.7561462E-02  0.1190584E+00
         -2   -1    0    0    0  501 -0.00000000000E+00  0.00000000000E+00  0.37822734411E+02  0.37822734411E+02  0.00000000000E+00 0.  1.
          2   -1    0    0  501    0  0.00000000000E+00 -0.00000000000E+00 -0.85300822161E+03  0.85300822161E+03  0.00000000000E+00 0. -1.
         25    2    1    2    0    0 -0.12249190658E+03  0.66125640748E+02 -0.50966829511E+03  0.54293909255E+03  0.12507685493E+03 0.  0.
          5    1    3    3  502    0 -0.69633359979E+02  0.90031368636E+02 -0.42653329236E+03  0.44147771637E+03  0.41800000000E+01 0. -1.
         -5    1    3    3    0  502 -0.52858546602E+02 -0.23905727887E+02 -0.83135002751E+02  0.10146137618E+03  0.41800000000E+01 0. -1.
        -11    1    1    2    0    0  0.11247238550E+03 -0.44813211807E+02 -0.30027637683E+03  0.32376560029E+03  0.00000000000E+00 0. -1.
         11    1    1    2    0    0  0.10019521086E+02 -0.21312428941E+02 -0.52408152587E+01  0.24126263174E+02  0.00000000000E+00 0.  1.
</event>
<event>
 7    1  0.2626349E-009  0.1222261E+03  0.7561462E-02  0.1239469E+00
          2   -1    0    0  501    0  0.00000000000E+00  0.00000000000E+00  0.14606208362E+03  0.14606208362E+03  0.00000000000E+00 0. -1.
         -2   -1    0    0    0  501 -0.00000000000E+00 -0.00000000000E+00 -0.12809982462E+03  0.12809982462E+03  0.00000000000E+00 0.  1.
         25    2    1    2    0    0 -0.62162287182E+02  0.51130754325E+02  0.13529708506E+02  0.14936134576E+03  0.12508898676E+03 0.  0.
          5    1    3    3  502    0 -0.83545359112E+02  0.57889340300E+02  0.44385218437E+02  0.11098884072E+03  0.41800000000E+01 0. -1.
         -5    1    3    3    0  502  0.21383071930E+02 -0.67585859747E+01 -0.30855509931E+02  0.38372505035E+02  0.41800000000E+01 0. -1.
        -11    1    1    2    0    0 -0.18139600461E+02  0.83617277802E+01 -0.12319257458E+02  0.23467588301E+02  0.00000000000E+00 0.  1.
         11    1    1    2    0    0  0.80301887643E+02 -0.59492482106E+02  0.16751807953E+02  0.10133297418E+03  0.00000000000E+00 0. -1.
</event>
<event>
 7    1  0.2626349E-009  0.1183409E+03  0.7561462E-02  0.1245859E+00
         -2   -1    0    0    0  501 -0.00000000000E+00  0.00000000000E+00  0.12821243073E+03  0.12821243073E+03  0.00000000000E+00 0.  1.
          2   -1    0    0  501    0  0.00000000000E+00 -0.00000000000E+00 -0.14702009042E+03  0.14702009042E+03  0.00000000000E+00 0. -1.
         25    2    1    2    0    0  0.26066488454E+00  0.84302624894E+02 -0.18362147545E+02  0.15196000058E+03  0.12509065834E+03 0.  0.
          5    1    3    3  502    0  0.39514168489E+02  0.39048005298E+02 -0.57672457189E+02  0.80185416051E+02  0.41800000000E+01 0.  1.
         -5    1    3    3    0  502 -0.39253503604E+02  0.45254619596E+02  0.39310309644E+02  0.71774584529E+02  0.41800000000E+01 0.  1.
        -11    1    1    2    0    0 -0.26860030139E+02  0.53643655192E+01  0.10006806658E+02  0.29161169661E+02  0.00000000000E+00 0.  1.
         11    1    1    2    0    0  0.26599365254E+02 -0.89666990413E+02 -0.10452318799E+02  0.94111350909E+02  0.00000000000E+00 0. -1.
</event>
<event>
 7    1  0.2626349E-009  0.1065592E+03  0.7561462E-02  0.1267078E+00
          1   -1    0    0  501    0  0.00000000000E+00  0.00000000000E+00  0.15408636674E+03  0.15408636674E+03  0.00000000000E+00 0. -1.
         -1   -1    0    0    0  501 -0.00000000000E+00 -0.00000000000E+00 -0.10932675002E+03  0.10932675002E+03  0.00000000000E+00 0.  1.
         25    2    1    2    0    0 -0.21312805653E+02 -0.38374865611E+02 -0.31387282045E+02  0.13624425560E+03  0.12510183737E+03 0.  0.
          5    1    3    3  502    0  0.10600106257E+02 -0.67251958246E+02 -0.54412725657E+02  0.87254829402E+02  0.41800000000E+01 0.  1.
         -5    1    3    3    0  502 -0.31912911909E+02  0.28877092635E+02  0.23025443613E+02  0.48989426197E+02  0.41800000000E+01 0.  1.
        -11    1    1    2    0    0 -0.36304530638E+02  0.18271282071E+02  0.26727588511E+02  0.48643834974E+02  0.00000000000E+00 0.  1.
         11    1    1    2    0    0  0.57617336291E+02  0.20103583540E+02  0.49419310248E+02  0.78525026187E+02  0.00000000000E+00 0. -1.
</event>
<event>
 7    1  0.2626349E-009  0.1000603E+03  0.7561462E-02  0.1280169E+00
         -4   -1    0    0    0  501 -0.00000000000E+00  0.00000000000E+00  0.27580363698E+03  0.27580363698E+03  0.00000000000E+00 0. -1.
          4   -1    0    0  501    0  0.00000000000E+00 -0.00000000000E+00 -0.59393327303E+02  0.59393327303E+02  0.00000000000E+00 0.  1.
         25    2    1    2    0    0  0.37462844335E+02  0.55317431209E+02  0.97233979003E+02  0.17194193512E+03  0.12508436944E+03 0.  0.
          5    1    3    3  502    0 -0.19874989671E+02  0.34205554124E+02  0.10301176420E+03  0.11042613418E+03  0.41800000000E+01 0.  1.
         -5    1    3    3    0  502  0.57337834005E+02  0.21111877086E+02 -0.57777851956E+01  0.61515800932E+02  0.41800000000E+01 0.  1.
        -11    1    1    2    0    0 -0.59221307921E+02 -0.32441958483E+02  0.11215371122E+03  0.13091256213E+03  0.00000000000E+00 0. -1.
         11    1    1    2    0    0  0.21758463587E+02 -0.22875472726E+02  0.70226194472E+01  0.32342467036E+02  0.00000000000E+00 0.  1.
</event>
<event>
 7    1  0.2626349E-009  0.1038471E+03  0.7561462E-02  0.1272408E+00
         -2   -1    0    0    0  501 -0.00000000000E+00  0.00000000000E+00  0.19668224564E+02  0.19668224564E+02  0.00000000000E+00 0.  1.
          2   -1    0    0  501    0  0.00000000000E+00 -0.00000000000E+00 -0.86596741250E+03  0.86596741250E+03  0.00000000000E+00 0. -1.
         25    2    1    2    0    0  0.68266418733E+01  0.20670023379E+02 -0.71106775906E+03  0.72231482243E+03  0.12508993496E+03 0.  0.
          5    1    3    3  502    0 -0.55765065911E+02  0.25042805548E+02 -0.42672824282E+03  0.43110480200E+03  0.41800000000E+01 0. -1.
         -5    1    3    3    0  502  0.62591707784E+02 -0.43727821687E+01 -0.28433951623E+03  0.29121002043E+03  0.41800000000E+01 0. -1.
        -11    1    1    2    0    0 -0.20298770149E+02 -0.48523105657E+02 -0.49697134838E+02  0.72362539088E+02  0.00000000000E+00 0.  1.
         11    1    1    2    0    0  0.13472128275E+02  0.27853082278E+02 -0.85534294044E+02  0.90958275546E+02  0.00000000000E+00 0. -1.
</event>
<event>
 7    1  0.2626349E-009  0.1079554E+03  0.7561462E-02  0.1264404E+00
         -2   -1    0    0    0  501 -0.00000000000E+00  0.00000000000E+00  0.26586181236E+03  0.26586181236E+03  0.00000000000E+00 0.  1.
          2   -1    0    0  501    0  0.00000000000E+00 -0.00000000000E+00 -0.91746349077E+02  0.91746349077E+02  0.00000000000E+00 0. -1.
         25    2    1    2    0    0  0.12626589294E+02 -0.25284471161E+02  0.21901022180E+03  0.25378634420E+03  0.12507316262E+03 0.  0.
          5    1    3    3  502    0  0.67989840659E+02 -0.33548032776E+01  0.10766041981E+03  0.12744454297E+03  0.41800000000E+01 0. -1.
         -5    1    3    3    0  502 -0.55363251364E+02 -0.21929667883E+02  0.11134980199E+03  0.12634180123E+03  0.41800000000E+01 0. -1.
        -11    1    1    2    0    0 -0.34259712268E+02  0.46471658822E+02 -0.11732815124E+02  0.58915209488E+02  0.00000000000E+00 0.  1.
         11    1    1    2    0    0  0.21633122974E+02 -0.21187187661E+02 -0.33161943391E+02  0.44906607755E+02  0.00000000000E+00 0. -1.
</event>
<event>
 7    1  0.2626349E-009  0.1098146E+03  0.7561462E-02  0.1260914E+00
          2   -1    0    0  501    0  0.00000000000E+00  0.00000000000E+00  0.36554384819E+03  0.36554384819E+03  0.00000000000E+00 0. -1.
         -2   -1    0    0    0  501 -0.00000000000E+00 -0.00000000000E+00 -0.56438389634E+02  0.56438389634E+02  0.00000000000E+00 0.  1.
         25    2    1    2    0    0  0.31838527184E+02 -0.85694070453E+02  0.14957604202E+03  0.21535268075E+03  0.12508644705E+03 0.  0.
          5    1    3    3  502    0 -0.19926976472E+01 -0.23692218196E+02 -0.20165399821E+02  0.31454853313E+02  0.41800000000E+01 0.  1.
         -5    1    3    3    0  502  0.33831224831E+02 -0.62001852257E+02  0.16974144184E+03  0.18389782744E+03  0.41800000000E+01 0.  1.
        -11    1    1    2    0    0  0.23340451202E+01  0.90231128341E+02  0.14120700499E+03  0.16759034145E+03  0.00000000000E+00 0. -1.
         11    1    1    2    0    0 -0.34172572304E+02 -0.45370578878E+01  0.18322411547E+02  0.39039215630E+02  0.00000000000E+00 0.  1.
</event>
<event>
 7    1  0.2626349E-009  0.1042675E+03  0.7561462E-02  0.1271570E+00
          1   -1    0    0  501    0  0.00000000000E+00  0.00000000000E+00  0.23272672804E+03  0.23272672804E+03  0.00000000000E+00 0. -1.
         -1   -1    0    0    0  501 -0.00000000000E+00 -0.00000000000E+00 -0.65500861045E+02  0.65500861045E+02  0.00000000000E+00 0.  1.
         25    2    1    2    0    0  0.29604429884E+02  0.35674313697E+02  0.13491847989E+03  0.18973148838E+03  0.12508382206E+03 0.  0.
          5    1    3    3  502    0 -0.34474646603E+02 -0.15877156880E+02  0.85635339918E+02  0.93762834918E+02  0.41800000000E+01 0.  1.
         -5    1    3    3    0  502  0.64079076486E+02  0.51551470577E+02  0.49283139972E+02  0.95968653463E+02  0.41800000000E+01 0.  1.
        -11    1    1    2    0    0  0.22953269303E+02 -0.25787578926E+02 -0.14481950762E+02  0.37437664143E+02  0.00000000000E+00 0.  1.
         11    1    1    2    0    0 -0.52557699187E+02 -0.98867347710E+01  0.46789337864E+02  0.71058436558E+02  0.00000000000E+00 0. -1.
</event>
<event>
 7    1  0.2626349E-009  0.1052015E+03  0.7561462E-02  0.1269723E+00
          1   -1    0    0  501    0  0.00000000000E+00  0.00000000000E+00  0.27705248422E+03  0.27705248422E+03  0.00000000000E+00 0. -1.
         -1   -1    0    0    0  501 -0.00000000000E+00 -0.00000000000E+00 -0.66125439993E+02  0.66125439993E+02  0.00000000000E+00 0.  1.
         25    2    1    2    0    0 -0.20435947588E+02 -0.41377768393E+02  0.19983331058E+03  0.24023103506E+03  0.12509136868E+03 0.  0.
          5    1    3    3  502    0 -0.48015644989E+02  0.27494886867E+02  0.11339715450E+03  0.12624522967E+03  0.41800000000E+01 0.  1.
         -5    1    3    3    0  502  0.27579697400E+02 -0.68872655261E+02  0.86436156080E+02  0.11398580538E+03  0.41800000000E+01 0.  1.
        -11    1    1    2    0    0  0.43609933518E+02  0.16548738116E+02  0.37561731282E+02  0.59887984534E+02  0.00000000000E+00 0. -1.
         11    1    1    2    0    0 -0.23173985930E+02  0.24829030278E+02 -0.26467997632E+02  0.43058904620E+02  0.00000000000E+00 0.  1.
</event>
<event>
 7    1  0.2626349E-009  0.1309337E+03  0.7561462E-02  0.1226077E+00
         -2   -1    0    0    0  501 -0.00000000000E+00  0.00000000000E+00  0.19452421721E+03  0.19452421721E+03  0.00000000000E+00 0.  1.
          2   -1    0    0  501    0  0.00000000000E+00 -0.00000000000E+00 -0.95271989377E+02  0.95271989377E+02  0.00000000000E+00 0. -1.
         25    2    1    2    0    0  0.51855123203E+02  0.58088337603E+02  0.63477685526E+02  0.16042645737E+03  0.12507606844E+03 0.  0.
          5    1    3    3  502    0  0.22880428999E+02 -0.37548790480E+02  0.47042630711E+01  0.44418781937E+02  0.41800000000E+01 0.  1.
         -5    1    3    3    0  502  0.28974694204E+02  0.95637128083E+02  0.58773422455E+02  0.11600767543E+03  0.41800000000E+01 0.  1.
        -11    1    1    2    0    0  0.18568260252E+02  0.88061627051E+01 -0.89769216759E+01  0.22425742199E+02  0.00000000000E+00 0. -1.
         11    1    1    2    0    0 -0.70423383455E+02 -0.66894500308E+02  0.44751463981E+02  0.10694400702E+03  0.00000000000E+00 0.  1.
</event>
<event>
 7    1  0.2626349E-009  0.1296176E+03  0.7561462E-02  0.1228024E+00
          1   -1    0    0  501    0  0.00000000000E+00  0.00000000000E+00  0.14302875032E+03  0.14302875032E+03  0.00000000000E+00 0. -1.
         -1   -1    0    0    0  501 -0.00000000000E+00 -0.00000000000E+00 -0.13301582594E+03  0.13301582594E+03  0.00000000000E+00 0.  1.
         25    2    1    2    0    0 -0.79208831219E+02  0.48320910183E+01 -0.23978977068E+02  0.15006443694E+03  0.12508779256E+03 0.  0.
          5    1    3    3  502    0 -0.74497199771E+02 -0.49794270724E+02  0.90362550783E+00  0.89708366999E+02  0.41800000000E+01 0. -1.
         -5    1    3    3    0  502 -0.47116314483E+01  0.54626361742E+02 -0.24882602576E+02  0.60356069944E+02  0.41800000000E+01 0. -1.
        -11    1    1    2    0    0 -0.16384818094E+02  0.77494119331E+01 -0.92042191259E+01  0.20328140569E+02  0.00000000000E+00 0.  1.
         11    1    1    2    0    0  0.95593649313E+02 -0.12581502951E+02  0.43196120573E+02  0.10565199874E+03  0.00000000000E+00 0. -1.
</event>
<event>
 7    1  0.2626349E-009  0.1402938E+03  0.7561462E-02  0.1212934E+00
          2   -1    0    0  501    0  0.00000000000E+00  0.00000000000E+00  0.17240147176E+03  0.17240147176E+03  0.00000000000E+00 0. -1.
         -2   -1    0    0    0  501 -0.00000000000E+00 -0.00000000000E+00 -0.14061650090E+03  0.14061650090E+03  0.00000000000E+00 0.  1.
         25    2    1    2    0    0 -0.39126413488E+02 -0.10344367258E+03  0.43630914185E+01  0.16702363904E+03  0.12508552994E+03 0.  0.
          5    1    3    3  502    0 -0.39050595682E+02 -0.12445641608E+03  0.29699872846E+02  0.13384283087E+03  0.41800000000E+01 0. -1.
         -5    1    3    3    0  502 -0.75817806516E-01  0.21012743500E+02 -0.25336781427E+02  0.33180808170E+02  0.41800000000E+01 0. -1.
        -11    1    1    2    0    0 -0.18682708458E+02  0.25993639857E+02 -0.20608799103E+02  0.38071452675E+02  0.00000000000E+00 0.  1.
         11    1    1    2    0    0  0.57809121946E+02  0.77450032728E+02  0.48030678551E+02  0.10792288095E+03  0.00000000000E+00 0. -1.
</event>
<event>
 7    1  0.2626349E-009  0.1136111E+03  0.7561462E-02  0.1254025E+00
          2   -1    0    0  501    0  0.00000000000E+00  0.00000000000E+00  0.16897299823E+02  0.16897299823E+02  0.00000000000E+00 0. -1.
         -2   -1    0    0    0  501 -0.00000000000E+00 -0.00000000000E+00 -0.96175877440E+03  0.96175877440E+03  0.00000000000E+00 0.  1.
         25    2    1    2    0    0  0.43545607283E+01 -0.56170083774E+02 -0.38362887292E+03  0.40742318509E+03  0.12509396108E+03 0.  0.
          5    1    3    3  502    0 -0.51229045543E+02 -0.20988900551E+02 -0.27347851545E+03  0.27905719820E+03  0.41800000000E+01 0. -1.
         -5    1    3    3    0  502  0.55583606272E+02 -0.35181183223E+02 -0.11015035747E+03  0.12836598689E+03  0.41800000000E+01 0. -1.
        -11    1    1    2    0    0 -0.46669470959E+02  0.23041967706E+02 -0.24513223621E+03  0.25059685757E+03  0.00000000000E+00 0.  1.
         11    1    1    2    0    0  0.42314910231E+02  0.33128116068E+02 -0.31610036545E+03  0.32063603157E+03  0.00000000000E+00 0. -1.
</event>
<event>
 7    1  0.2626349E-009  0.7572172E+02  0.7561462E-02  0.1341651E+00
          2   -1    0    0  501    0  0.00000000000E+00  0.00000000000E+00  0.38825652540E+02  0.38825652540E+02  0.00000000000E+00 0. -1.
         -2   -1    0    0    0  501 -0.00000000000E+00 -0.00000000000E+00 -0.25165904883E+03  0.25165904883E+03  0.00000000000E+00 0.  1.
         25    2    1    2    0    0 -0.25362303980E+02  0.12087538060E+02 -0.14999224408E+03  0.19731746351E+03  0.12508858094E+03 0.  0.
          5    1    3    3  502    0  0.29885636212E+02  0.28844157502E+02 -0.60604641271E+01  0.42182203584E+02  0.41800000000E+01 0. -1.
         -5    1    3    3    0  502 -0.55247940192E+02 -0.16756619442E+02 -0.14393177996E+03  0.15513525993E+03  0.41800000000E+01 0. -1.
        -11    1    1    2    0    0  0.18530894913E+02  0.15023680462E+02 -0.60591030474E+02  0.65118184978E+02  0.00000000000E+00 0.  1.
         11    1    1    2    0    0  0.68314090676E+01 -0.27111218521E+02 -0.22501217279E+01  0.28049052878E+02  0.00000000000E+00 0. -1.
</event>
<event>
 7    1  0.2626349E-009  0.1359725E+03  0.7561462E-02  0.1218853E+00
         -2   -1    0    0    0  501 -0.00000000000E+00  0.00000000000E+00  0.19986702521E+03  0.19986702521E+03  0.00000000000E+00 0.  1.
          2   -1    0    0  501    0  0.00000000000E+00 -0.00000000000E+00 -0.13522008395E+03  0.13522008395E+03  0.00000000000E+00 0. -1.
         25    2    1    2    0    0  0.56607289593E+02  0.10899745036E+03  0.41934761995E+02  0.18025261722E+03  0.12509057650E+03 0.  0.
          5    1    3    3  502    0  0.10616778927E+02  0.92038212268E+02  0.76421855956E+02  0.12017287955E+03  0.41800000000E+01 0. -1.
         -5    1    3    3    0  502  0.45990510665E+02  0.16959238096E+02 -0.34487093961E+02  0.60079737666E+02  0.41800000000E+01 0. -1.
        -11    1    1    2    0    0 -0.39761093981E+02 -0.31577295763E+02  0.49780312807E+02  0.71106608311E+02  0.00000000000E+00 0.  1.
         11    1    1    2    0    0 -0.16846195611E+02 -0.77420154601E+02 -0.27068133539E+02  0.83727883637E+02  0.00000000000E+00 0. -1.
</event>
<event>
 7    1  0.2626349E-009  0.1806071E+03  0.7561462E-02  0.1167217E+00
         -2   -1    0    0    0  501 -0.00000000000E+00  0.00000000000E+00  0.88025400621E+02  0.88025400621E+02  0.00000000000E+00 0.  1.
          2   -1    0    0  501    0  0.00000000000E+00 -0.00000000000E+00 -0.48141342897E+03  0.48141342897E+03  0.00000000000E+00 0. -1.
         25    2    1    2    0    0 -0.42736934276E+02  0.16488959762E+03 -0.15666896883E+03  0.26307357755E+03  0.12509003339E+03 0.  0.
          5    1    3    3  502    0  0.48290034691E+00  0.29895761110E+02 -0.10956679072E+03  0.11365009350E+03  0.41800000000E+01 0. -1.
         -5    1    3    3    0  502 -0.43219834623E+02  0.13499383651E+03 -0.47102178114E+02  0.14942348405E+03  0.41800000000E+01 0. -1.
        -11    1    1    2    0    0  0.53392448795E+02 -0.47855218219E+02 -0.12563493933E+03  0.14465480801E+03  0.00000000000E+00 0.  1.
         11    1    1    2    0    0 -0.10655514519E+02 -0.11703437940E+03 -0.11108412019E+03  0.16171044404E+03  0.00000000000E+00 0. -1.
</event>
<event>
 7    1  0.2626349E-009  0.1183635E+03  0.7561462E-02  0.1245821E+00
         -2   -1    0    0    0  501 -0.00000000000E+00  0.00000000000E+00  0.42415055901E+03  0.42415055901E+03  0.00000000000E+00 0.  1.
          2   -1    0    0  501    0  0.00000000000E+00 -0.00000000000E+00 -0.58988306095E+02  0.58988306095E+02  0.00000000000E+00 0. -1.
         25    2    1    2    0    0 -0.85577796710E+02 -0.50310579055E+02  0.28095353170E+03  0.32316765885E+03  0.12509090733E+03 0.  0.
          5    1    3    3  502    0 -0.88433255882E+02 -0.51046991308E+02  0.10284446469E+03  0.14498514539E+03  0.41800000000E+01 0. -1.
         -5    1    3    3    0  502  0.28554591729E+01  0.73641225219E+00  0.17810906701E+03  0.17818251346E+03  0.41800000000E+01 0. -1.
        -11    1    1    2    0    0  0.79276486043E+02  0.71839793030E+02  0.86283650360E+02  0.13744302609E+03  0.00000000000E+00 0.  1.
         11    1    1    2    0    0  0.63013106664E+01 -0.21529213974E+02 -0.20749291448E+01  0.22528180162E+02  0.00000000000E+00 0. -1.
</event>
<event>
 7    1  0.2626349E-009  0.1152965E+03  0.7561462E-02  0.1251064E+00
          2   -1    0    0  501    0  0.00000000000E+00  0.00000000000E+00  0.38032250004E+03  0.38032250004E+03  0.00000000000E+00 0.  1.
         -2   -1    0    0    0  501 -0.00000000000E+00 -0.00000000000E+00 -0.43540744053E+02  0.43540744053E+02  0.00000000000E+00 0. -1.
         25    2    1    2    0    0  0.61846895089E+02  0.29593633030E+02  0.19716328205E+03  0.24335634625E+03  0.12509248547E+03 0.  0.
          5    1    3    3  502    0 -0.20713173819E+02 -0.13480716787E+02 -0.22410716190E+00  0.25065672119E+02  0.41800000000E+01 0.  1.
         -5    1    3    3    0  502  0.82560068908E+02  0.43074349818E+02  0.19738738922E+03  0.21829067413E+03  0.41800000000E+01 0.  1.
        -11    1    1    2    0    0 -0.57057567942E+02 -0.59259546907E+02  0.11638491633E+03  0.14252266033E+03  0.00000000000E+00 0. -1.
         11    1    1    2    0    0 -0.47893271473E+01  0.29665913877E+02  0.23233557607E+02  0.37984237517E+02  0.00000000000E+00 0.  1.
</event>
<event>
 7    1  0.2626349E-009  0.2261949E+03  0.7561462E-02  0.1129347E+00
         -2   -1    0    0    0  501 -0.00000000000E+00  0.00000000000E+00  0.51382905159E+03  0.51382905159E+03  0.00000000000E+00 0.  1.
          2   -1    0    0  501    0  0.00000000000E+00 -0.00000000000E+00 -0.10725852032E+03  0.10725852032E+03  0.00000000000E+00 0. -1.
         25    2    1    2    0    0  0.47165798606E+02  0.20088128322E+03  0.20045122989E+03  0.31369789364E+03  0.12509104844E+03 0.  0.
          5    1    3    3  502    0  0.69227747130E+02  0.20316098567E+03  0.16134226745E+03  0.26854360304E+03  0.41800000000E+01 0.  1.
         -5    1    3    3    0  502 -0.22061948523E+02 -0.22797024426E+01  0.39108962442E+02  0.45154290595E+02  0.41800000000E+01 0.  1.
        -11    1    1    2    0    0  0.12510307981E+02 -0.72532223684E+02  0.12272794456E+03  0.14310688193E+03  0.00000000000E+00 0.  1.
         11    1    1    2    0    0 -0.59676106588E+02 -0.12834905954E+03  0.83391356811E+02  0.16428279634E+03  0.00000000000E+00 0. -1.
</event>
<event>
 7    1  0.2626349E-009  0.1081963E+03  0.7561462E-02  0.1263947E+00
         -2   -1    0    0    0  501 -0.00000000000E+00  0.00000000000E+00  0.29841196535E+03  0.29841196535E+03  0.00000000000E+00 0.  1.
          2   -1    0    0  501    0  0.00000000000E+00 -0.00000000000E+00 -0.64681539414E+02  0.64681539414E+02  0.00000000000E+00 0. -1.
         25    2    1    2    0    0  0.53231985853E+00  0.47600481109E+02  0.32258659138E+02  0.13767411935E+03  0.12508977929E+03 0.  0.
          5    1    3    3  502    0 -0.84289008428E+01 -0.34167602795E+02  0.41752353341E+02  0.54764978405E+02  0.41800000000E+01 0. -1.
         -5    1    3    3    0  502  0.89612207014E+01  0.81768083904E+02 -0.94936942025E+01  0.82909140940E+02  0.41800000000E+01 0. -1.
        -11    1    1    2    0    0  0.41337078758E+02 -0.10505211452E+02  0.63039896751E+02  0.76112693621E+02  0.00000000000E+00 0. -1.
         11    1    1    2    0    0 -0.41869398616E+02 -0.37095269657E+02  0.13843187005E+03  0.14930669180E+03  0.00000000000E+00 0.  1.
</event>
<event>
 7    1  0.2626349E-009  0.1604484E+03  0.7561462E-02  0.1188191E+00
          1   -1    0    0  501    0  0.00000000000E+00  0.00000000000E+00  0.21330316229E+02  0.21330316229E+02  0.00000000000E+00 0. -1.
         -1   -1    0    0    0  501 -0.00000000000E+00 -0.00000000000E+00 -0.17457986319E+04  0.17457986319E+04  0.00000000000E+00 0.  1.
         25    2    1    2    0    0  0.12737028416E+03 -0.87194144714E+02 -0.10924978008E+04  0.11104165174E+04  0.12508952499E+03 0.  0.
          5    1    3    3  502    0  0.98040595368E+02 -0.94274071140E+02 -0.10461008008E+04  0.10549141751E+04  0.41800000000E+01 0.  1.
         -5    1    3    3    0  502  0.29329688792E+02  0.70799264262E+01 -0.46396999972E+02  0.55502342376E+02  0.41800000000E+01 0.  1.
        -11    1    1    2    0    0 -0.91474097826E+02  0.62152536780E+02 -0.57128163232E+03  0.58188757663E+03  0.00000000000E+00 0.  1.
         11    1    1    2    0    0 -0.35896186334E+02  0.25041607934E+02 -0.60688882493E+02  0.74824854023E+02  0.00000000000E+00 0. -1.
</event>
<event>
 7    1  0.2626349E-009  0.1738050E+03  0.7561462E-02  0.1173937E+00
         -1   -1    0    0    0  501 -0.00000000000E+00  0.00000000000E+00  0.24554714453E+02  0.24554714453E+02  0.00000000000E+00 0.  1.
          1   -1    0    0  501    0  0.00000000000E+00 -0.00000000000E+00 -0.17721806461E+04  0.17721806461E+04  0.00000000000E+00 0. -1.
         25    2    1    2    0    0 -0.49355629222E+02  0.13323510095E+03 -0.13702639857E+04  0.13832781487E+04  0.12508987168E+03 0.  0.
          5    1    3    3  502    0  0.41799985510E+02  0.31627455887E+02 -0.35676072692E+03  0.36061506268E+03  0.41800000000E+01 0.  1.
         -5    1    3    3    0  502 -0.91155614732E+02  0.10160764506E+03 -0.10135032588E+04  0.10226630860E+04  0.41800000000E+01 0.  1.
        -11    1    1    2    0    0  0.37628787044E+02 -0.16418940181E+02 -0.17269427483E+03  0.17750723864E+03  0.00000000000E+00 0. -1.
         11    1    1    2    0    0  0.11726842177E+02 -0.11681616077E+03 -0.20466767116E+03  0.23594997322E+03  0.00000000000E+00 0.  1.
</event>
<event>
 7    1  0.2626349E-009  0.1325494E+03  0.7561462E-02  0.1223721E+00
          1   -1    0    0  501    0  0.00000000000E+00  0.00000000000E+00  0.14177022534E+03  0.14177022534E+03  0.00000000000E+00 0. -1.
         -1   -1    0    0    0  501 -0.00000000000E+00 -0.00000000000E+00 -0.21916402964E+03  0.21916402964E+03  0.00000000000E+00 0.  1.
         25    2    1    2    0    0  0.95727326437E+02  0.51087004248E+02  0.46962914874E+02  0.17212290888E+03  0.12508867798E+03 0.  0.
          5    1    3    3  502    0  0.99150185362E+02  0.15496567194E+02 -0.13912960664E+02  0.10139992962E+03  0.41800000000E+01 0. -1.
         -5    1    3    3    0  502 -0.34228589258E+01  0.35590437054E+02  0.60875875538E+02  0.70722979260E+02  0.41800000000E+01 0. -1.
        -11    1    1    2    0    0 -0.46526689038E+02 -0.62729150257E+02 -0.11237852972E+03  0.13685252291E+03  0.00000000000E+00 0.  1.
         11    1    1    2    0    0 -0.49200637399E+02  0.11642146010E+02 -0.11978189458E+02  0.51958823186E+02  0.00000000000E+00 0. -1.
</event>
<event>
 7    1  0.3978971E-009  0.2004534E+03  0.7561462E-02  0.1149357E+00
         -4   -1    0    0    0  501 -0.00000000000E+00  0.00000000000E+00  0.19706132773E+03  0.19706132773E+03  0.00000000000E+00 0.  1.
          4   -1    0    0  501    0  0.00000000000E+00 -0.00000000000E+00 -0.21116618622E+03  0.21116618622E+03  0.00000000000E+00 0. -1.
         25    2    1    2    0    0  0.45861600265E+02 -0.16558502206E+03 -0.18788441913E+02  0.21336039547E+03  0.12509183385E+03 0.  0.
          5    1    3    3  502    0  0.11682014827E+02  0.16586130662E+02 -0.18785904977E+02  0.27963401556E+02  0.41800000000E+01 0. -1.
         -5    1    3    3    0  502  0.34179585438E+02 -0.18217115272E+03 -0.25369353283E-02  0.18539699391E+03  0.41800000000E+01 0. -1.
        -11    1    1    2    0    0  0.17622067732E+02  0.10690282488E+03  0.14318091575E+01  0.10835497827E+03  0.00000000000E+00 0. -1.
         11    1    1    2    0    0 -0.63483667997E+02  0.58682197185E+02  0.32517742673E+01  0.86512140216E+02  0.00000000000E+00 0.  1.
</event>
<event>
 7    1  0.2626349E-009  0.1819043E+03  0.7561462E-02  0.1165973E+00
         -1   -1    0    0    0  501 -0.00000000000E+00  0.00000000000E+00  0.51001856275E+02  0.51001856275E+02  0.00000000000E+00 0.  1.
          1   -1    0    0  501    0  0.00000000000E+00 -0.00000000000E+00 -0.70317773365E+03  0.70317773365E+03  0.00000000000E+00 0. -1.
         25    2    1    2    0    0  0.88629791223E+02 -0.12609948844E+03 -0.37040500284E+03  0.42024815415E+03  0.12510924853E+03 0.  0.
          5    1    3    3  502    0  0.10787115114E+03 -0.76485333315E+02 -0.18586653105E+03  0.22814475936E+03  0.41800000000E+01 0.  1.
         -5    1    3    3    0  502 -0.19241359920E+02 -0.49614155125E+02 -0.18453847179E+03  0.19210339479E+03  0.41800000000E+01 0.  1.
        -11    1    1    2    0    0  0.16821050539E+02  0.34773973442E+02 -0.46941018637E+02  0.60791744512E+02  0.00000000000E+00 0.  1.
         11    1    1    2    0    0 -0.10545084176E+03  0.91325514998E+02 -0.23482985590E+03  0.27313969126E+03  0.00000000000E+00 0. -1.
</event>
<event>
 7    1  0.2626349E-009  0.1229702E+03  0.7561462E-02  0.1238276E+00
         -1   -1    0    0    0  501 -0.00000000000E+00  0.00000000000E+00  0.58475852011E+02  0.58475852011E+02  0.00000000000E+00 0.  1.
          1   -1    0    0  501    0  0.00000000000E+00 -0.00000000000E+00 -0.27942030428E+03  0.27942030428E+03  0.00000000000E+00 0. -1.
         25    2    1    2    0    0 -0.61058106852E+02  0.28720727501E+02 -0.10903727643E+03  0.17913735069E+03  0.12509232654E+03 0.  0.
          5    1    3    3  502    0 -0.97355519394E+02  0.67524431105E+01 -0.62195718015E+02  0.11579927627E+03  0.41800000000E+01 0. -1.
         -5    1    3    3    0  502  0.36297412542E+02  0.21968284390E+02 -0.46841558418E+02  0.63338074420E+02  0.41800000000E+01 0. -1.
        -11    1    1    2    0    0  0.60498774804E+02 -0.53549125192E+02 -0.58155684909E+02  0.99547447224E+02  0.00000000000E+00 0.  1.
         11    1    1    2    0    0  0.55933204864E+00  0.24828397691E+02 -0.53751490930E+02  0.59211358382E+02  0.00000000000E+00 0. -1.
</event>
<event>
 7    1  0.2626349E-009  0.1115719E+03  0.7561462E-02  0.1257686E+00
         -1   -1    0    0    0  501 -0.00000000000E+00  0.00000000000E+00  0.15730578358E+02  0.15730578358E+02  0.00000000000E+00 0.  1.
          1   -1    0    0  501    0  0.00000000000E+00 -0.00000000000E+00 -0.99884727151E+03  0.99884727151E+03  0.00000000000E+00 0. -1.
         25    2    1    2    0    0  0.12465474648E+02  0.28807004157E+02 -0.77912997662E+03  0.78973188406E+03  0.12509075380E+03 0.  0.
          5    1    3    3  502    0 -0.44828709872E+02  0.50048727977E+02 -0.37677098524E+03  0.38273794706E+03  0.41800000000E+01 0. -1.
         -5    1    3    3    0  502  0.57294184520E+02 -0.21241723820E+02 -0.40235899138E+03  0.40699393700E+03  0.41800000000E+01 0. -1.
        -11    1    1    2    0    0  0.19646497709E+02 -0.51589085006E+02 -0.11989489332E+03  0.13199319683E+03  0.00000000000E+00 0. -1.
         11    1    1    2    0    0 -0.32111972356E+02  0.22782080849E+02 -0.84091823202E+02  0.92852768972E+02  0.00000000000E+00 0.  1.
</event>
<event>
 7    1  0.2626349E-009  0.7459928E+02  0.7561462E-02  0.1345116E+00
          1   -1    0    0  501    0  0.00000000000E+00  0.00000000000E+00  0.11942438470E+03  0.11942438470E+03  0.00000000000E+00 0. -1.
         -1   -1    0    0    0  501 -0.00000000000E+00 -0.00000000000E+00 -0.11856800136E+03  0.11856800136E+03  0.00000000000E+00 0.  1.
         25    2    1    2    0    0 -0.33733947111E+01 -0.20061510595E+02 -0.43175172171E+02  0.13388605044E+03  0.12509010756E+03 0.  0.
          5    1    3    3  502    0  0.45918469726E+02  0.93943849671E+01 -0.57751884277E+02  0.74495052644E+02  0.41800000000E+01 0. -1.
         -5    1    3    3    0  502 -0.49291864437E+02 -0.29455895562E+02  0.14576712106E+02  0.59390997793E+02  0.41800000000E+01 0. -1.
        -11    1    1    2    0    0  0.67884171827E+01  0.31710660059E+02 -0.20551114101E+02  0.38392666747E+02  0.00000000000E+00 0.  1.
         11    1    1    2    0    0 -0.34150224716E+01 -0.11649149464E+02  0.64582669621E+02  0.65713668875E+02  0.00000000000E+00 0. -1.
</event>
<event>
 7    1  0.3776478E-009  0.1476325E+03  0.7561462E-02  0.1203413E+00
         -2   -1    0    0    0  501 -0.00000000000E+00  0.00000000000E+00  0.26720145709E+02  0.26720145709E+02  0.00000000000E+00 0.  1.
          2   -1    0    0  501    0  0.00000000000E+00 -0.00000000000E+00 -0.10952326790E+04  0.10952326790E+04  0.00000000000E+00 0. -1.
         25    2    1    2    0    0  0.10748815076E+03  0.74290388568E+02 -0.62580780674E+03  0.65142591138E+03  0.12509013811E+03 0.  0.
          5    1    3    3  502    0 -0.84964447413E+01  0.40916587144E+02 -0.31824262196E+03  0.32100186216E+03  0.41800000000E+01 0. -1.
         -5    1    3    3    0  502  0.11598459550E+03  0.33373801425E+02 -0.30756518478E+03  0.33042404922E+03  0.41800000000E+01 0. -1.
        -11    1    1    2    0    0 -0.44722360093E+02 -0.44271982756E+02 -0.83019882696E+02  0.10417484760E+03  0.00000000000E+00 0.  1.
         11    1    1    2    0    0 -0.62765790668E+02 -0.30018405812E+02 -0.35968484385E+03  0.36635206573E+03  0.00000000000E+00 0. -1.
</event>
<event>
 7    1  0.2626349E-009  0.8442091E+02  0.7561462E-02  0.1316954E+00
          3   -1    0    0  501    0  0.00000000000E+00  0.00000000000E+00  0.53891951494E+02  0.53891951494E+02  0.00000000000E+00 0. -1.
         -3   -1    0    0    0  501 -0.00000000000E+00 -0.00000000000E+00 -0.26209026033E+03  0.26209026033E+03  0.00000000000E+00 0.  1.
         25    2    1    2    0    0 -0.44661794919E+02 -0.16379544142E+02 -0.11439407964E+03  0.17605909963E+03  0.12509130951E+03 0.  0.
          5    1    3    3  502    0 -0.41492521928E+02 -0.53948898458E+02 -0.11969656199E+03  0.13775649667E+03  0.41800000000E+01 0.  1.
         -5    1    3    3    0  502 -0.31692729917E+01  0.37569354316E+02  0.53024823510E+01  0.38302602967E+02  0.41800000000E+01 0.  1.
        -11    1    1    2    0    0  0.23672156258E+02 -0.12694539502E+02  0.11096319889E+02  0.29062873742E+02  0.00000000000E+00 0. -1.
         11    1    1    2    0    0  0.20989638661E+02  0.29074083644E+02 -0.10490054909E+03  0.11086023845E+03  0.00000000000E+00 0.  1.
</event>
<event>
 7    1  0.2626349E-009  0.1293313E+03  0.7561462E-02  0.1228451E+00
         -2   -1    0    0    0  501 -0.00000000000E+00  0.00000000000E+00  0.38965896696E+03  0.38965896696E+03  0.00000000000E+00 0.  1.
          2   -1    0    0  501    0  0.00000000000E+00 -0.00000000000E+00 -0.77888409778E+02  0.77888409778E+02  0.00000000000E+00 0. -1.
         25    2    1    2    0    0  0.10404162781E+02 -0.99964673696E+02  0.42706148737E+02  0.16605520430E+03  0.12509729472E+03 0.  0.
          5    1    3    3  502    0  0.39779538370E+02 -0.69959400686E+02 -0.26642717603E+02  0.84876594056E+02  0.41800000000E+01 0.  1.
         -5    1    3    3    0  502 -0.29375375589E+02 -0.30005273010E+02  0.69348866339E+02  0.81178610249E+02  0.41800000000E+01 0.  1.
        -11    1    1    2    0    0  0.21022271131E+02  0.10223047728E+03  0.21237587485E+03  0.23663583538E+03  0.00000000000E+00 0.  1.
         11    1    1    2    0    0 -0.31426433912E+02 -0.22658035882E+01  0.56688533601E+02  0.64856337055E+02  0.00000000000E+00 0. -1.
</event>
<event>
 7    1  0.2626349E-009  0.1561884E+03  0.7561462E-02  0.1193068E+00
         -3   -1    0    0    0  501 -0.00000000000E+00  0.00000000000E+00  0.94472066435E+02  0.94472066435E+02  0.00000000000E+00 0.  1.
          3   -1    0    0  501    0  0.00000000000E+00 -0.00000000000E+00 -0.46828294789E+03  0.46828294789E+03  0.00000000000E+00 0. -1.
         25    2    1    2    0    0 -0.81182362588E+02  0.11391881078E+03 -0.34542391540E+03  0.39310757393E+03  0.12509121435E+03 0.  0.
          5    1    3    3  502    0 -0.85840171779E+02  0.98220491408E+02 -0.35165728182E+03  0.37509480972E+03  0.41800000000E+01 0.  1.
         -5    1    3    3    0  502  0.46578091913E+01  0.15698319375E+02  0.62333664190E+01  0.18012764212E+02  0.41800000000E+01 0.  1.
        -11    1    1    2    0    0 -0.17695053582E+02 -0.31980540061E+02 -0.18194376694E+02  0.40827750454E+02  0.00000000000E+00 0. -1.
         11    1    1    2    0    0  0.98877416169E+02 -0.81938270722E+02 -0.10192589358E+02  0.12881968994E+03  0.00000000000E+00 0.  1.
</event>
<event>
 7    1  0.2626349E-009  0.1106681E+03  0.7561462E-02  0.1259338E+00
         -2   -1    0    0    0  501 -0.00000000000E+00  0.00000000000E+00  0.25149262109E+02  0.25149262109E+02  0.00000000000E+00 0.  1.
          2   -1    0    0  501    0  0.00000000000E+00 -0.00000000000E+00 -0.61630721627E+03  0.61630721627E+03  0.00000000000E+00 0. -1.
         25    2    1    2    0    0 -0.39488637002E+02  0.40330780020E+02 -0.32310388020E+03  0.35104023406E+03  0.12508878551E+03 0.  0.
          5    1    3    3  502    0  0.13150613503E+02 -0.35352114654E+02 -0.50031886643E+02  0.62796279564E+02  0.41800000000E+01 0.  1.
         -5    1    3    3    0  502 -0.52639250505E+02  0.75682894674E+02 -0.27307199356E+03  0.28824395450E+03  0.41800000000E+01 0.  1.
        -11    1    1    2    0    0  0.60168331182E+02 -0.35521466326E+02 -0.25729652191E+03  0.26661489612E+03  0.00000000000E+00 0. -1.
         11    1    1    2    0    0 -0.20679694180E+02 -0.48093136939E+01 -0.10757552046E+02  0.23801348189E+02  0.00000000000E+00 0.  1.
</event>
<event>
 7    1  0.2626349E-009  0.1163429E+03  0.7561462E-02  0.1249255E+00
         -2   -1    0    0    0  501 -0.00000000000E+00  0.00000000000E+00  0.28866976479E+02  0.28866976479E+02  0.00000000000E+00 0.  1.
          2   -1    0    0  501    0  0.00000000000E+00 -0.00000000000E+00 -0.66023166960E+03  0.66023166960E+03  0.00000000000E+00 0. -1.
         25    2    1    2    0    0  0.31339615275E+02  0.76176726035E+02 -0.40141521528E+03  0.42844693037E+03  0.12509009558E+03 0.  0.
          5    1    3    3  502    0  0.46328826955E+02 -0.13220389065E+02 -0.22413983309E+03  0.22929735295E+03  0.41800000000E+01 0.  1.
         -5    1    3    3    0  502 -0.14989211681E+02  0.89397115100E+02 -0.17727538219E+03  0.19914957742E+03  0.41800000000E+01 0.  1.
        -11    1    1    2    0    0  0.11183806868E+01 -0.54596472809E+02 -0.42512656288E+02  0.69205141162E+02  0.00000000000E+00 0.  1.
         11    1    1    2    0    0 -0.32457995961E+02 -0.21580253225E+02 -0.18743682156E+03  0.19144657455E+03  0.00000000000E+00 0. -1.
</event>
<event>
 7    1  0.2626349E-009  0.1126213E+03  0.7561462E-02  0.1255791E+00
          2   -1    0    0  501    0  0.00000000000E+00  0.00000000000E+00  0.49461472449E+03  0.49461472449E+03  0.00000000000E+00 0. -1.
         -2   -1    0    0    0  501 -0.00000000000E+00 -0.00000000000E+00 -0.30173824809E+02  0.30173824809E+02  0.00000000000E+00 0.  1.
         25    2    1    2    0    0  0.50226742089E+02  0.42801661547E+01  0.31432230167E+03  0.34203345535E+03  0.12508928736E+03 0.  0.
          5    1    3    3  502    0  0.80990096570E+02 -0.18474968302E+02  0.27374986369E+03  0.28610693887E+03  0.41800000000E+01 0.  1.
         -5    1    3    3    0  502 -0.30763354481E+02  0.22755134456E+02  0.40572437977E+02  0.55926516487E+02  0.41800000000E+01 0.  1.
        -11    1    1    2    0    0  0.10517403573E+02  0.31408247185E+02  0.57896068115E+02  0.66701187938E+02  0.00000000000E+00 0. -1.
         11    1    1    2    0    0 -0.60744145662E+02 -0.35688413339E+02  0.92222529894E+02  0.11605390600E+03  0.00000000000E+00 0.  1.
</event>
<event>
 7    1  0.2626349E-009  0.2791341E+03  0.7561462E-02  0.1096163E+00
          1   -1    0    0  501    0  0.00000000000E+00  0.00000000000E+00  0.84452486955E+02  0.84452486955E+02  0.00000000000E+00 0. -1.
         -1   -1    0    0    0  501 -0.00000000000E+00 -0.00000000000E+00 -0.92941646727E+03  0.92941646727E+03  0.00000000000E+00 0.  1.
         25    2    1    2    0    0  0.24009419512E+03  0.92443830796E+02 -0.41542087577E+03  0.50439369076E+03  0.12508959536E+03 0.  0.
          5    1    3    3  502    0  0.12694689927E+03  0.11330365693E+03 -0.26534413751E+03  0.31524310875E+03  0.41800000000E+01 0. -1.
         -5    1    3    3    0  502  0.11314729586E+03 -0.20859826130E+02 -0.15007673826E+03  0.18915058200E+03  0.41800000000E+01 0. -1.
        -11    1    1    2    0    0 -0.20775971639E+03 -0.11109985196E+03 -0.35433652373E+03  0.42551339451E+03  0.00000000000E+00 0. -1.
         11    1    1    2    0    0 -0.32334478737E+02  0.18656021159E+02 -0.75206580821E+02  0.83961868962E+02  0.00000000000E+00 0.  1.
</event>
<event>
 7    1  0.2626349E-009  0.9390834E+02  0.7561462E-02  0.1293654E+00
          3   -1    0    0  501    0  0.00000000000E+00  0.00000000000E+00  0.59090908166E+02  0.59090908166E+02  0.00000000000E+00 0. -1.
         -3   -1    0    0    0  501 -0.00000000000E+00 -0.00000000000E+00 -0.19780995459E+03  0.19780995459E+03  0.00000000000E+00 0.  1.
         25    2    1    2    0    0  0.51135003679E+00  0.62447907308E+01 -0.80120019650E+02  0.14867634548E+03  0.12508468838E+03 0.  0.
          5    1    3    3  502    0 -0.80305462022E+01 -0.46256766733E+02  0.58487893077E+01  0.47495882741E+02  0.41800000000E+01 0.  1.
         -5    1    3    3    0  502  0.85418962390E+01  0.52501557464E+02 -0.85968808958E+02  0.10118046274E+03  0.41800000000E+01 0.  1.
        -11    1    1    2    0    0 -0.20808426653E+02 -0.41625694723E+02 -0.15911091455E+02  0.49181825019E+02  0.00000000000E+00 0. -1.
         11    1    1    2    0    0  0.20297076616E+02  0.35380903992E+02 -0.42687935318E+02  0.59042692251E+02  0.00000000000E+00 0.  1.
</event>
<event>
 7    1  0.2626349E-009  0.1715122E+03  0.7561462E-02  0.1176280E+00
         -1   -1    0    0    0  501 -0.00000000000E+00  0.00000000000E+00  0.64695461844E+03  0.64695461844E+03  0.00000000000E+00 0.  1.
          1   -1    0    0  501    0  0.00000000000E+00 -0.00000000000E+00 -0.57172905014E+02  0.57172905014E+02  0.00000000000E+00 0. -1.
         25    2    1    2    0    0 -0.13963327396E+03 -0.51410186520E+02  0.40972794582E+03  0.45350352705E+03  0.12509197012E+03 0.  0.
          5    1    3    3  502    0 -0.34586115600E+01 -0.57591096878E+02  0.13078156870E+03  0.14300345292E+03  0.41800000000E+01 0.  1.
         -5    1    3    3    0  502 -0.13617466240E+03  0.61809103582E+01  0.27894637712E+03  0.31050007414E+03  0.41800000000E+01 0.  1.
        -11    1    1    2    0    0  0.12404072182E+03  0.45963358131E+02  0.92230833249E+02  0.16126145715E+03  0.00000000000E+00 0. -1.
         11    1    1    2    0    0  0.15592552138E+02  0.54468283893E+01  0.87822934358E+02  0.89362539249E+02  0.00000000000E+00 0.  1.
</event>
<event>
 7    1  0.2626349E-009  0.1074830E+03  0.7561462E-02  0.1265303E+00
          3   -1    0    0  501    0  0.00000000000E+00  0.00000000000E+00  0.34418396479E+03  0.34418396479E+03  0.00000000000E+00 0. -1.
         -3   -1    0    0    0  501 -0.00000000000E+00 -0.00000000000E+00 -0.50823400952E+02  0.50823400952E+02  0.00000000000E+00 0.  1.
         25    2    1    2    0    0  0.11205500417E+02  0.51575464240E+02  0.24341176185E+03  0.27871593965E+03  0.12509075686E+03 0.  0.
          5    1    3    3  502    0 -0.34770830503E+02 -0.18746600670E+02  0.13937155876E+03  0.14492187371E+03  0.41800000000E+01 0. -1.
         -5    1    3    3    0  502  0.45976330920E+02  0.70322064910E+02  0.10404020310E+03  0.13379406593E+03  0.41800000000E+01 0. -1.
        -11    1    1    2    0    0 -0.41933744151E+02 -0.18078249023E+02  0.53923893046E+02  0.70661504566E+02  0.00000000000E+00 0.  1.
         11    1    1    2    0    0  0.30728243735E+02 -0.33497215217E+02 -0.39750910584E+01  0.45629921534E+02  0.00000000000E+00 0. -1.
</event>
<event>
 7    1  0.2626349E-009  0.1083225E+03  0.7561462E-02  0.1263708E+00
          2   -1    0    0  501    0  0.00000000000E+00  0.00000000000E+00  0.84701476305E+02  0.84701476305E+02  0.00000000000E+00 0.  1.
         -2   -1    0    0    0  501 -0.00000000000E+00 -0.00000000000E+00 -0.14188453782E+03  0.14188453782E+03  0.00000000000E+00 0. -1.
         25    2    1    2    0    0 -0.10388312770E+02 -0.95560072211E+01 -0.20948830013E+02  0.12761379403E+03  0.12508873903E+03 0.  0.
          5    1    3    3  502    0 -0.67305583597E+02 -0.45926331083E+01 -0.19345280681E+02  0.70305377795E+02  0.41800000000E+01 0. -1.
         -5    1    3    3    0  502  0.56917270827E+02 -0.49633741129E+01 -0.16035493320E+01  0.57308416236E+02  0.41800000000E+01 0. -1.
        -11    1    1    2    0    0  0.43570045080E+01  0.50345956976E+02 -0.24125048959E+02  0.55997471902E+02  0.00000000000E+00 0. -1.
         11    1    1    2    0    0  0.60313082621E+01 -0.40789949755E+02 -0.12109182543E+02  0.42974748193E+02  0.00000000000E+00 0.  1.
</event>
<event>
 7    1  0.2626349E-009  0.1101836E+03  0.7561462E-02  0.1260230E+00
         -1   -1    0    0    0  501 -0.00000000000E+00  0.00000000000E+00  0.24917185422E+02  0.24917185422E+02  0.00000000000E+00 0.  1.
          1   -1    0    0  501    0  0.00000000000E+00 -0.00000000000E+00 -0.59417997035E+03  0.59417997035E+03  0.00000000000E+00 0. -1.
         25    2    1    2    0    0 -0.22840026152E+02 -0.24782603619E+02 -0.21178499510E+03  0.24826796627E+03  0.12509298417E+03 0.  0.
          5    1    3    3  502    0 -0.65794603387E+02 -0.46931801066E+02 -0.12723036061E+03  0.15078647435E+03  0.41800000000E+01 0. -1.
         -5    1    3    3    0  502  0.42954577235E+02  0.22149197447E+02 -0.84554634498E+02  0.97481491926E+02  0.41800000000E+01 0. -1.
        -11    1    1    2    0    0 -0.31115690676E+02 -0.10018979596E+01 -0.62189708120E+02  0.69546745444E+02  0.00000000000E+00 0.  1.
         11    1    1    2    0    0  0.53955716827E+02  0.25784501579E+02 -0.29528808170E+03  0.30128244405E+03  0.00000000000E+00 0. -1.
</event>
<event>
 7    1  0.2626349E-009  0.9224308E+02  0.7561462E-02  0.1297509E+00
          1   -1    0    0  501    0  0.00000000000E+00  0.00000000000E+00  0.22899690266E+03  0.22899690266E+03  0.00000000000E+00 0. -1.
         -1   -1    0    0    0  501 -0.00000000000E+00 -0.00000000000E+00 -0.71165224895E+02  0.71165224895E+02  0.00000000000E+00 0.  1.
         25    2    1    2    0    0  0.44780791620E+02 -0.39748757395E+02  0.69765185240E+02  0.15524055630E+03  0.12508863352E+03 0.  0.
          5    1    3    3  502    0 -0.21770294052E+02 -0.13750338436E+02  0.78889048811E+02  0.83090143414E+02  0.41800000000E+01 0. -1.
         -5    1    3    3    0  502  0.66551085672E+02 -0.25998418959E+02 -0.91238635715E+01  0.72150412882E+02  0.41800000000E+01 0. -1.
        -11    1    1    2    0    0 -0.60503407221E+02  0.25669188703E+02  0.10075474780E+03  0.12029583841E+03  0.00000000000E+00 0. -1.
         11    1    1    2    0    0  0.15722615602E+02  0.14079568692E+02 -0.12688255284E+02  0.24625732843E+02  0.00000000000E+00 0.  1.
</event>
<event>
 7    1  0.2626349E-009  0.1312809E+03  0.7561462E-02  0.1225567E+00
          3   -1    0    0  501    0  0.00000000000E+00  0.00000000000E+00  0.89959751567E+03  0.89959751567E+03  0.00000000000E+00 0. -1.
         -3   -1    0    0    0  501 -0.00000000000E+00 -0.00000000000E+00 -0.34943551359E+02  0.34943551359E+02  0.00000000000E+00 0.  1.
         25    2    1    2    0    0 -0.12940392294E+03  0.13697560171E+02  0.62322743872E+03  0.64883954239E+03  0.12508922005E+03 0.  0.
          5    1    3    3  502    0 -0.11122506954E+03  0.64310731727E+01  0.23509593447E+03  0.26019213208E+03  0.41800000000E+01 0. -1.
         -5    1    3    3    0  502 -0.18178853398E+02  0.72664869979E+01  0.38813150425E+03  0.38864741031E+03  0.41800000000E+01 0. -1.
        -11    1    1    2    0    0  0.28408988572E+02  0.34356300160E+01  0.13494412769E+03  0.13794488676E+03  0.00000000000E+00 0. -1.
         11    1    1    2    0    0  0.10099493437E+03 -0.17133190187E+02  0.10648239790E+03  0.14775663787E+03  0.00000000000E+00 0.  1.
</event>
<event>
 7    1  0.2626349E-009  0.1110986E+03  0.7561462E-02  0.1258549E+00
          2   -1    0    0  501    0  0.00000000000E+00  0.00000000000E+00  0.60067795965E+03  0.60067795965E+03  0.00000000000E+00 0. -1.
         -2   -1    0    0    0  501 -0.00000000000E+00 -0.00000000000E+00 -0.20675308062E+02  0.20675308062E+02  0.00000000000E+00 0.  1.
         25    2    1    2    0    0  0.15531012298E+02  0.22812199426E+02  0.31518256565E+03  0.34021932565E+03  0.12509009181E+03 0.  0.
          5    1    3    3  502    0 -0.54659506448E+02  0.35999852912E+01  0.14645133346E+03  0.15641638984E+03  0.41800000000E+01 0.  1.
         -5    1    3    3    0  502  0.70190518745E+02  0.19212214135E+02  0.16873123219E+03  0.18380293581E+03  0.41800000000E+01 0.  1.
        -11    1    1    2    0    0  0.36251652451E+02 -0.22340999934E+02  0.12122465214E+03  0.12848625946E+03  0.00000000000E+00 0. -1.
         11    1    1    2    0    0 -0.51782664748E+02 -0.47119949251E+00  0.14359543380E+03  0.15264768260E+03  0.00000000000E+00 0.  1.
</event>
<event>
 7    1  0.2626349E-009  0.1094123E+03  0.7561462E-02  0.1261662E+00
         -2   -1    0    0    0  501 -0.00000000000E+00  0.00000000000E+00  0.46247486679E+02  0.46247486679E+02  0.00000000000E+00 0.  1.
          2   -1    0    0  501    0  0.00000000000E+00 -0.00000000000E+00 -0.31320477835E+03  0.31320477835E+03  0.00000000000E+00 0. -1.
         25    2    1    2    0    0 -0.47851653064E+02  0.95328454737E+01 -0.18414160022E+03  0.22789544540E+03  0.12509016452E+03 0.  0.
          5    1    3    3  502    0 -0.54829431348E+02 -0.43083419197E+02 -0.14767156853E+03  0.16336098709E+03  0.41800000000E+01 0. -1.
         -5    1    3    3    0  502  0.69777782846E+01  0.52616264670E+02 -0.36470031692E+02  0.64534458309E+02  0.41800000000E+01 0. -1.
        -11    1    1    2    0    0  0.49133429855E+02 -0.41146684915E+02 -0.75592772676E+02  0.99103031688E+02  0.00000000000E+00 0.  1.
         11    1    1    2    0    0 -0.12817767917E+01  0.31613839441E+02 -0.72229187701E+01  0.32453787938E+02  0.00000000000E+00 0. -1.
</event>
<event>
 7    1  0.2626349E-009  0.1272674E+03  0.7561462E-02  0.1231568E+00
         -2   -1    0    0    0  501 -0.00000000000E+00  0.00000000000E+00  0.61480612106E+02  0.61480612106E+02  0.00000000000E+00 0. -1.
          2   -1    0    0  501    0  0.00000000000E+00 -0.00000000000E+00 -0.40463935785E+03  0.40463935785E+03  0.00000000000E+00 0.  1.
         25    2    1    2    0    0 -0.24174542944E+02  0.11248281724E+03 -0.18254561736E+03  0.24941366240E+03  0.12508988718E+03 0.  0.
          5    1    3    3  502    0 -0.53578270038E+00 -0.38469538837E+01  0.16589686306E+02  0.17543551779E+02  0.41800000000E+01 0. -1.
         -5    1    3    3    0  502 -0.23638760243E+02  0.11632977112E+03 -0.19913530367E+03  0.23187011063E+03  0.41800000000E+01 0. -1.
        -11    1    1    2    0    0  0.27197549664E+02 -0.12351110771E+02 -0.88135046036E+02  0.93059351947E+02  0.00000000000E+00 0.  1.
         11    1    1    2    0    0 -0.30230067199E+01 -0.10013170647E+03 -0.72478082347E+02  0.12364695561E+03  0.00000000000E+00 0. -1.
</event>
<event>
 7    1  0.2626349E-009  0.1058290E+03  0.7561462E-02  0.1268495E+00
          4   -1    0    0  501    0  0.00000000000E+00  0.00000000000E+00  0.27328254303E+02  0.27328254303E+02  0.00000000000E+00 0.  1.
         -4   -1    0    0    0  501 -0.00000000000E+00 -0.00000000000E+00 -0.55865332362E+03  0.55865332362E+03  0.00000000000E+00 0. -1.
         25    2    1    2    0    0 -0.12808388562E+02 -0.37379326765E+00 -0.15993499644E+03  0.20344780364E+03  0.12509041202E+03 0.  0.
          5    1    3    3  502    0 -0.62511227007E+01 -0.60637153189E+02 -0.10525169421E+03  0.12170181764E+03  0.41800000000E+01 0.  1.
         -5    1    3    3    0  502 -0.65572658609E+01  0.60263359922E+02 -0.54683302225E+02  0.81745985998E+02  0.41800000000E+01 0.  1.
        -11    1    1    2    0    0 -0.26109990111E+02  0.30810915925E+02 -0.20600698453E+03  0.20992837302E+03  0.00000000000E+00 0. -1.
         11    1    1    2    0    0  0.38918378672E+02 -0.30437122657E+02 -0.16538308835E+03  0.17260540127E+03  0.00000000000E+00 0.  1.
</event>
<event>
 7    1  0.2626349E-009  0.1304260E+03  0.7561462E-02  0.1226825E+00
         -1   -1    0    0    0  501 -0.00000000000E+00  0.00000000000E+00  0.66958187821E+02  0.66958187821E+02  0.00000000000E+00 0.  1.
          1   -1    0    0  501    0  0.00000000000E+00 -0.00000000000E+00 -0.34792502725E+03  0.34792502725E+03  0.00000000000E+00 0. -1.
         25    2    1    2    0    0  0.89052058547E+02  0.41465152895E+02 -0.92542422241E+02  0.18401493667E+03  0.12509104271E+03 0.  0.
          5    1    3    3  502    0  0.10520018910E+03  0.43054733238E+02 -0.27738511604E+02  0.11707983287E+03  0.41800000000E+01 0. -1.
         -5    1    3    3    0  502 -0.16148130548E+02 -0.15895803430E+01 -0.64803910637E+02  0.66935103792E+02  0.41800000000E+01 0. -1.
        -11    1    1    2    0    0  0.12240592926E+02 -0.24852987946E+02 -0.22182653898E+02  0.35490467156E+02  0.00000000000E+00 0.  1.
         11    1    1    2    0    0 -0.10129265147E+03 -0.16612164949E+02 -0.16624176329E+03  0.19537781125E+03  0.00000000000E+00 0. -1.
</event>
<event>
 7    1  0.2626349E-009  0.1422047E+03  0.7561462E-02  0.1210393E+00
          2   -1    0    0  501    0  0.00000000000E+00  0.00000000000E+00  0.57624260141E+03  0.57624260141E+03  0.00000000000E+00 0. -1.
         -2   -1    0    0    0  501 -0.00000000000E+00 -0.00000000000E+00 -0.55140248406E+02  0.55140248406E+02  0.00000000000E+00 0.  1.
         25    2    1    2    0    0  0.12970065517E+03  0.19872687675E+02  0.36899749587E+03  0.41112553047E+03  0.12509143128E+03 0.  0.
          5    1    3    3  502    0  0.12837755301E+03  0.34288432412E+02  0.19226320157E+03  0.23375008832E+03  0.41800000000E+01 0. -1.
         -5    1    3    3    0  502  0.13231021650E+01 -0.14415744737E+02  0.17673429430E+03  0.17737544215E+03  0.41800000000E+01 0. -1.
        -11    1    1    2    0    0 -0.74160877312E+02  0.73897761336E+01  0.24512727163E+02  0.78455836673E+02  0.00000000000E+00 0.  1.
         11    1    1    2    0    0 -0.55539777858E+02 -0.27262463808E+02  0.12759212997E+03  0.14180148267E+03  0.00000000000E+00 0. -1.
</event>
<event>
 7    1  0.2626349E-009  0.1196424E+03  0.7561462E-02  0.1243688E+00
          2   -1    0    0  501    0  0.00000000000E+00  0.00000000000E+00  0.16552630965E+04  0.16552630965E+04  0.00000000000E+00 0.  1.
         -2   -1    0    0    0  501 -0.00000000000E+00 -0.00000000000E+00 -0.10575957125E+02  0.10575957125E+02  0.00000000000E+00 0. -1.
         25    2    1    2    0    0 -0.12164644734E+02  0.56578474301E+02  0.12087578124E+04  0.12165906886E+04  0.12509337435E+03 0.  0.
          5    1    3    3  502    0  0.82068182846E+01  0.90639763625E+02  0.64236110980E+03  0.64878978599E+03  0.41800000000E+01 0. -1.
         -5    1    3    3    0  502 -0.20371463018E+02 -0.34061289324E+02  0.56639670257E+03  0.56780090262E+03  0.41800000000E+01 0. -1.
        -11    1    1    2    0    0 -0.38907997192E+02 -0.12673297950E+02  0.14860678886E+03  0.15413767360E+03  0.00000000000E+00 0. -1.
         11    1    1    2    0    0  0.51072641926E+02 -0.43905176352E+02  0.28732253812E+03  0.29511069139E+03  0.00000000000E+00 0.  1.
</event>
<event>
 7    1  0.2626349E-009  0.8909943E+02  0.7561462E-02  0.1305047E+00
          2   -1    0    0  501    0  0.00000000000E+00  0.00000000000E+00  0.65579295412E+03  0.65579295412E+03  0.00000000000E+00 0. -1.
         -2   -1    0    0    0  501 -0.00000000000E+00 -0.00000000000E+00 -0.22596376490E+02  0.22596376490E+02  0.00000000000E+00 0.  1.
         25    2    1    2    0    0  0.89914761545E+01 -0.72858082856E+00  0.50658305382E+03  0.52187600258E+03  0.12508714635E+03 0.  0.
          5    1    3    3  502    0  0.30371883681E+02  0.56359812095E+02  0.24672646074E+03  0.25493194890E+03  0.41800000000E+01 0.  1.
         -5    1    3    3    0  502 -0.21380407527E+02 -0.57088392924E+02  0.25985659308E+03  0.26694405368E+03  0.41800000000E+01 0.  1.
        -11    1    1    2    0    0  0.10202458775E+02 -0.21361154991E+02  0.12498207256E+03  0.12720419635E+03  0.00000000000E+00 0. -1.
         11    1    1    2    0    0 -0.19193934930E+02  0.22089735820E+02  0.16314512533E+01  0.29309131681E+02  0.00000000000E+00 0.  1.
</event>
<event>
 7    1  0.2626349E-009  0.1016182E+03  0.7561462E-02  0.1276929E+00
         -2   -1    0    0    0  501 -0.00000000000E+00  0.00000000000E+00  0.24876029121E+02  0.24876029121E+02  0.00000000000E+00 0.  1.
          2   -1    0    0  501    0  0.00000000000E+00 -0.00000000000E+00 -0.59526913901E+03  0.59526913901E+03  0.00000000000E+00 0. -1.
         25    2    1    2    0    0 -0.29346924323E+02 -0.27201815522E+02 -0.42051181272E+03  0.44054303187E+03  0.12508715986E+03 0.  0.
          5    1    3    3  502    0  0.29078037784E+02  0.24518877468E+02 -0.25084696576E+03  0.25374865569E+03  0.41800000000E+01 0.  1.
         -5    1    3    3    0  502 -0.58424962106E+02 -0.51720692990E+02 -0.16966484696E+03  0.18679437619E+03  0.41800000000E+01 0.  1.
        -11    1    1    2    0    0  0.34418763289E+02  0.51536725357E+02 -0.59675553503E+02  0.86034045661E+02  0.00000000000E+00 0.  1.
         11    1    1    2    0    0 -0.50718389665E+01 -0.24334909834E+02 -0.90205743673E+02  0.93568090601E+02  0.00000000000E+00 0. -1.
</event>
<event>
 7    1  0.2626349E-009  0.2394838E+03  0.7561462E-02  0.1120137E+00
         -1   -1    0    0    0  501 -0.00000000000E+00  0.00000000000E+00  0.60617901476E+02  0.60617901476E+02  0.00000000000E+00 0.  1.
          1   -1    0    0  501    0  0.00000000000E+00 -0.00000000000E+00 -0.11593935537E+04  0.11593935537E+04  0.00000000000E+00 0. -1.
         25    2    1    2    0    0  0.22988872499E+03  0.27600684456E+02 -0.40815903389E+03  0.48564771229E+03  0.12509708170E+03 0.  0.
          5    1    3    3  502    0  0.19334994689E+03  0.11686531359E+02 -0.40042541441E+03  0.44483565716E+03  0.41800000000E+01 0. -1.
         -5    1    3    3    0  502  0.36538778101E+02  0.15914153097E+02 -0.77336194831E+01  0.40812055133E+02  0.41800000000E+01 0. -1.
        -11    1    1    2    0    0 -0.15585953156E+03  0.19996038019E+02 -0.37226992035E+03  0.40407539978E+03  0.00000000000E+00 0.  1.
         11    1    1    2    0    0 -0.74029193427E+02 -0.47596722475E+02 -0.31834669801E+03  0.33028834312E+03  0.00000000000E+00 0. -1.
</event>
<event>
 7    1  0.2626349E-009  0.1025563E+03  0.7561462E-02  0.1275011E+00
          2   -1    0    0  501    0  0.00000000000E+00  0.00000000000E+00  0.46695276419E+02  0.46695276419E+02  0.00000000000E+00 0. -1.
         -2   -1    0    0    0  501 -0.00000000000E+00 -0.00000000000E+00 -0.29855360741E+03  0.29855360741E+03  0.00000000000E+00 0.  1.
         25    2    1    2    0    0  0.38075554555E+02  0.21196174474E+02 -0.17133438715E+03  0.21656858463E+03  0.12508978359E+03 0.  0.
          5    1    3    3  502    0 -0.15427533360E+02  0.46479081630E+02 -0.14224423342E+03  0.15049653868E+03  0.41800000000E+01 0.  1.
         -5    1    3    3    0  502  0.53503087914E+02 -0.25282907157E+02 -0.29090153735E+02  0.66072045942E+02  0.41800000000E+01 0.  1.
        -11    1    1    2    0    0 -0.54818188492E+01 -0.51704385954E+02 -0.60438897758E+02  0.79726120105E+02  0.00000000000E+00 0.  1.
         11    1    1    2    0    0 -0.32593735705E+02  0.30508211481E+02 -0.20085046075E+02  0.48954179094E+02  0.00000000000E+00 0. -1.
</event>
<event>
 7    1  0.2626349E-009  0.1500953E+03  0.7561462E-02  0.1200356E+00
         -2   -1    0    0    0  501 -0.00000000000E+00  0.00000000000E+00  0.27458493822E+02  0.27458493822E+02  0.00000000000E+00 0.  1.
          2   -1    0    0  501    0  0.00000000000E+00 -0.00000000000E+00 -0.15322550787E+04  0.15322550787E+04  0.00000000000E+00 0. -1.
         25    2    1    2    0    0  0.14197781524E+02  0.12876350470E+03 -0.12219358638E+04  0.12351341077E+04  0.12508953434E+03 0.  0.
          5    1    3    3  502    0  0.40161906820E+02  0.57743017925E+01 -0.55129927543E+03  0.55280619100E+03  0.41800000000E+01 0. -1.
         -5    1    3    3    0  502 -0.25964125295E+02  0.12298920291E+03 -0.67063658836E+03  0.68232791668E+03  0.41800000000E+01 0. -1.
        -11    1    1    2    0    0 -0.24693200220E+02 -0.78832329515E+02 -0.78545497678E+02  0.11398984832E+03  0.00000000000E+00 0.  1.
         11    1    1    2    0    0  0.10495418695E+02 -0.49931175189E+02 -0.20431522338E+03  0.21058961650E+03  0.00000000000E+00 0. -1.
</event>
<event>
 7    1  0.2626349E-009  0.7960494E+02  0.7561462E-02  0.1330176E+00
         -2   -1    0    0    0  501 -0.00000000000E+00  0.00000000000E+00  0.31492833450E+02  0.31492833450E+02  0.00000000000E+00 0.  1.
          2   -1    0    0  501    0  0.00000000000E+00 -0.00000000000E+00 -0.56476904230E+03  0.56476904230E+03  0.00000000000E+00 0. -1.
         25    2    1    2    0    0  0.29709027652E+02 -0.76214049635E-01 -0.13380135517E+03  0.18556038660E+03  0.12508885761E+03 0.  0.
          5    1    3    3  502    0 -0.73794097907E+01  0.19996178332E+02 -0.14092364730E+03  0.14258769093E+03  0.41800000000E+01 0.  1.
         -5    1    3    3    0  502  0.37088437443E+02 -0.20072392382E+02  0.71222921328E+01  0.42972695670E+02  0.41800000000E+01 0.  1.
        -11    1    1    2    0    0 -0.55935376056E+02 -0.22708995574E+02 -0.26784549709E+03  0.27456451899E+03  0.00000000000E+00 0.  1.
         11    1    1    2    0    0  0.26226348404E+02  0.22785209624E+02 -0.13162935659E+03  0.13613697016E+03  0.00000000000E+00 0. -1.
</event>
<event>
 7    1  0.2626349E-009  0.1528091E+03  0.7561462E-02  0.1197063E+00
          2   -1    0    0  501    0  0.00000000000E+00  0.00000000000E+00  0.52262870018E+03  0.52262870018E+03  0.00000000000E+00 0. -1.
         -2   -1    0    0    0  501 -0.00000000000E+00 -0.00000000000E+00 -0.51018838795E+02  0.51018838795E+02  0.00000000000E+00 0.  1.
         25    2    1    2    0    0 -0.14135347076E+02 -0.10873480780E+03  0.15716298894E+03  0.22884642246E+03  0.12508962195E+03 0.  0.
          5    1    3    3  502    0 -0.20832151813E+01  0.27452215802E+02  0.40033976347E+02  0.48766336751E+02  0.41800000000E+01 0.  1.
         -5    1    3    3    0  502 -0.12052131895E+02 -0.13618702360E+03  0.11712901259E+03  0.18008008571E+03  0.41800000000E+01 0.  1.
        -11    1    1    2    0    0  0.30053254037E+02 -0.10344377289E+01  0.79211375316E+02  0.84727269040E+02  0.00000000000E+00 0. -1.
         11    1    1    2    0    0 -0.15917906961E+02  0.10976924553E+03  0.23523549713E+03  0.26007384747E+03  0.00000000000E+00 0.  1.
</event>
<event>
 7    1  0.5327686E-009  0.1060102E+03  0.7561462E-02  0.1268142E+00
          1   -1    0    0  501    0  0.00000000000E+00  0.00000000000E+00  0.27334849484E+03  0.27334849484E+03  0.00000000000E+00 0. -1.
         -1   -1    0    0    0  501 -0.00000000000E+00 -0.00000000000E+00 -0.58852343584E+02  0.58852343584E+02  0.00000000000E+00 0.  1.
         25    2    1    2    0    0 -0.22142875087E+01 -0.57231523028E+02  0.77728231996E+02  0.15800941044E+03  0.12507975632E+03 0.  0.
          5    1    3    3  502    0 -0.22077610943E+02 -0.75871578324E+02  0.96403026153E+02  0.12471941771E+03  0.41800000000E+01 0. -1.
         -5    1    3    3    0  502  0.19863323434E+02  0.18640055296E+02 -0.18674794157E+02  0.33289992732E+02  0.41800000000E+01 0. -1.
        -11    1    1    2    0    0  0.38714235979E+02  0.56912000663E+02  0.70459824146E+02  0.98500531499E+02  0.00000000000E+00 0.  1.
         11    1    1    2    0    0 -0.36499948470E+02  0.31952236435E+00  0.66308095114E+02  0.75690896484E+02  0.00000000000E+00 0. -1.
</event>
<event>
 7    1  0.2626349E-009  0.7795077E+02  0.7561462E-02  0.1334970E+00
          2   -1    0    0  501    0  0.00000000000E+00  0.00000000000E+00  0.38417791826E+02  0.38417791826E+02  0.00000000000E+00 0. -1.
         -2   -1    0    0    0  501 -0.00000000000E+00 -0.00000000000E+00 -0.38087042084E+03  0.38087042084E+03  0.00000000000E+00 0.  1.
         25    2    1    2    0    0 -0.26709649659E+02 -0.35883789289E+02 -0.25002315315E+03  0.28312492112E+03  0.12508833732E+03 0.  0.
          5    1    3    3  502    0 -0.49509087305E+02 -0.25667494897E+02 -0.33634974247E+02  0.65259128960E+02  0.41800000000E+01 0.  1.
         -5    1    3    3    0  502  0.22799437646E+02 -0.10216294392E+02 -0.21638817890E+03  0.21786579216E+03  0.41800000000E+01 0.  1.
        -11    1    1    2    0    0  0.10102044056E+02  0.51120336650E+02 -0.13150194780E+02  0.53742606339E+02  0.00000000000E+00 0. -1.
         11    1    1    2    0    0  0.16607605602E+02 -0.15236547361E+02 -0.79279281093E+02  0.82420685207E+02  0.00000000000E+00 0.  1.
</event>
<event>
 7    1  0.2626349E-009  0.1034952E+03  0.7561462E-02  0.1273113E+00
         -1   -1    0    0    0  501 -0.00000000000E+00  0.00000000000E+00  0.16961166771E+03  0.16961166771E+03  0.00000000000E+00 0.  1.
          1   -1    0    0  501    0  0.00000000000E+00 -0.00000000000E+00 -0.87046913722E+02  0.87046913722E+02  0.00000000000E+00 0. -1.
         25    2    1    2    0    0 -0.13625426454E+02 -0.12980511305E+02 -0.57713816703E+01  0.12662724269E+03  0.12508798433E+03 0.  0.
          5    1    3    3  502    0  0.22158262564E+02  0.42946845845E+02  0.23555010955E+02  0.53923381839E+02  0.41800000000E+01 0. -1.
         -5    1    3    3    0  502 -0.35783689018E+02 -0.55927357150E+02 -0.29326392625E+02  0.72703860846E+02  0.41800000000E+01 0. -1.
        -11    1    1    2    0    0 -0.74380154374E+01 -0.36989066927E+02  0.53902288092E+02  0.65794922352E+02  0.00000000000E+00 0.  1.
         11    1    1    2    0    0  0.21063441891E+02  0.49969578233E+02  0.34433847568E+02  0.64236416396E+02  0.00000000000E+00 0. -1.
</event>
<event>
 7    1  0.2626349E-009  0.1417466E+03  0.7561462E-02  0.1210998E+00
          2   -1    0    0  501    0  0.00000000000E+00  0.00000000000E+00  0.44256887198E+03  0.44256887198E+03  0.00000000000E+00 0. -1.
         -2   -1    0    0    0  501 -0.00000000000E+00 -0.00000000000E+00 -0.65819439906E+02  0.65819439906E+02  0.00000000000E+00 0.  1.
         25    2    1    2    0    0  0.10741546961E+03 -0.64739912526E+02  0.25747897170E+03  0.31252407740E+03  0.12508612513E+03 0.  0.
          5    1    3    3  502    0  0.10880205541E+03 -0.74387609931E+02  0.26730792647E+03  0.29806442881E+03  0.41800000000E+01 0. -1.
         -5    1    3    3    0  502 -0.13865858026E+01  0.96476974054E+01 -0.98289547640E+01  0.14459648584E+02  0.41800000000E+01 0. -1.
        -11    1    1    2    0    0 -0.66231944129E+02  0.73476004237E+02  0.41184083201E+02  0.10715186574E+03  0.00000000000E+00 0.  1.
         11    1    1    2    0    0 -0.41183525483E+02 -0.87360917116E+01  0.78086377168E+02  0.88712368748E+02  0.00000000000E+00 0. -1.
</event>
<event>
 7    1  0.2626349E-009  0.1062731E+03  0.7561462E-02  0.1267631E+00
         -2   -1    0    0    0  501 -0.00000000000E+00  0.00000000000E+00  0.41961125566E+02  0.41961125566E+02  0.00000000000E+00 0.  1.
          2   -1    0    0  501    0  0.00000000000E+00 -0.00000000000E+00 -0.43874900927E+03  0.43874900927E+03  0.00000000000E+00 0. -1.
         25    2    1    2    0    0  0.27588307904E+02 -0.72282887019E+02 -0.17562978482E+03  0.22908300095E+03  0.12508904637E+03 0.  0.
          5    1    3    3  502    0  0.64748187706E+02 -0.33248492584E+02 -0.40179024824E+02  0.83244318161E+02  0.41800000000E+01 0. -1.
         -5    1    3    3    0  502 -0.37159879801E+02 -0.39034394435E+02 -0.13545075999E+03  0.14583868279E+03  0.41800000000E+01 0. -1.
        -11    1    1    2    0    0 -0.46999936564E+01  0.58866860241E+02 -0.21685241684E+03  0.22474956700E+03  0.00000000000E+00 0. -1.
         11    1    1    2    0    0 -0.22888314248E+02  0.13416026778E+02 -0.43056820397E+01  0.26877566881E+02  0.00000000000E+00 0.  1.
</event>
<event>
 7    1  0.2857552E-009  0.1730886E+03  0.7561462E-02  0.1174665E+00
         -2   -1    0    0    0  501 -0.00000000000E+00  0.00000000000E+00  0.80360306107E+02  0.80360306107E+02  0.00000000000E+00 0.  1.
          2   -1    0    0  501    0  0.00000000000E+00 -0.00000000000E+00 -0.43643221994E+03  0.43643221994E+03  0.00000000000E+00 0. -1.
         25    2    1    2    0    0 -0.10184170809E+03 -0.97199589068E+02 -0.10665639158E+03  0.21643090385E+03  0.12508899493E+03 0.  0.
          5    1    3    3  502    0 -0.12669448315E+03 -0.98386349694E+02 -0.10363450359E+03  0.19102080672E+03  0.41800000000E+01 0. -1.
         -5    1    3    3    0  502  0.24852775057E+02  0.11867606267E+01 -0.30218879895E+01  0.25410097124E+02  0.41800000000E+01 0. -1.
        -11    1    1    2    0    0  0.51123674157E+02  0.31336050498E+00 -0.43154841147E+02  0.66903427180E+02  0.00000000000E+00 0.  1.
         11    1    1    2    0    0  0.50718033935E+02  0.96886228563E+02 -0.20626068111E+03  0.23345819502E+03  0.00000000000E+00 0. -1.
</event>
<event>
 7    1  0.3117503E-009  0.8279762E+02  0.7561462E-02  0.1321295E+00
         -1   -1    0    0    0  501 -0.00000000000E+00  0.00000000000E+00  0.13896752485E+03  0.13896752485E+03  0.00000000000E+00 0.  1.
          1   -1    0    0  501    0  0.00000000000E+00 -0.00000000000E+00 -0.10928177681E+03  0.10928177681E+03  0.00000000000E+00 0. -1.
         25    2    1    2    0    0  0.56631738625E+02 -0.13216289868E+02  0.20492749994E+02  0.13946104171E+03  0.12509038818E+03 0.  0.
          5    1    3    3  502    0  0.16198420027E+02 -0.13537647046E+02  0.71251882565E+02  0.74430906671E+02  0.41800000000E+01 0.  1.
         -5    1    3    3    0  502  0.40433318598E+02  0.32135717751E+00 -0.50759132571E+02  0.65030135035E+02  0.41800000000E+01 0.  1.
        -11    1    1    2    0    0 -0.39770556473E+02 -0.34604885367E+02  0.20963714629E+02  0.56733346318E+02  0.00000000000E+00 0. -1.
         11    1    1    2    0    0 -0.16861182152E+02  0.47821175235E+02 -0.11770716580E+02  0.52054913632E+02  0.00000000000E+00 0.  1.
</event>
<event>
 7    1  0.2626349E-009  0.6270638E+02  0.7561462E-02  0.1386813E+00
          2   -1    0    0  501    0  0.00000000000E+00  0.00000000000E+00  0.33897862371E+03  0.33897862371E+03  0.00000000000E+00 0.  1.
         -2   -1    0    0    0  501 -0.00000000000E+00 -0.00000000000E+00 -0.37088303671E+02  0.37088303671E+02  0.00000000000E+00 0. -1.
         25    2    1    2    0    0 -0.21941124440E+02 -0.25416246119E+01  0.18908421496E+03  0.22778854623E+03  0.12508760390E+03 0.  0.
          5    1    3    3  502    0 -0.18004499767E+02 -0.36291138230E+02  0.55671742278E+01  0.41105651130E+02  0.41800000000E+01 0. -1.
         -5    1    3    3    0  502 -0.39366246729E+01  0.33749513618E+02  0.18351704073E+03  0.18668289510E+03  0.41800000000E+01 0. -1.
        -11    1    1    2    0    0  0.34386823047E+02 -0.65930784169E+01  0.12423210143E+03  0.12907183003E+03  0.00000000000E+00 0.  1.
         11    1    1    2    0    0 -0.12445698607E+02  0.91347030288E+01 -0.11425996352E+02  0.19206551119E+02  0.00000000000E+00 0. -1.
</event>
<event>
 7    1  0.2626349E-009  0.1198194E+03  0.7561462E-02  0.1243395E+00
          1   -1    0    0  501    0  0.00000000000E+00  0.00000000000E+00  0.23076286281E+03  0.23076286281E+03  0.00000000000E+00 0. -1.
         -1   -1    0    0    0  501 -0.00000000000E+00 -0.00000000000E+00 -0.86489818172E+02  0.86489818172E+02  0.00000000000E+00 0.  1.
         25    2    1    2    0    0 -0.88538959305E+02  0.18768086625E+02  0.79171370737E+02  0.17351314525E+03  0.12508923710E+03 0.  0.
          5    1    3    3  502    0 -0.87769809859E+02 -0.35117504866E+02  0.72172623401E+02  0.11900898554E+03  0.41800000000E+01 0.  1.
         -5    1    3    3    0  502 -0.76914944667E+00  0.53885591491E+02  0.69987473367E+01  0.54504159708E+02  0.41800000000E+01 0.  1.
        -11    1    1    2    0    0  0.50562327189E+02 -0.15289105447E+02  0.85492185616E+02  0.10049487289E+03  0.00000000000E+00 0.  1.
         11    1    1    2    0    0  0.37976632116E+02 -0.34789811778E+01 -0.20390511710E+02  0.43244662847E+02  0.00000000000E+00 0. -1.
</event>
<event>
 7    1  0.2626349E-009  0.1728070E+03  0.7561462E-02  0.1174952E+00
         -2   -1    0    0    0  501 -0.00000000000E+00  0.00000000000E+00  0.57782041989E+02  0.57782041989E+02  0.00000000000E+00 0.  1.
          2   -1    0    0  501    0  0.00000000000E+00 -0.00000000000E+00 -0.64121808806E+03  0.64121808806E+03  0.00000000000E+00 0. -1.
         25    2    1    2    0    0  0.81836098293E+02  0.11489496360E+03 -0.17578811107E+03  0.25777245174E+03  0.12508867749E+03 0.  0.
          5    1    3    3  502    0  0.34166296688E+02  0.13045480835E+03 -0.14808801392E+03  0.20033303551E+03  0.41800000000E+01 0. -1.
         -5    1    3    3    0  502  0.47669801605E+02 -0.15559844752E+02 -0.27700097155E+02  0.57439416224E+02  0.41800000000E+01 0. -1.
        -11    1    1    2    0    0  0.13099518437E+02 -0.31109797141E+02 -0.39743750112E+02  0.52143863823E+02  0.00000000000E+00 0.  1.
         11    1    1    2    0    0 -0.94935616730E+02 -0.83785166456E+02 -0.36790418488E+03  0.38908381449E+03  0.00000000000E+00 0. -1.
</event>
<event>
 7    1  0.2626349E-009  0.1205638E+03  0.7561462E-02  0.1242170E+00
         -2   -1    0    0    0  501 -0.00000000000E+00  0.00000000000E+00  0.56828109462E+03  0.56828109462E+03  0.00000000000E+00 0.  1.
          2   -1    0    0  501    0  0.00000000000E+00 -0.00000000000E+00 -0.32478345159E+02  0.32478345159E+02  0.00000000000E+00 0. -1.
         25    2    1    2    0    0 -0.50769558430E+02  0.64253983655E+02  0.27965347240E+03  0.31711149800E+03  0.12509002781E+03 0.  0.
          5    1    3    3  502    0 -0.72208396669E+02  0.28539037533E+02  0.74346955626E+02  0.10758006983E+03  0.41800000000E+01 0.  1.
         -5    1    3    3    0  502  0.21438838239E+02  0.35714946123E+02  0.20530651677E+03  0.20953142817E+03  0.41800000000E+01 0.  1.
        -11    1    1    2    0    0  0.69165401137E+02 -0.17618281148E+02  0.14010489699E+03  0.15723752321E+03  0.00000000000E+00 0.  1.
         11    1    1    2    0    0 -0.18395842707E+02 -0.46635702508E+02  0.11604438007E+03  0.12641041857E+03  0.00000000000E+00 0. -1.
</event>
<event>
 7    1  0.2626349E-009  0.1070305E+03  0.7561462E-02  0.1266170E+00
         -1   -1    0    0    0  501 -0.00000000000E+00  0.00000000000E+00  0.31273721071E+02  0.31273721071E+02  0.00000000000E+00 0.  1.
          1   -1    0    0  501    0  0.00000000000E+00 -0.00000000000E+00 -0.37149262227E+03  0.37149262227E+03  0.00000000000E+00 0. -1.
         25    2    1    2    0    0 -0.10872600899E+02 -0.67780358460E+01 -0.19693206710E+03  0.23365266502E+03  0.12508866294E+03 0.  0.
          5    1    3    3  502    0  0.14599054590E+02  0.55485565030E+02 -0.77544156180E+02  0.96552311621E+02  0.41800000000E+01 0.  1.
         -5    1    3    3    0  502 -0.25471655489E+02 -0.62263600876E+02 -0.11938791092E+03  0.13710035340E+03  0.41800000000E+01 0.  1.
        -11    1    1    2    0    0 -0.34427544047E+02  0.22561655491E+02 -0.76692417397E+02  0.87040283627E+02  0.00000000000E+00 0. -1.
         11    1    1    2    0    0  0.45300144947E+02 -0.15783619645E+02 -0.66594416697E+02  0.82073394693E+02  0.00000000000E+00 0.  1.
</event>
<event>
 7    1  0.2626349E-009  0.1109586E+03  0.7561462E-02  0.1258805E+00
         -1   -1    0    0    0  501 -0.00000000000E+00  0.00000000000E+00  0.20198005639E+02  0.20198005639E+02  0.00000000000E+00 0.  1.
          1   -1    0    0  501    0  0.00000000000E+00 -0.00000000000E+00 -0.89500806562E+03  0.89500806562E+03  0.00000000000E+00 0. -1.
         25    2    1    2    0    0  0.67274235336E+02  0.23709954313E+02 -0.36539833037E+03  0.39275282099E+03  0.12510337281E+03 0.  0.
          5    1    3    3  502    0  0.80522313092E+02  0.22661739165E+01 -0.11174839880E+03  0.13781928560E+03  0.41800000000E+01 0. -1.
         -5    1    3    3    0  502 -0.13248077757E+02  0.21443780396E+02 -0.25364993157E+03  0.25493353539E+03  0.41800000000E+01 0. -1.
        -11    1    1    2    0    0 -0.63534906083E+02 -0.55095783207E+02 -0.38640703264E+03  0.39545243013E+03  0.00000000000E+00 0. -1.
         11    1    1    2    0    0 -0.37393292527E+01  0.31385828894E+02 -0.12300469697E+03  0.12700082014E+03  0.00000000000E+00 0.  1.
</event>
<event>
 7    1  0.2626349E-009  0.1223579E+03  0.7561462E-02  0.1239257E+00
         -2   -1    0    0    0  501 -0.00000000000E+00  0.00000000000E+00  0.12721064721E+03  0.12721064721E+03  0.00000000000E+00 0.  1.
          2   -1    0    0  501    0  0.00000000000E+00 -0.00000000000E+00 -0.12075218882E+03  0.12075218882E+03  0.00000000000E+00 0. -1.
         25    2    1    2    0    0  0.59300575463E+02 -0.12572077861E+02 -0.10253863947E+02  0.13938307335E+03  0.12509150259E+03 0.  0.
          5    1    3    3  502    0 -0.31584487497E+02 -0.32391235054E+02 -0.86759312063E+01  0.46254903968E+02  0.41800000000E+01 0. -1.
         -5    1    3    3    0  502  0.90885062961E+02  0.19819157193E+02 -0.15779327412E+01  0.93128169385E+02  0.41800000000E+01 0. -1.
        -11    1    1    2    0    0 -0.25664873271E+02 -0.37744390352E+02  0.14953751401E+02  0.48030609032E+02  0.00000000000E+00 0. -1.
         11    1    1    2    0    0 -0.33635702192E+02  0.50316468213E+02  0.17585709321E+01  0.60549153645E+02  0.00000000000E+00 0.  1.
</event>
<event>
 7    1  0.2626349E-009  0.1541782E+03  0.7561462E-02  0.1195431E+00
          1   -1    0    0  501    0  0.00000000000E+00  0.00000000000E+00  0.61159285234E+03  0.61159285234E+03  0.00000000000E+00 0. -1.
         -1   -1    0    0    0  501 -0.00000000000E+00 -0.00000000000E+00 -0.48098590729E+02  0.48098590729E+02  0.00000000000E+00 0.  1.
         25    2    1    2    0    0  0.11000628472E+03 -0.67950658312E+02  0.35727178094E+03  0.40001160998E+03  0.12508991971E+03 0.  0.
          5    1    3    3  502    0  0.98082747710E+02 -0.17603934611E+02  0.32240712330E+03  0.33748177649E+03  0.41800000000E+01 0. -1.
         -5    1    3    3    0  502  0.11923537012E+02 -0.50346723702E+02  0.34864657645E+02  0.62529833480E+02  0.41800000000E+01 0. -1.
        -11    1    1    2    0    0 -0.60424735737E+02  0.84992150847E+02  0.15124121904E+03  0.18370824895E+03  0.00000000000E+00 0.  1.
         11    1    1    2    0    0 -0.49581548985E+02 -0.17041492535E+02  0.54981261624E+02  0.75971584144E+02  0.00000000000E+00 0. -1.
</event>
<event>
 7    1  0.2626349E-009  0.1091856E+03  0.7561462E-02  0.1262086E+00
          2   -1    0    0  501    0  0.00000000000E+00  0.00000000000E+00  0.32493566197E+03  0.32493566197E+03  0.00000000000E+00 0. -1.
         -2   -1    0    0    0  501 -0.00000000000E+00 -0.00000000000E+00 -0.50292242230E+02  0.50292242230E+02  0.00000000000E+00 0.  1.
         25    2    1    2    0    0  0.48998714829E+02 -0.39493719779E+02  0.11850544341E+03  0.18343528065E+03  0.12507731254E+03 0.  0.
          5    1    3    3  502    0 -0.25548139099E+02 -0.40741927709E+01  0.93488898678E+02  0.97092497311E+02  0.41800000000E+01 0. -1.
         -5    1    3    3    0  502  0.74546853928E+02 -0.35419527008E+02  0.25016544734E+02  0.86342783337E+02  0.41800000000E+01 0. -1.
        -11    1    1    2    0    0 -0.75575427147E+02  0.29687860575E+02  0.99174210614E+02  0.12817385968E+03  0.00000000000E+00 0.  1.
         11    1    1    2    0    0  0.26576712318E+02  0.98058592037E+01  0.56963765709E+02  0.63618763868E+02  0.00000000000E+00 0. -1.
</event>
<event>
 7    1  0.2626349E-009  0.1034757E+03  0.7561462E-02  0.1273152E+00
          1   -1    0    0  501    0  0.00000000000E+00  0.00000000000E+00  0.54840100166E+03  0.54840100166E+03  0.00000000000E+00 0. -1.
         -1   -1    0    0    0  501 -0.00000000000E+00 -0.00000000000E+00 -0.22928842779E+02  0.22928842779E+02  0.00000000000E+00 0.  1.
         25    2    1    2    0    0  0.17725452770E+02 -0.15722306347E+02  0.30752714098E+03  0.33283758944E+03  0.12508611398E+03 0.  0.
          5    1    3    3  502    0  0.68754777709E+02 -0.19618610992E+02  0.13487693651E+03  0.15271335815E+03  0.41800000000E+01 0. -1.
         -5    1    3    3    0  502 -0.51029324938E+02  0.38963046454E+01  0.17265020448E+03  0.18012423130E+03  0.41800000000E+01 0. -1.
        -11    1    1    2    0    0  0.28503284396E+02 -0.11038842728E+02  0.28972145392E+02  0.42115062374E+02  0.00000000000E+00 0.  1.
         11    1    1    2    0    0 -0.46228737167E+02  0.26761149074E+02  0.18897287250E+03  0.19637719262E+03  0.00000000000E+00 0. -1.
</event>
<event>
 7    1  0.2626349E-009  0.1499094E+03  0.7561462E-02  0.1200584E+00
          1   -1    0    0  501    0  0.00000000000E+00  0.00000000000E+00  0.19600288679E+04  0.19600288679E+04  0.00000000000E+00 0. -1.
         -1   -1    0    0    0  501 -0.00000000000E+00 -0.00000000000E+00 -0.17312638312E+02  0.17312638312E+02  0.00000000000E+00 0.  1.
         25    2    1    2    0    0 -0.55242957290E+02  0.10246050985E+03  0.15163313227E+04  0.15259288165E+04  0.12509249512E+03 0.  0.
          5    1    3    3  502    0  0.38070930919E+02  0.49610363217E+02  0.63563567499E+03  0.63871806585E+03  0.41800000000E+01 0.  1.
         -5    1    3    3    0  502 -0.93313888209E+02  0.52850146629E+02  0.88069564770E+03  0.88721075062E+03  0.41800000000E+01 0.  1.
        -11    1    1    2    0    0  0.39832429113E+02 -0.10665547910E+03  0.41828972936E+03  0.43350699109E+03  0.00000000000E+00 0. -1.
         11    1    1    2    0    0  0.15410528176E+02  0.41949692570E+01  0.80951775629E+01  0.17905698688E+02  0.00000000000E+00 0.  1.
</event>
<event>
 7    1  0.2626349E-009  0.1404945E+03  0.7561462E-02  0.1212665E+00
         -4   -1    0    0    0  501 -0.00000000000E+00  0.00000000000E+00  0.51325762666E+02  0.51325762666E+02  0.00000000000E+00 0.  1.
          4   -1    0    0  501    0  0.00000000000E+00 -0.00000000000E+00 -0.45911622664E+03  0.45911622664E+03  0.00000000000E+00 0. -1.
         25    2    1    2    0    0 -0.37498944316E+02  0.94082100278E+02 -0.16058803625E+03  0.22736443213E+03  0.12509378559E+03 0.  0.
          5    1    3    3  502    0  0.43773832859E+02  0.12546817994E+02 -0.43765193758E+02  0.63296411190E+02  0.41800000000E+01 0.  1.
         -5    1    3    3    0  502 -0.81272777175E+02  0.81535282284E+02 -0.11682284249E+03  0.16406802094E+03  0.41800000000E+01 0.  1.
        -11    1    1    2    0    0  0.26474075674E+02 -0.11714914958E+01 -0.13216531831E+03  0.13479584726E+03  0.00000000000E+00 0.  1.
         11    1    1    2    0    0  0.11024868643E+02 -0.92910608782E+02 -0.11503710942E+03  0.14828170992E+03  0.00000000000E+00 0. -1.
</event>
<event>
 7    1  0.2626349E-009  0.5989739E+02  0.7561462E-02  0.1398263E+00
          2   -1    0    0  501    0  0.00000000000E+00  0.00000000000E+00  0.74095730634E+02  0.74095730634E+02  0.00000000000E+00 0. -1.
         -2   -1    0    0    0  501 -0.00000000000E+00 -0.00000000000E+00 -0.19320500798E+03  0.19320500798E+03  0.00000000000E+00 0.  1.
         25    2    1    2    0    0  0.25283878536E+02 -0.39950176316E+02 -0.34142379967E+02  0.13801572230E+03  0.12508935363E+03 0.  0.
          5    1    3    3  502    0  0.24649230591E+02 -0.18026117935E+02 -0.80697407213E+02  0.86383270530E+02  0.41800000000E+01 0.  1.
         -5    1    3    3    0  502  0.63464794515E+00 -0.21924058380E+02  0.46555027246E+02  0.51632451770E+02  0.41800000000E+01 0.  1.
        -11    1    1    2    0    0 -0.84140322534E+01  0.47444739625E+02 -0.96258815886E+02  0.10764552426E+03  0.00000000000E+00 0.  1.
         11    1    1    2    0    0 -0.16869846283E+02 -0.74945633091E+01  0.11291918508E+02  0.21639492055E+02  0.00000000000E+00 0. -1.
</event>
<event>
 7    1  0.2626349E-009  0.9411045E+02  0.7561462E-02  0.1293192E+00
         -1   -1    0    0    0  501 -0.00000000000E+00  0.00000000000E+00  0.81076563956E+02  0.81076563956E+02  0.00000000000E+00 0.  1.
          1   -1    0    0  501    0  0.00000000000E+00 -0.00000000000E+00 -0.18239450748E+03  0.18239450748E+03  0.00000000000E+00 0. -1.
         25    2    1    2    0    0  0.47108318059E-01  0.53301488225E+02 -0.64883583282E+02  0.15065785546E+03  0.12508740610E+03 0.  0.
          5    1    3    3  502    0  0.58155484615E+02  0.55678054662E+01 -0.41542883014E+02  0.71807690240E+02  0.41800000000E+01 0. -1.
         -5    1    3    3    0  502 -0.58108376297E+02  0.47733682759E+02 -0.23340700269E+02  0.78850165217E+02  0.41800000000E+01 0. -1.
        -11    1    1    2    0    0 -0.44605722480E+01 -0.12090093246E+02 -0.62524160167E+02  0.63838371409E+02  0.00000000000E+00 0. -1.
         11    1    1    2    0    0  0.44134639300E+01 -0.41211394979E+02  0.26089799930E+02  0.48974844567E+02  0.00000000000E+00 0.  1.
</event>
<event>
 7    1  0.2626349E-009  0.1015248E+03  0.7561462E-02  0.1277122E+00
         -1   -1    0    0    0  501 -0.00000000000E+00  0.00000000000E+00  0.53558167890E+03  0.53558167890E+03  0.00000000000E+00 0.  1.
          1   -1    0    0  501    0  0.00000000000E+00 -0.00000000000E+00 -0.23741450916E+02  0.23741450916E+02  0.00000000000E+00 0. -1.
         25    2    1    2    0    0  0.44992903618E+01 -0.11680102549E+02  0.21628637443E+03  0.25016798664E+03  0.12509019693E+03 0.  0.
          5    1    3    3  502    0  0.52770744488E+02  0.19741313577E+02  0.54970450227E+02  0.78826986075E+02  0.41800000000E+01 0. -1.
         -5    1    3    3    0  502 -0.48271454126E+02 -0.31421416126E+02  0.16131592420E+03  0.17134100057E+03  0.41800000000E+01 0. -1.
        -11    1    1    2    0    0  0.19239660833E+02 -0.33005488334E+02  0.15907463067E+03  0.16359787569E+03  0.00000000000E+00 0.  1.
         11    1    1    2    0    0 -0.23738951195E+02  0.44685590883E+02  0.13647922289E+03  0.14555726748E+03  0.00000000000E+00 0. -1.
</event>
<event>
 7    1  0.2626349E-009  0.1064716E+03  0.7561462E-02  0.1267247E+00
         -2   -1    0    0    0  501 -0.00000000000E+00  0.00000000000E+00  0.20290829970E+03  0.20290829970E+03  0.00000000000E+00 0.  1.
          2   -1    0    0  501    0  0.00000000000E+00 -0.00000000000E+00 -0.10352992716E+03  0.10352992716E+03  0.00000000000E+00 0. -1.
         25    2    1    2    0    0  0.91150916894E+02 -0.28989695304E+02  0.54925478401E+02  0.16677250194E+03  0.12508943656E+03 0.  0.
          5    1    3    3  502    0  0.61016136809E+02  0.66806759183E+01 -0.30998082711E+02  0.68890884111E+02  0.41800000000E+01 0. -1.
         -5    1    3    3    0  502  0.30134780085E+02 -0.35670371222E+02  0.85923561112E+02  0.97881617825E+02  0.41800000000E+01 0. -1.
        -11    1    1    2    0    0 -0.18862530023E+02 -0.11090927614E+02  0.52245677713E+02  0.56642868518E+02  0.00000000000E+00 0.  1.
         11    1    1    2    0    0 -0.72288386870E+02  0.40080622918E+02 -0.77927835728E+01  0.83022856405E+02  0.00000000000E+00 0. -1.
</event>
<event>
 7    1  0.2626349E-009  0.1402815E+03  0.7561462E-02  0.1212951E+00
         -2   -1    0    0    0  501 -0.00000000000E+00  0.00000000000E+00  0.54916210061E+02  0.54916210061E+02  0.00000000000E+00 0.  1.
          2   -1    0    0  501    0  0.00000000000E+00 -0.00000000000E+00 -0.52848963703E+03  0.52848963703E+03  0.00000000000E+00 0. -1.
         25    2    1    2    0    0  0.95718918393E+02  0.55954927673E+02 -0.36838152600E+03  0.40453123535E+03  0.12508999322E+03 0.  0.
          5    1    3    3  502    0 -0.23637337770E+02  0.13357487328E+02 -0.20542806237E+02  0.34301975055E+02  0.41800000000E+01 0. -1.
         -5    1    3    3    0  502  0.11935625616E+03  0.42597440345E+02 -0.34783871976E+03  0.37022926029E+03  0.41800000000E+01 0. -1.
        -11    1    1    2    0    0 -0.82289757341E+01  0.12665375898E+02  0.10514079061E+02  0.18403087969E+02  0.00000000000E+00 0.  1.
         11    1    1    2    0    0 -0.87489942659E+02 -0.68620303572E+02 -0.11570598003E+03  0.16047152378E+03  0.00000000000E+00 0. -1.
</event>
<event>
 7    1  0.2626349E-009  0.2338340E+03  0.7561462E-02  0.1123970E+00
          1   -1    0    0  501    0  0.00000000000E+00  0.00000000000E+00  0.29472757853E+03  0.29472757853E+03  0.00000000000E+00 0. -1.
         -1   -1    0    0    0  501 -0.00000000000E+00 -0.00000000000E+00 -0.69082387805E+03  0.69082387805E+03  0.00000000000E+00 0.  1.
         25    2    1    2    0    0  0.16498279046E+03 -0.13426686134E+03 -0.61710711536E+03  0.66461751566E+03  0.12509332153E+03 0.  0.
          5    1    3    3  502    0  0.14963372915E+03 -0.45449092099E+02 -0.38224398672E+03  0.41301793018E+03  0.41800000000E+01 0. -1.
         -5    1    3    3    0  502  0.15349061311E+02 -0.88817769236E+02 -0.23486312865E+03  0.25159958548E+03  0.41800000000E+01 0. -1.
        -11    1    1    2    0    0 -0.73839257476E+02  0.23364492884E+02  0.12888771844E+03  0.15036681628E+03  0.00000000000E+00 0. -1.
         11    1    1    2    0    0 -0.91143532984E+02  0.11090236845E+03  0.92123097402E+02  0.17056712464E+03  0.00000000000E+00 0.  1.
</event>
<event>
 7    1  0.2626349E-009  0.1521011E+03  0.7561462E-02  0.1197915E+00
          1   -1    0    0  501    0  0.00000000000E+00  0.00000000000E+00  0.13377586934E+04  0.13377586934E+04  0.00000000000E+00 0. -1.
         -1   -1    0    0    0  501 -0.00000000000E+00 -0.00000000000E+00 -0.23305945793E+02  0.23305945793E+02  0.00000000000E+00 0.  1.
         25    2    1    2    0    0 -0.43741199663E+01 -0.10672434205E+03  0.10403356439E+04  0.10532596232E+04  0.12509342025E+03 0.  0.
          5    1    3    3  502    0  0.17024129083E+02 -0.13067810400E+03  0.81095030677E+03  0.82159872218E+03  0.41800000000E+01 0.  1.
         -5    1    3    3    0  502 -0.21398249049E+02  0.23953761944E+02  0.22938533711E+03  0.23166090101E+03  0.41800000000E+01 0. -1.
        -11    1    1    2    0    0  0.46448709917E+02  0.41170708381E+02  0.11747403721E+03  0.13286331059E+03  0.00000000000E+00 0.  1.
         11    1    1    2    0    0 -0.42074589951E+02  0.65553633673E+02  0.15664306649E+03  0.17494170540E+03  0.00000000000E+00 0. -1.
</event>
<event>
 7    1  0.2626349E-009  0.1990428E+03  0.7561462E-02  0.1150549E+00
         -1   -1    0    0    0  501 -0.00000000000E+00  0.00000000000E+00  0.36959351004E+02  0.36959351004E+02  0.00000000000E+00 0.  1.
          1   -1    0    0  501    0  0.00000000000E+00 -0.00000000000E+00 -0.11732560992E+04  0.11732560992E+04  0.00000000000E+00 0. -1.
         25    2    1    2    0    0  0.36784964087E+02 -0.17157442438E+03 -0.52699826060E+03  0.56935443524E+03  0.12508552901E+03 0.  0.
          5    1    3    3  502    0 -0.45389396791E+02 -0.62690479967E+02 -0.22422594301E+03  0.23724468285E+03  0.41800000000E+01 0.  1.
         -5    1    3    3    0  502  0.82174360878E+02 -0.10888394441E+03 -0.30277231758E+03  0.33210975239E+03  0.41800000000E+01 0.  1.
        -11    1    1    2    0    0  0.14871289594E+02  0.44845174655E+02 -0.69880051615E+02  0.84353224940E+02  0.00000000000E+00 0.  1.
         11    1    1    2    0    0 -0.51656253681E+02  0.12672924973E+03 -0.53941843596E+03  0.55650779001E+03  0.00000000000E+00 0. -1.
</event>
<event>
 7    1  0.2626349E-009  0.1018088E+03  0.7561462E-02  0.1276538E+00
         -1   -1    0    0    0  501 -0.00000000000E+00  0.00000000000E+00  0.18932318694E+02  0.18932318694E+02  0.00000000000E+00 0.  1.
          1   -1    0    0  501    0  0.00000000000E+00 -0.00000000000E+00 -0.11042001987E+04  0.11042001987E+04  0.00000000000E+00 0. -1.
         25    2    1    2    0    0 -0.50076714558E+02  0.55991254824E+01 -0.91998291303E+03  0.92981430068E+03  0.12508815264E+03 0.  0.
          5    1    3    3  502    0  0.33697174229E+02 -0.88213367168E+01 -0.11211799101E+03  0.11747864419E+03  0.41800000000E+01 0. -1.
         -5    1    3    3    0  502 -0.83773888787E+02  0.14420462199E+02 -0.80786492201E+03  0.81233565648E+03  0.41800000000E+01 0. -1.
        -11    1    1    2    0    0  0.42878193622E+02 -0.33625301912E+02 -0.48325004725E+02  0.72832043076E+02  0.00000000000E+00 0.  1.
         11    1    1    2    0    0  0.71985209353E+01  0.28026176429E+02 -0.11695996229E+03  0.12048617368E+03  0.00000000000E+00 0. -1.
</event>
<event>
 7    1  0.2626349E-009  0.9649907E+02  0.7561462E-02  0.1287835E+00
         -3   -1    0    0    0  501 -0.00000000000E+00  0.00000000000E+00  0.96822047405E+02  0.96822047405E+02  0.00000000000E+00 0.  1.
          3   -1    0    0  501    0  0.00000000000E+00 -0.00000000000E+00 -0.14774955017E+03  0.14774955017E+03  0.00000000000E+00 0. -1.
         25    2    1    2    0    0  0.34936960331E+02 -0.32319683163E+02 -0.84532854046E+01  0.13410720938E+03  0.12509249561E+03 0.  0.
          5    1    3    3  502    0 -0.14871752524E+02  0.16127337966E+02 -0.48787828999E+02  0.53656171233E+02  0.41800000000E+01 0.  1.
         -5    1    3    3    0  502  0.49808712855E+02 -0.48447021130E+02  0.40334543594E+02  0.80451038151E+02  0.41800000000E+01 0.  1.
        -11    1    1    2    0    0 -0.78888730707E+01 -0.31112981349E+02 -0.67425053287E+01  0.32798068614E+02  0.00000000000E+00 0.  1.
         11    1    1    2    0    0 -0.27048087260E+02  0.63432664512E+02 -0.35731712029E+02  0.77666319573E+02  0.00000000000E+00 0. -1.
</event>
<event>
 7    1  0.2626349E-009  0.1097997E+03  0.7561462E-02  0.1260941E+00
         -3   -1    0    0    0  501 -0.00000000000E+00  0.00000000000E+00  0.22297865356E+02  0.22297865356E+02  0.00000000000E+00 0.  1.
          3   -1    0    0  501    0  0.00000000000E+00 -0.00000000000E+00 -0.55117551088E+03  0.55117551088E+03  0.00000000000E+00 0. -1.
         25    2    1    2    0    0 -0.10664433665E+02 -0.22146511608E+02 -0.32129007446E+03  0.34565768982E+03  0.12509088083E+03 0.  0.
          5    1    3    3  502    0 -0.63723261111E+02 -0.32852981341E+02 -0.15738658429E+03  0.17299705693E+03  0.41800000000E+01 0.  1.
         -5    1    3    3    0  502  0.53058827447E+02  0.10706469733E+02 -0.16390349016E+03  0.17266063289E+03  0.41800000000E+01 0.  1.
        -11    1    1    2    0    0 -0.34566998348E+02  0.32109067227E+02 -0.11461463706E+03  0.12394508704E+03  0.00000000000E+00 0.  1.
         11    1    1    2    0    0  0.45231432013E+02 -0.99625556191E+01 -0.92972934010E+02  0.10387059938E+03  0.00000000000E+00 0. -1.
</event>
<event>
 7    1  0.2626349E-009  0.1451785E+03  0.7561462E-02  0.1206526E+00
          2   -1    0    0  501    0  0.00000000000E+00  0.00000000000E+00  0.15797499942E+04  0.15797499942E+04  0.00000000000E+00 0. -1.
         -2   -1    0    0    0  501 -0.00000000000E+00 -0.00000000000E+00 -0.19483285241E+02  0.19483285241E+02  0.00000000000E+00 0.  1.
         25    2    1    2    0    0 -0.68818636237E+02  0.91801905852E+02  0.11700075930E+04  0.11822558399E+04  0.12509000227E+03 0.  0.
          5    1    3    3  502    0 -0.56603136959E+02  0.12325164673E+03  0.94682230260E+03  0.95649612055E+03  0.41800000000E+01 0.  1.
         -5    1    3    3    0  502 -0.12215499278E+02 -0.31449740879E+02  0.22318529037E+03  0.22575971930E+03  0.41800000000E+01 0.  1.
        -11    1    1    2    0    0  0.39195741033E+02 -0.22250277219E+02  0.45562628807E+02  0.64088486449E+02  0.00000000000E+00 0.  1.
         11    1    1    2    0    0  0.29622895203E+02 -0.69551628633E+02  0.34469648719E+03  0.35288895314E+03  0.00000000000E+00 0. -1.
</event>
<event>
 7    1  0.3416155E-009  0.9265963E+02  0.7561462E-02  0.1296536E+00
         -2   -1    0    0    0  501 -0.00000000000E+00  0.00000000000E+00  0.19102982052E+02  0.19102982052E+02  0.00000000000E+00 0.  1.
          2   -1    0    0  501    0  0.00000000000E+00 -0.00000000000E+00 -0.90828216814E+03  0.90828216814E+03  0.00000000000E+00 0. -1.
         25    2    1    2    0    0  0.34234144228E+02  0.47980372897E+02 -0.65304801341E+03  0.66752781001E+03  0.12509027344E+03 0.  0.
          5    1    3    3  502    0  0.14692416016E+02 -0.33778345501E+02 -0.78098115991E+02  0.86450169662E+02  0.41800000000E+01 0. -1.
         -5    1    3    3    0  502  0.19541728212E+02  0.81758718398E+02 -0.57494989742E+03  0.58107764035E+03  0.41800000000E+01 0. -1.
        -11    1    1    2    0    0 -0.25798818179E+01 -0.24585855476E+02 -0.47762828110E+01  0.25178025283E+02  0.00000000000E+00 0.  1.
         11    1    1    2    0    0 -0.31654262411E+02 -0.23394517421E+02 -0.23135488987E+03  0.23467931489E+03  0.00000000000E+00 0. -1.
</event>
<event>
 7    1  0.2626349E-009  0.1140406E+03  0.7561462E-02  0.1253265E+00
          2   -1    0    0  501    0  0.00000000000E+00  0.00000000000E+00  0.53973671039E+03  0.53973671039E+03  0.00000000000E+00 0. -1.
         -2   -1    0    0    0  501 -0.00000000000E+00 -0.00000000000E+00 -0.25000399896E+02  0.25000399896E+02  0.00000000000E+00 0.  1.
         25    2    1    2    0    0  0.54030882099E+02 -0.37094806752E+01  0.26109299176E+03  0.29453424961E+03  0.12509107635E+03 0.  0.
          5    1    3    3  502    0  0.77256769878E+02  0.38962565646E+02  0.18299215229E+03  0.20246058928E+03  0.41800000000E+01 0.  1.
         -5    1    3    3    0  502 -0.23225887779E+02 -0.42672046321E+02  0.78100839468E+02  0.92073660327E+02  0.41800000000E+01 0.  1.
        -11    1    1    2    0    0  0.18877089969E+02 -0.42531412231E+01  0.42895558873E+02  0.47058078021E+02  0.00000000000E+00 0.  1.
         11    1    1    2    0    0 -0.72907972068E+02  0.79626218983E+01  0.21074775986E+03  0.22314478265E+03  0.00000000000E+00 0. -1.
</event>
<event>
 7    1  0.2626349E-009  0.1068653E+03  0.7561462E-02  0.1266487E+00
          2   -1    0    0  501    0  0.00000000000E+00  0.00000000000E+00  0.84104003666E+02  0.84104003666E+02  0.00000000000E+00 0. -1.
         -2   -1    0    0    0  501 -0.00000000000E+00 -0.00000000000E+00 -0.25761356471E+03  0.25761356471E+03  0.00000000000E+00 0.  1.
         25    2    1    2    0    0  0.22138117734E+02 -0.65849437697E+02 -0.11934449305E+02  0.14358927199E+03  0.12509677553E+03 0.  0.
          5    1    3    3  502    0  0.16832454219E+02  0.11894723443E+02 -0.51838155760E+02  0.55941780034E+02  0.41800000000E+01 0.  1.
         -5    1    3    3    0  502  0.53056635157E+01 -0.77744161139E+02  0.39903706455E+02  0.87647491952E+02  0.41800000000E+01 0.  1.
        -11    1    1    2    0    0 -0.57217731291E+02  0.30406427317E+02 -0.92033436104E+02  0.11255475537E+03  0.00000000000E+00 0.  1.
         11    1    1    2    0    0  0.35079613556E+02  0.35443010380E+02 -0.69541675636E+02  0.85573541018E+02  0.00000000000E+00 0. -1.
</event>
<event>
 7    1  0.2626349E-009  0.8701182E+02  0.7561462E-02  0.1310254E+00
          2   -1    0    0  501    0  0.00000000000E+00  0.00000000000E+00  0.56791304215E+02  0.56791304215E+02  0.00000000000E+00 0. -1.
         -2   -1    0    0    0  501 -0.00000000000E+00 -0.00000000000E+00 -0.21068269265E+03  0.21068269265E+03  0.00000000000E+00 0.  1.
         25    2    1    2    0    0  0.10909862965E+02  0.12020823729E+02 -0.91877990029E+02  0.15605479506E+03  0.12509200093E+03 0.  0.
          5    1    3    3  502    0  0.53562639907E+02  0.15051302927E+02 -0.13062177327E+01  0.55809288818E+02  0.41800000000E+01 0.  1.
         -5    1    3    3    0  502 -0.42652776942E+02 -0.30304791984E+01 -0.90571772296E+02  0.10024550624E+03  0.41800000000E+01 0.  1.
        -11    1    1    2    0    0  0.28311323855E+02 -0.20729570689E+02 -0.62002332828E+02  0.71242792165E+02  0.00000000000E+00 0.  1.
         11    1    1    2    0    0 -0.39221186820E+02  0.87087469604E+01 -0.11065580052E-01  0.40176409641E+02  0.00000000000E+00 0. -1.
</event>
<event>
 7    1  0.2626349E-009  0.1930059E+03  0.7561462E-02  0.1155778E+00
          2   -1    0    0  501    0  0.00000000000E+00  0.00000000000E+00  0.16516830104E+04  0.16516830104E+04  0.00000000000E+00 0.  1.
         -2   -1    0    0    0  501 -0.00000000000E+00 -0.00000000000E+00 -0.23438064617E+02  0.23438064617E+02  0.00000000000E+00 0. -1.
         25    2    1    2    0    0 -0.50862500249E+02  0.15539275550E+03  0.89979114391E+03  0.92304176712E+03  0.12509236108E+03 0.  0.
          5    1    3    3  502    0 -0.64332780720E+01  0.15448773037E+03  0.58506799159E+03  0.60516929291E+03  0.41800000000E+01 0.  1.
         -5    1    3    3    0  502 -0.44429222177E+02  0.90502512878E+00  0.31472315232E+03  0.31787247420E+03  0.41800000000E+01 0.  1.
        -11    1    1    2    0    0 -0.13341172196E+02 -0.10291818842E+03  0.38272809925E+03  0.39654878431E+03  0.00000000000E+00 0.  1.
         11    1    1    2    0    0  0.64203672445E+02 -0.52474567079E+02  0.34572570260E+03  0.35553052356E+03  0.00000000000E+00 0. -1.
</event>
<event>
 7    1  0.2626349E-009  0.8135942E+02  0.7561462E-02  0.1325237E+00
          1   -1    0    0  501    0  0.00000000000E+00  0.00000000000E+00  0.62755041124E+02  0.62755041124E+02  0.00000000000E+00 0. -1.
         -1   -1    0    0    0  501 -0.00000000000E+00 -0.00000000000E+00 -0.36101880234E+03  0.36101880234E+03  0.00000000000E+00 0.  1.
         25    2    1    2    0    0 -0.12707556020E+02 -0.31714469095E+02 -0.23087137341E+02  0.13171224492E+03  0.12509120681E+03 0.  0.
          5    1    3    3  502    0  0.14357325728E+02  0.88895550910E+01 -0.64976820373E+02  0.67265270219E+02  0.41800000000E+01 0.  1.
         -5    1    3    3    0  502 -0.27064881748E+02 -0.40604024186E+02  0.41889683032E+02  0.64446974705E+02  0.41800000000E+01 0.  1.
        -11    1    1    2    0    0 -0.22435684084E+02 -0.22476446811E+02 -0.67998166346E+02  0.75048658935E+02  0.00000000000E+00 0.  1.
         11    1    1    2    0    0  0.35143240104E+02  0.54190915905E+02 -0.20717845752E+03  0.21701293960E+03  0.00000000000E+00 0. -1.
</event>
<event>
 7    1  0.2626349E-009  0.8175230E+02  0.7561462E-02  0.1324151E+00
          2   -1    0    0  501    0  0.00000000000E+00  0.00000000000E+00  0.83951554027E+02  0.83951554027E+02  0.00000000000E+00 0. -1.
         -2   -1    0    0    0  501 -0.00000000000E+00 -0.00000000000E+00 -0.15526298168E+03  0.15526298168E+03  0.00000000000E+00 0.  1.
         25    2    1    2    0    0 -0.36505704910E+02  0.59354518188E+01 -0.38358528469E+02  0.13596577106E+03  0.12508964031E+03 0.  0.
          5    1    3    3  502    0  0.29232621877E+01  0.55170030748E+02  0.10094564430E+02  0.56317407483E+02  0.41800000000E+01 0. -1.
         -5    1    3    3    0  502 -0.39428967098E+02 -0.49234578929E+02 -0.48453092899E+02  0.79648363575E+02  0.41800000000E+01 0. -1.
        -11    1    1    2    0    0  0.11727755816E+02  0.10009957837E+02 -0.60789135694E+02  0.62714101531E+02  0.00000000000E+00 0.  1.
         11    1    1    2    0    0  0.24777949095E+02 -0.15945409656E+02  0.27836236515E+02  0.40534663113E+02  0.00000000000E+00 0. -1.
</event>
<event>
 7    1  0.2626349E-009  0.8731392E+02  0.7561462E-02  0.1309490E+00
         -3   -1    0    0    0  501 -0.00000000000E+00  0.00000000000E+00  0.47662195185E+02  0.47662195185E+02  0.00000000000E+00 0.  1.
          3   -1    0    0  501    0  0.00000000000E+00 -0.00000000000E+00 -0.46115832690E+03  0.46115832690E+03  0.00000000000E+00 0. -1.
         25    2    1    2    0    0  0.13432141865E+02  0.73431556632E+02 -0.34471384523E+03  0.37422961170E+03  0.12509017242E+03 0.  0.
          5    1    3    3  502    0  0.16259755342E+01  0.54178112937E+02 -0.34692161662E+03  0.35115522521E+03  0.41800000000E+01 0. -1.
         -5    1    3    3    0  502  0.11806166331E+02  0.19253443695E+02  0.22077713823E+01  0.23074386493E+02  0.41800000000E+01 0. -1.
        -11    1    1    2    0    0 -0.38630610194E+02 -0.44160610957E+02 -0.75260026813E+02  0.95428272749E+02  0.00000000000E+00 0. -1.
         11    1    1    2    0    0  0.25198468328E+02 -0.29270945675E+02  0.64777403265E+01  0.39162637636E+02  0.00000000000E+00 0.  1.
</event>
<event>
 7    1  0.2626349E-009  0.9127813E+02  0.7561462E-02  0.1299786E+00
         -1   -1    0    0    0  501 -0.00000000000E+00  0.00000000000E+00  0.45200809038E+03  0.45200809038E+03  0.00000000000E+00 0.  1.
          1   -1    0    0  501    0  0.00000000000E+00 -0.00000000000E+00 -0.41045397593E+02  0.41045397593E+02  0.00000000000E+00 0. -1.
         25    2    1    2    0    0 -0.14333206752E+02 -0.50696530243E+02  0.33065331414E+03  0.35742777475E+03  0.12508965192E+03 0.  0.
          5    1    3    3  502    0  0.11193865328E+02 -0.59014300877E+02  0.32387381173E+03  0.32942329707E+03  0.41800000000E+01 0.  1.
         -5    1    3    3    0  502 -0.25527072080E+02  0.83177706342E+01  0.67795024144E+01  0.28004477683E+02  0.41800000000E+01 0.  1.
        -11    1    1    2    0    0 -0.26089263865E+02 -0.47882675681E+01  0.57439850817E+02  0.63268583493E+02  0.00000000000E+00 0.  1.
         11    1    1    2    0    0  0.40422470617E+02  0.55484797811E+02  0.22869527824E+02  0.72357129723E+02  0.00000000000E+00 0. -1.
</event>
<event>
 7    1  0.2626349E-009  0.8156570E+02  0.7561462E-02  0.1324666E+00
          2   -1    0    0  501    0  0.00000000000E+00  0.00000000000E+00  0.73179253033E+02  0.73179253033E+02  0.00000000000E+00 0. -1.
         -2   -1    0    0    0  501 -0.00000000000E+00 -0.00000000000E+00 -0.29173261811E+03  0.29173261811E+03  0.00000000000E+00 0.  1.
         25    2    1    2    0    0  0.59200910210E+01 -0.93859914514E+01 -0.23328944403E+03  0.26494105435E+03  0.12508658310E+03 0.  0.
          5    1    3    3  502    0 -0.30725784405E+02 -0.39252329324E+02 -0.20198532969E+03  0.20808739749E+03  0.41800000000E+01 0. -1.
         -5    1    3    3    0  502  0.36645875426E+02  0.29866337873E+02 -0.31304114336E+02  0.56853656857E+02  0.41800000000E+01 0. -1.
        -11    1    1    2    0    0 -0.33888889465E+02  0.15103047030E+02  0.45029699012E+02  0.58345802350E+02  0.00000000000E+00 0. -1.
         11    1    1    2    0    0  0.27968798444E+02 -0.57170555781E+01 -0.30293620057E+02  0.41625014439E+02  0.00000000000E+00 0.  1.
</event>
<event>
 7    1  0.2626349E-009  0.9923639E+02  0.7561462E-02  0.1281910E+00
         -1   -1    0    0    0  501 -0.00000000000E+00  0.00000000000E+00  0.83484498497E+01  0.83484498497E+01  0.00000000000E+00 0.  1.
          1   -1    0    0  501    0  0.00000000000E+00 -0.00000000000E+00 -0.12210146242E+04  0.12210146242E+04  0.00000000000E+00 0. -1.
         25    2    1    2    0    0 -0.20487554012E+02  0.15181738129E+02 -0.85799716317E+03  0.86744120096E+03  0.12507949500E+03 0.  0.
          5    1    3    3  502    0  0.42113848594E+02 -0.27592089047E+02 -0.40246519510E+03  0.40562372377E+03  0.41800000000E+01 0. -1.
         -5    1    3    3    0  502 -0.62601402605E+02  0.42773827175E+02 -0.45553196807E+03  0.46181747718E+03  0.41800000000E+01 0. -1.
        -11    1    1    2    0    0  0.23090895634E+01  0.26470614864E+02 -0.12298833394E+03  0.12582589412E+03  0.00000000000E+00 0. -1.
         11    1    1    2    0    0  0.18178464448E+02 -0.41652352992E+02 -0.23168067723E+03  0.23609597896E+03  0.00000000000E+00 0.  1.
</event>
<event>
 7    1  0.2626349E-009  0.1460248E+03  0.7561462E-02  0.1205445E+00
         -2   -1    0    0    0  501 -0.00000000000E+00  0.00000000000E+00  0.50253806262E+02  0.50253806262E+02  0.00000000000E+00 0.  1.
          2   -1    0    0  501    0  0.00000000000E+00 -0.00000000000E+00 -0.53608340921E+03  0.53608340921E+03  0.00000000000E+00 0. -1.
         25    2    1    2    0    0 -0.94210996407E+02 -0.27620440134E+02 -0.39211816708E+03  0.42313658646E+03  0.12509721537E+03 0.  0.
          5    1    3    3  502    0 -0.12454676775E+03 -0.15210633620E+02 -0.29701657945E+03  0.32245865099E+03  0.41800000000E+01 0. -1.
         -5    1    3    3    0  502  0.30335771346E+02 -0.12409806514E+02 -0.95101587627E+02  0.10067793547E+03  0.41800000000E+01 0. -1.
        -11    1    1    2    0    0 -0.17038218469E+02 -0.45942541330E+01 -0.98676759162E+01  0.20218285971E+02  0.00000000000E+00 0. -1.
         11    1    1    2    0    0  0.11124921488E+03  0.32214694267E+02 -0.83843759951E+02  0.14298234304E+03  0.00000000000E+00 0.  1.
</event>
<event>
 7    1  0.2626349E-009  0.1052295E+03  0.7561462E-02  0.1269668E+00
          2   -1    0    0  501    0  0.00000000000E+00  0.00000000000E+00  0.24867921990E+03  0.24867921990E+03  0.00000000000E+00 0. -1.
         -2   -1    0    0    0  501 -0.00000000000E+00 -0.00000000000E+00 -0.68797606273E+02  0.68797606273E+02  0.00000000000E+00 0.  1.
         25    2    1    2    0    0 -0.65763989348E+02 -0.87198843905E+01  0.16066551686E+03  0.21415440604E+03  0.12509101742E+03 0.  0.
          5    1    3    3  502    0 -0.41753092360E+02  0.57178835492E+02  0.72582553708E+02  0.10148122709E+03  0.41800000000E+01 0.  1.
         -5    1    3    3    0  502 -0.24010896988E+02 -0.65898719882E+02  0.88082963148E+02  0.11267317894E+03  0.41800000000E+01 0.  1.
        -11    1    1    2    0    0  0.50247010086E+02 -0.22071218616E+01  0.47553568878E+02  0.69216871661E+02  0.00000000000E+00 0. -1.
         11    1    1    2    0    0  0.15516979263E+02  0.10927006252E+02 -0.28337472110E+02  0.34105548473E+02  0.00000000000E+00 0.  1.
</event>
<event>
 7    1  0.2626349E-009  0.1172739E+03  0.7561462E-02  0.1247663E+00
          3   -1    0    0  501    0  0.00000000000E+00  0.00000000000E+00  0.40055344271E+02  0.40055344271E+02  0.00000000000E+00 0. -1.
         -3   -1    0    0    0  501 -0.00000000000E+00 -0.00000000000E+00 -0.39447346001E+03  0.39447346001E+03  0.00000000000E+00 0.  1.
         25    2    1    2    0    0  0.23969837839E+02 -0.31946575139E+02 -0.27040448319E+03  0.30060252617E+03  0.12509259538E+03 0.  0.
          5    1    3    3  502    0 -0.48761884415E+02  0.55305452130E+01 -0.94989643157E+02  0.10699912621E+03  0.41800000000E+01 0. -1.
         -5    1    3    3    0  502  0.72731722254E+02 -0.37477120352E+02 -0.17541484004E+03  0.19360339996E+03  0.41800000000E+01 0. -1.
        -11    1    1    2    0    0 -0.13308162288E+02 -0.34028492932E+02 -0.38444247176E+02  0.53037775741E+02  0.00000000000E+00 0. -1.
         11    1    1    2    0    0 -0.10661675551E+02  0.65975068071E+02 -0.45569385367E+02  0.80888502367E+02  0.00000000000E+00 0.  1.
</event>
<event>
 7    1  0.2626349E-009  0.7421570E+02  0.7561462E-02  0.1346317E+00
          2   -1    0    0  501    0  0.00000000000E+00  0.00000000000E+00  0.96713338673E+02  0.96713338673E+02  0.00000000000E+00 0. -1.
         -2   -1    0    0    0  501 -0.00000000000E+00 -0.00000000000E+00 -0.14542755917E+03  0.14542755917E+03  0.00000000000E+00 0.  1.
         25    2    1    2    0    0 -0.28188768835E+02 -0.38798420550E+02 -0.32190494951E+02  0.13778292314E+03  0.12509189350E+03 0.  0.
          5    1    3    3  502    0 -0.46880529212E+02 -0.11006522042E+02  0.36951348548E+02  0.60842436721E+02  0.41800000000E+01 0. -1.
         -5    1    3    3    0  502  0.18691760377E+02 -0.27791898508E+02 -0.69141843498E+02  0.76940486423E+02  0.41800000000E+01 0. -1.
        -11    1    1    2    0    0  0.40695803269E+02  0.25197333509E+02 -0.48045978851E+02  0.67819393269E+02  0.00000000000E+00 0.  1.
         11    1    1    2    0    0 -0.12507034434E+02  0.13601087041E+02  0.31522253308E+02  0.36538581426E+02  0.00000000000E+00 0. -1.
</event>
<event>
 7    1  0.2626349E-009  0.1041248E+03  0.7561462E-02  0.1271854E+00
          1   -1    0    0  501    0  0.00000000000E+00  0.00000000000E+00  0.22396295523E+03  0.22396295523E+03  0.00000000000E+00 0. -1.
         -1   -1    0    0    0  501 -0.00000000000E+00 -0.00000000000E+00 -0.54064279482E+02  0.54064279482E+02  0.00000000000E+00 0.  1.
         25    2    1    2    0    0 -0.23964250965E+02 -0.93113203930E+01  0.14210351809E+03  0.19105766756E+03  0.12509451015E+03 0.  0.
          5    1    3    3  502    0  0.23733918461E+02  0.46489799862E+02  0.75277549553E+02  0.91699412449E+02  0.41800000000E+01 0. -1.
         -5    1    3    3    0  502 -0.47698169426E+02 -0.55801120255E+02  0.66825968539E+02  0.99358255115E+02  0.41800000000E+01 0. -1.
        -11    1    1    2    0    0  0.28815244400E+02  0.41102896133E+02  0.15437478510E+02  0.52517445893E+02  0.00000000000E+00 0. -1.
         11    1    1    2    0    0 -0.48509934353E+01 -0.31791575740E+02  0.12357679150E+02  0.34452121260E+02  0.00000000000E+00 0.  1.
</event>
<event>
 7    1  0.2626349E-009  0.1080714E+03  0.7561462E-02  0.1264184E+00
          2   -1    0    0  501    0  0.00000000000E+00  0.00000000000E+00  0.10750191694E+03  0.10750191694E+03  0.00000000000E+00 0. -1.
         -2   -1    0    0    0  501 -0.00000000000E+00 -0.00000000000E+00 -0.19209101896E+03  0.19209101896E+03  0.00000000000E+00 0.  1.
         25    2    1    2    0    0 -0.27336950796E+02  0.37955554135E+01 -0.13779012844E+03  0.18813398261E+03  0.12508621345E+03 0.  0.
          5    1    3    3  502    0  0.38872552424E+02 -0.25731635546E+02 -0.22623111145E+02  0.51985285973E+02  0.41800000000E+01 0. -1.
         -5    1    3    3    0  502 -0.66209503220E+02  0.29527190959E+02 -0.11516701730E+03  0.13614869664E+03  0.41800000000E+01 0. -1.
        -11    1    1    2    0    0 -0.32318086758E+02  0.12865219521E+02  0.27742796184E+02  0.44493093229E+02  0.00000000000E+00 0.  1.
         11    1    1    2    0    0  0.59655037554E+02 -0.16660774934E+02  0.25458230234E+02  0.66965860060E+02  0.00000000000E+00 0. -1.
</event>
<event>
 7    1  0.2626349E-009  0.1263135E+03  0.7561462E-02  0.1233031E+00
         -3   -1    0    0    0  501 -0.00000000000E+00  0.00000000000E+00  0.14119664401E+03  0.14119664401E+03  0.00000000000E+00 0.  1.
          3   -1    0    0  501    0  0.00000000000E+00 -0.00000000000E+00 -0.14324714700E+03  0.14324714700E+03  0.00000000000E+00 0. -1.
         25    2    1    2    0    0 -0.83442282288E+02 -0.32387829652E+02  0.86317448888E+01  0.15405707362E+03  0.12508992338E+03 0.  0.
          5    1    3    3  502    0 -0.23839100671E+02  0.33942541673E+02 -0.35239338827E+02  0.54586465878E+02  0.41800000000E+01 0.  1.
         -5    1    3    3    0  502 -0.59603181617E+02 -0.66330371326E+02  0.43871083716E+02  0.99470607747E+02  0.41800000000E+01 0.  1.
        -11    1    1    2    0    0 -0.14985635940E+02  0.15930991892E+02 -0.20670666749E+02  0.30093890594E+02  0.00000000000E+00 0. -1.
         11    1    1    2    0    0  0.98427918228E+02  0.16456837760E+02  0.99884188721E+01  0.10029282680E+03  0.00000000000E+00 0.  1.
</event>
<event>
 7    1  0.2626349E-009  0.8872340E+02  0.7561462E-02  0.1305973E+00
         -1   -1    0    0    0  501 -0.00000000000E+00  0.00000000000E+00  0.10791632233E+03  0.10791632233E+03  0.00000000000E+00 0.  1.
          1   -1    0    0  501    0  0.00000000000E+00 -0.00000000000E+00 -0.12577935764E+03  0.12577935764E+03  0.00000000000E+00 0. -1.
         25    2    1    2    0    0  0.26368775120E+02 -0.29753611781E+02  0.28878125253E+01  0.13128474367E+03  0.12508698871E+03 0.  0.
          5    1    3    3  502    0  0.53626209696E+02 -0.30816785347E+02 -0.44594858350E+02  0.76365033993E+02  0.41800000000E+01 0. -1.
         -5    1    3    3    0  502 -0.27257434577E+02  0.10631735661E+01  0.47482670875E+02  0.54919709679E+02  0.41800000000E+01 0. -1.
        -11    1    1    2    0    0 -0.80218751885E+01 -0.27024623324E+02 -0.30964083632E+02  0.41874278770E+02  0.00000000000E+00 0. -1.
         11    1    1    2    0    0 -0.18346899931E+02  0.56778235105E+02  0.10213235799E+02  0.60536657524E+02  0.00000000000E+00 0.  1.
</event>
<event>
 7    1  0.2626349E-009  0.1612102E+03  0.7561462E-02  0.1187337E+00
          3   -1    0    0  501    0  0.00000000000E+00  0.00000000000E+00  0.18757345968E+03  0.18757345968E+03  0.00000000000E+00 0. -1.
         -3   -1    0    0    0  501 -0.00000000000E+00 -0.00000000000E+00 -0.20929328245E+03  0.20929328245E+03  0.00000000000E+00 0.  1.
         25    2    1    2    0    0 -0.15780901826E+00 -0.15104680833E+03  0.64808006618E+02  0.20654953485E+03  0.12508984537E+03 0.  0.
          5    1    3    3  502    0  0.21346408612E+01 -0.15608980946E+03  0.90123152459E+02  0.18030041685E+03  0.41800000000E+01 0. -1.
         -5    1    3    3    0  502 -0.22924498795E+01  0.50430011254E+01 -0.25315145841E+02  0.26249118000E+02  0.41800000000E+01 0. -1.
        -11    1    1    2    0    0  0.18208551317E+02  0.13133963946E+03 -0.94038452385E+02  0.16255732146E+03  0.00000000000E+00 0.  1.
         11    1    1    2    0    0 -0.18050742299E+02  0.19707168875E+02  0.75106230011E+01  0.27759885815E+02  0.00000000000E+00 0. -1.
</event>
<event>
 7    1  0.2626349E-009  0.9912908E+02  0.7561462E-02  0.1282138E+00
         -2   -1    0    0    0  501 -0.00000000000E+00  0.00000000000E+00  0.46890963686E+02  0.46890963686E+02  0.00000000000E+00 0.  1.
          2   -1    0    0  501    0  0.00000000000E+00 -0.00000000000E+00 -0.28521845021E+03  0.28521845021E+03  0.00000000000E+00 0. -1.
         25    2    1    2    0    0  0.20886218246E+02  0.32898015383E+02 -0.13035127388E+03  0.18481668550E+03  0.12508892480E+03 0.  0.
          5    1    3    3  502    0 -0.27709536212E+02 -0.34994586175E+02 -0.28810702050E+02  0.53291354001E+02  0.41800000000E+01 0. -1.
         -5    1    3    3    0  502  0.48595754458E+02  0.67892601558E+02 -0.10154057183E+03  0.13152533150E+03  0.41800000000E+01 0. -1.
        -11    1    1    2    0    0 -0.20459714005E+02 -0.49323354056E+02 -0.18793560733E+02  0.56609107726E+02  0.00000000000E+00 0.  1.
         11    1    1    2    0    0 -0.42650424074E+00  0.16425338673E+02 -0.89182651914E+02  0.90683620675E+02  0.00000000000E+00 0. -1.
</event>
<event>
 7    1  0.2626349E-009  0.7167206E+02  0.7561462E-02  0.1354498E+00
          2   -1    0    0  501    0  0.00000000000E+00  0.00000000000E+00  0.11053799146E+03  0.11053799146E+03  0.00000000000E+00 0. -1.
         -2   -1    0    0    0  501 -0.00000000000E+00 -0.00000000000E+00 -0.26206295739E+03  0.26206295739E+03  0.00000000000E+00 0.  1.
         25    2    1    2    0    0  0.12028922413E+02 -0.52498886369E+01  0.61840287799E+02  0.14016459300E+03  0.12509850371E+03 0.  0.
          5    1    3    3  502    0 -0.34548384645E+02  0.51861628273E+01 -0.23487677267E+02  0.42304025221E+02  0.41800000000E+01 0.  1.
         -5    1    3    3    0  502  0.46577307058E+02 -0.10436051464E+02  0.85327965066E+02  0.97860567775E+02  0.41800000000E+01 0.  1.
        -11    1    1    2    0    0 -0.30977561163E+02  0.19439576174E+02 -0.20355019060E+03  0.20680954163E+03  0.00000000000E+00 0.  1.
         11    1    1    2    0    0  0.18948638750E+02 -0.14189687537E+02 -0.98150631253E+01  0.25626814219E+02  0.00000000000E+00 0. -1.
</event>
<event>
 7    1  0.2626349E-009  0.1193699E+03  0.7561462E-02  0.1244140E+00
         -1   -1    0    0    0  501 -0.00000000000E+00  0.00000000000E+00  0.12232453737E+03  0.12232453737E+03  0.00000000000E+00 0.  1.
          1   -1    0    0  501    0  0.00000000000E+00 -0.00000000000E+00 -0.12886640591E+03  0.12886640591E+03  0.00000000000E+00 0. -1.
         25    2    1    2    0    0 -0.35914946726E+02 -0.51154694581E+02  0.64951044235E+01  0.13998742595E+03  0.12509039478E+03 0.  0.
          5    1    3    3  502    0  0.22602638553E+02 -0.66914542797E+02 -0.20280301319E+02  0.73601619064E+02  0.41800000000E+01 0. -1.
         -5    1    3    3    0  502 -0.58517585279E+02  0.15759848216E+02  0.26775405742E+02  0.66385806882E+02  0.41800000000E+01 0. -1.
        -11    1    1    2    0    0 -0.27631113186E+02  0.35865035118E+01  0.81804606861E+01  0.29038962798E+02  0.00000000000E+00 0. -1.
         11    1    1    2    0    0  0.63546059912E+02  0.47568191069E+02 -0.21217433649E+02  0.82164554539E+02  0.00000000000E+00 0.  1.
</event>
<event>
 7    1  0.2626349E-009  0.7861347E+02  0.7561462E-02  0.1333033E+00
          1   -1    0    0  501    0  0.00000000000E+00  0.00000000000E+00  0.15849681405E+03  0.15849681405E+03  0.00000000000E+00 0.  1.
         -1   -1    0    0    0  501 -0.00000000000E+00 -0.00000000000E+00 -0.83576765778E+02  0.83576765778E+02  0.00000000000E+00 0. -1.
         25    2    1    2    0    0  0.24922105391E+02  0.16569059632E+02  0.68939030388E+02  0.14593499850E+03  0.12509511902E+03 0.  0.
          5    1    3    3  502    0  0.40999960578E+02 -0.30202906990E+02 -0.10597111079E+02  0.52182214607E+02  0.41800000000E+01 0. -1.
         -5    1    3    3    0  502 -0.16077855187E+02  0.46771966622E+02  0.79536141467E+02  0.93752783898E+02  0.41800000000E+01 0. -1.
        -11    1    1    2    0    0  0.13890062597E+02  0.93361376475E+00  0.39544787309E+02  0.41923688733E+02  0.00000000000E+00 0.  1.
         11    1    1    2    0    0 -0.38812167988E+02 -0.17502673397E+02 -0.33563769429E+02  0.54214892588E+02  0.00000000000E+00 0. -1.
</event>
<event>
 7    1  0.2626349E-009  0.7131388E+02  0.7561462E-02  0.1355681E+00
         -1   -1    0    0    0  501 -0.00000000000E+00  0.00000000000E+00  0.61378173950E+02  0.61378173950E+02  0.00000000000E+00 0.  1.
          1   -1    0    0  501    0  0.00000000000E+00 -0.00000000000E+00 -0.26110404941E+03  0.26110404941E+03  0.00000000000E+00 0. -1.
         25    2    1    2    0    0  0.10759015932E+02  0.59731718973E+02 -0.60827916394E+02  0.15176207668E+03  0.12509219732E+03 0.  0.
          5    1    3    3  502    0 -0.37883802277E+01  0.57694219553E+02  0.26048889997E+02  0.63553063377E+02  0.41800000000E+01 0.  1.
         -5    1    3    3    0  502  0.14547396160E+02  0.20374994199E+01 -0.86876806391E+02  0.88209013301E+02  0.41800000000E+01 0.  1.
        -11    1    1    2    0    0 -0.22307207962E+02 -0.29218625537E+02 -0.10483719948E+02  0.38226273547E+02  0.00000000000E+00 0.  1.
         11    1    1    2    0    0  0.11548192030E+02 -0.30513093435E+02 -0.12841423912E+03  0.13249387313E+03  0.00000000000E+00 0. -1.
</event>
<event>
 7    1  0.2626349E-009  0.1006588E+03  0.7561462E-02  0.1278917E+00
          4   -1    0    0  501    0  0.00000000000E+00  0.00000000000E+00  0.39199707434E+02  0.39199707434E+02  0.00000000000E+00 0. -1.
         -4   -1    0    0    0  501 -0.00000000000E+00 -0.00000000000E+00 -0.42414250574E+03  0.42414250574E+03  0.00000000000E+00 0.  1.
         25    2    1    2    0    0 -0.17922170612E+02  0.21882348389E+01 -0.10198229378E+03  0.16239477069E+03  0.12508269557E+03 0.  0.
          5    1    3    3  502    0  0.50199284623E+02 -0.66432629448E+01 -0.18196272876E+02  0.53969230732E+02  0.41800000000E+01 0.  1.
         -5    1    3    3    0  502 -0.68121455235E+02  0.88314977838E+01 -0.83786020907E+02  0.10842553996E+03  0.41800000000E+01 0.  1.
        -11    1    1    2    0    0 -0.21733072013E+02 -0.27192043795E+02 -0.37969044283E+02  0.51510989009E+02  0.00000000000E+00 0. -1.
         11    1    1    2    0    0  0.39655242625E+02  0.25003808956E+02 -0.24499146024E+03  0.24943645347E+03  0.00000000000E+00 0.  1.
</event>
<event>
 7    1  0.2626349E-009  0.1111279E+03  0.7561462E-02  0.1258495E+00
          3   -1    0    0  501    0  0.00000000000E+00  0.00000000000E+00  0.63818115014E+02  0.63818115014E+02  0.00000000000E+00 0. -1.
         -3   -1    0    0    0  501 -0.00000000000E+00 -0.00000000000E+00 -0.25713288659E+03  0.25713288659E+03  0.00000000000E+00 0.  1.
         25    2    1    2    0    0 -0.60292318362E+02  0.35797267620E+02 -0.93561642247E+02  0.17122244064E+03  0.12508691081E+03 0.  0.
          5    1    3    3  502    0  0.37011682009E+02  0.24751907550E+02 -0.21857947217E+02  0.49777141230E+02  0.41800000000E+01 0. -1.
         -5    1    3    3    0  502 -0.97304000371E+02  0.11045360070E+02 -0.71703695030E+02  0.12144529941E+03  0.41800000000E+01 0. -1.
        -11    1    1    2    0    0  0.56641914034E+02 -0.15265815851E+02 -0.12450240132E+02  0.59969659315E+02  0.00000000000E+00 0. -1.
         11    1    1    2    0    0  0.36504043281E+01 -0.20531451769E+02 -0.87302889194E+02  0.89758901649E+02  0.00000000000E+00 0.  1.
</event>
<event>
 7    1  0.2626349E-009  0.1381810E+03  0.7561462E-02  0.1215798E+00
          2   -1    0    0  501    0  0.00000000000E+00  0.00000000000E+00  0.12192531252E+03  0.12192531252E+03  0.00000000000E+00 0. -1.
         -2   -1    0    0    0  501 -0.00000000000E+00 -0.00000000000E+00 -0.28970149435E+03  0.28970149435E+03  0.00000000000E+00 0.  1.
         25    2    1    2    0    0 -0.34793217279E+02 -0.85035747674E+02  0.45732430031E+02  0.16180489851E+03  0.12509086168E+03 0.  0.
          5    1    3    3  502    0  0.37342972604E+02 -0.58866457146E+02 -0.45197145551E+01  0.69983266568E+02  0.41800000000E+01 0. -1.
         -5    1    3    3    0  502 -0.72136189883E+02 -0.26169290528E+02  0.50252144586E+02  0.91821631945E+02  0.41800000000E+01 0. -1.
        -11    1    1    2    0    0  0.66232898634E+02  0.53463236542E+02 -0.14295213400E+03  0.16637435841E+03  0.00000000000E+00 0.  1.
         11    1    1    2    0    0 -0.31439681355E+02  0.31572511132E+02 -0.70556477862E+02  0.83447549941E+02  0.00000000000E+00 0. -1.
</event>
<event>
 7    1  0.2626349E-009  0.1176264E+03  0.7561462E-02  0.1247065E+00
          4   -1    0    0  501    0  0.00000000000E+00  0.00000000000E+00  0.13180810062E+03  0.13180810062E+03  0.00000000000E+00 0. -1.
         -4   -1    0    0    0  501 -0.00000000000E+00 -0.00000000000E+00 -0.15160052587E+03  0.15160052587E+03  0.00000000000E+00 0.  1.
         25    2    1    2    0    0 -0.88417084031E+02  0.28114224482E+02  0.23989490812E+01  0.15576431152E+03  0.12509506553E+03 0.  0.
          5    1    3    3  502    0 -0.10948618189E+03  0.39288449679E+01  0.29532376943E+02  0.11354423603E+03  0.41800000000E+01 0.  1.
         -5    1    3    3    0  502  0.21069097858E+02  0.24185379514E+02 -0.27133427862E+02  0.42220075490E+02  0.41800000000E+01 0.  1.
        -11    1    1    2    0    0  0.35326465412E+02 -0.63575527106E+01  0.32468307325E+02  0.48400089004E+02  0.00000000000E+00 0. -1.
         11    1    1    2    0    0  0.53090618619E+02 -0.21756671772E+02 -0.54659681655E+02  0.79244225976E+02  0.00000000000E+00 0.  1.
</event>
<event>
 7    1  0.2626349E-009  0.1947492E+03  0.7561462E-02  0.1154246E+00
          1   -1    0    0  501    0  0.00000000000E+00  0.00000000000E+00  0.34127390914E+03  0.34127390914E+03  0.00000000000E+00 0. -1.
         -1   -1    0    0    0  501 -0.00000000000E+00 -0.00000000000E+00 -0.12728943545E+03  0.12728943545E+03  0.00000000000E+00 0.  1.
         25    2    1    2    0    0 -0.17467667414E+03  0.19436973299E+02  0.83374733187E+02  0.23127673000E+03  0.12509133976E+03 0.  0.
          5    1    3    3  502    0 -0.51482273280E+02 -0.31507412417E+02 -0.18694101086E+02  0.63325218632E+02  0.41800000000E+01 0. -1.
         -5    1    3    3    0  502 -0.12319440086E+03  0.50944385716E+02  0.10206883427E+03  0.16795151137E+03  0.41800000000E+01 0. -1.
        -11    1    1    2    0    0  0.17014897581E+03 -0.39812801710E+02  0.12719829513E+03  0.21613685348E+03  0.00000000000E+00 0. -1.
         11    1    1    2    0    0  0.45276983327E+01  0.20375828411E+02  0.34114453684E+01  0.21149761113E+02  0.00000000000E+00 0.  1.
</event>
<event>
 7    1  0.2626349E-009  0.8591859E+02  0.7561462E-02  0.1313048E+00
         -2   -1    0    0    0  501 -0.00000000000E+00  0.00000000000E+00  0.84586550947E+02  0.84586550947E+02  0.00000000000E+00 0.  1.
          2   -1    0    0  501    0  0.00000000000E+00 -0.00000000000E+00 -0.27901545200E+03  0.27901545200E+03  0.00000000000E+00 0. -1.
         25    2    1    2    0    0 -0.15651694108E+02 -0.27844619835E+02 -0.23092332670E+03  0.26456238543E+03  0.12508946632E+03 0.  0.
          5    1    3    3  502    0 -0.38415743826E+02 -0.38773540151E+02 -0.30804904352E+02  0.62813782896E+02  0.41800000000E+01 0. -1.
         -5    1    3    3    0  502  0.22764049719E+02  0.10928920316E+02 -0.20011842235E+03  0.20174860253E+03  0.41800000000E+01 0. -1.
        -11    1    1    2    0    0 -0.16417752561E+02  0.49931279418E+02  0.26372146377E+02  0.58806167772E+02  0.00000000000E+00 0.  1.
         11    1    1    2    0    0  0.32069446669E+02 -0.22086659583E+02  0.10122279270E+02  0.40233449750E+02  0.00000000000E+00 0. -1.
</event>
<event>
 7    1  0.2626349E-009  0.1309642E+03  0.7561462E-02  0.1226032E+00
          1   -1    0    0  501    0  0.00000000000E+00  0.00000000000E+00  0.11191004662E+04  0.11191004662E+04  0.00000000000E+00 0. -1.
         -1   -1    0    0    0  501 -0.00000000000E+00 -0.00000000000E+00 -0.22117092397E+02  0.22117092397E+02  0.00000000000E+00 0.  1.
         25    2    1    2    0    0 -0.15647377052E+02 -0.95268253931E+02  0.80822520575E+03  0.82352685524E+03  0.12509043720E+03 0.  0.
          5    1    3    3  502    0  0.38056143921E+02 -0.40004984140E+02  0.13532171669E+03  0.14621254479E+03  0.41800000000E+01 0. -1.
         -5    1    3    3    0  502 -0.53703520973E+02 -0.55263269792E+02  0.67290348906E+03  0.67731431045E+03  0.41800000000E+01 0. -1.
        -11    1    1    2    0    0  0.49704695246E+02  0.74287317982E+02  0.22854346844E+03  0.24540024309E+03  0.00000000000E+00 0. -1.
         11    1    1    2    0    0 -0.34057318194E+02  0.20980935950E+02  0.60214699622E+02  0.72290460273E+02  0.00000000000E+00 0.  1.
</event>
<event>
 7    1  0.2626349E-009  0.9474625E+02  0.7561462E-02  0.1291749E+00
         -3   -1    0    0    0  501 -0.00000000000E+00  0.00000000000E+00  0.53432572368E+02  0.53432572368E+02  0.00000000000E+00 0.  1.
          3   -1    0    0  501    0  0.00000000000E+00 -0.00000000000E+00 -0.44598244350E+03  0.44598244350E+03  0.00000000000E+00 0. -1.
         25    2    1    2    0    0 -0.21494990017E+02 -0.34151330113E+01 -0.36753221294E+03  0.38884533014E+03  0.12508823082E+03 0.  0.
          5    1    3    3  502    0 -0.32805176889E+02  0.35561720067E+02 -0.53817436152E+02  0.72488650139E+02  0.41800000000E+01 0. -1.
         -5    1    3    3    0  502  0.11310186872E+02 -0.38976853079E+02 -0.31371477679E+03  0.31635668000E+03  0.41800000000E+01 0. -1.
        -11    1    1    2    0    0  0.58188989548E+02  0.17597226794E+02 -0.34779381461E+02  0.70037320553E+02  0.00000000000E+00 0.  1.
         11    1    1    2    0    0 -0.36693999531E+02 -0.14182093783E+02  0.97617232721E+01  0.40532365177E+02  0.00000000000E+00 0. -1.
</event>
<event>
 7    1  0.2626349E-009  0.1008859E+03  0.7561462E-02  0.1278444E+00
          2   -1    0    0  501    0  0.00000000000E+00  0.00000000000E+00  0.14747629253E+04  0.14747629253E+04  0.00000000000E+00 0. -1.
         -2   -1    0    0    0  501 -0.00000000000E+00 -0.00000000000E+00 -0.12968465245E+02  0.12968465245E+02  0.00000000000E+00 0.  1.
         25    2    1    2    0    0  0.75828630498E+02  0.23672823000E+02  0.98004628720E+03  0.99118531878E+03  0.12508887783E+03 0.  0.
          5    1    3    3  502    0 -0.37659893882E+01  0.30229114367E+01 -0.11932353280E+01  0.64974518216E+01  0.41800000000E+01 0. -1.
         -5    1    3    3    0  502  0.79594619887E+02  0.20649911563E+02  0.98123952253E+03  0.98468786696E+03  0.41800000000E+01 0. -1.
        -11    1    1    2    0    0 -0.29673755475E+02  0.30043551215E+02  0.10452980917E+03  0.11273698479E+03  0.00000000000E+00 0.  1.
         11    1    1    2    0    0 -0.46154875024E+02 -0.53716374215E+02  0.37721836369E+03  0.38380908698E+03  0.00000000000E+00 0. -1.
</event>
<event>
 7    1  0.2626349E-009  0.1559939E+03  0.7561462E-02  0.1193295E+00
          1   -1    0    0  501    0  0.00000000000E+00  0.00000000000E+00  0.31134588682E+03  0.31134588682E+03  0.00000000000E+00 0. -1.
         -1   -1    0    0    0  501 -0.00000000000E+00 -0.00000000000E+00 -0.10183568782E+03  0.10183568782E+03  0.00000000000E+00 0.  1.
         25    2    1    2    0    0  0.17695935822E+02 -0.13959848230E+03  0.10423912541E+03  0.21521228473E+03  0.12509856046E+03 0.  0.
          5    1    3    3  502    0  0.32784860889E+02 -0.98370598230E+02  0.12826785820E+03  0.16499011349E+03  0.41800000000E+01 0.  1.
         -5    1    3    3    0  502 -0.15088925068E+02 -0.41227884074E+02 -0.24028732799E+02  0.50222171248E+02  0.41800000000E+01 0.  1.
        -11    1    1    2    0    0  0.29548625576E+02  0.20438051535E+02  0.41196882841E+02  0.54662769595E+02  0.00000000000E+00 0. -1.
         11    1    1    2    0    0 -0.47244561398E+02  0.11916043077E+03  0.64074190755E+02  0.14330652031E+03  0.00000000000E+00 0.  1.
</event>
<event>
 7    1  0.2626349E-009  0.1236247E+03  0.7561462E-02  0.1237234E+00
          1   -1    0    0  501    0  0.00000000000E+00  0.00000000000E+00  0.18737248558E+03  0.18737248558E+03  0.00000000000E+00 0. -1.
         -1   -1    0    0    0  501 -0.00000000000E+00 -0.00000000000E+00 -0.97904059988E+02  0.97904059988E+02  0.00000000000E+00 0.  1.
         25    2    1    2    0    0 -0.24152544582E+02  0.63482281083E+02  0.60141916213E+02  0.15452430066E+03  0.12508942396E+03 0.  0.
          5    1    3    3  502    0 -0.23947287553E+02 -0.23619842613E+02  0.58140141263E+02  0.67298721922E+02  0.41800000000E+01 0. -1.
         -5    1    3    3    0  502 -0.20525702883E+00  0.87102123696E+02  0.20017749500E+01  0.87225578736E+02  0.41800000000E+01 0. -1.
        -11    1    1    2    0    0 -0.33299703115E+02 -0.59967298781E+02  0.25088223664E+02  0.73036744979E+02  0.00000000000E+00 0.  1.
         11    1    1    2    0    0  0.57452247696E+02 -0.35149823028E+01  0.42382857099E+01  0.57715499926E+02  0.00000000000E+00 0. -1.
</event>
<event>
 7    1  0.2626349E-009  0.1176505E+03  0.7561462E-02  0.1247024E+00
         -1   -1    0    0    0  501 -0.00000000000E+00  0.00000000000E+00  0.50619586816E+02  0.50619586816E+02  0.00000000000E+00 0.  1.
          1   -1    0    0  501    0  0.00000000000E+00 -0.00000000000E+00 -0.39280701780E+03  0.39280701780E+03  0.00000000000E+00 0. -1.
         25    2    1    2    0    0 -0.50449011482E+02  0.73269161117E+02 -0.21487857928E+03  0.26407247389E+03  0.12509194580E+03 0.  0.
          5    1    3    3  502    0 -0.64765856479E+02  0.68298353524E+01 -0.17109472191E+03  0.18311782841E+03  0.41800000000E+01 0.  1.
         -5    1    3    3    0  502  0.14316844997E+02  0.66439325764E+02 -0.43783857369E+02  0.80954645480E+02  0.41800000000E+01 0.  1.
        -11    1    1    2    0    0  0.18169159818E+01 -0.46307856306E+02 -0.70694608755E+01  0.46879590617E+02  0.00000000000E+00 0.  1.
         11    1    1    2    0    0  0.48632095500E+02 -0.26961304811E+02 -0.12023939083E+03  0.13247454011E+03  0.00000000000E+00 0. -1.
</event>
<event>
 7    1  0.2626349E-009  0.1900162E+03  0.7561462E-02  0.1158447E+00
         -2   -1    0    0    0  501 -0.00000000000E+00  0.00000000000E+00  0.50262743269E+02  0.50262743269E+02  0.00000000000E+00 0.  1.
          2   -1    0    0  501    0  0.00000000000E+00 -0.00000000000E+00 -0.89059995824E+03  0.89059995824E+03  0.00000000000E+00 0. -1.
         25    2    1    2    0    0  0.64747727165E+02  0.15577047876E+03 -0.57748078698E+03  0.61448280004E+03  0.12509333309E+03 0.  0.
          5    1    3    3  502    0  0.11925124146E+02  0.15013826339E+03 -0.35386517592E+03  0.38460595659E+03  0.41800000000E+01 0.  1.
         -5    1    3    3    0  502  0.52822603018E+02  0.56322153640E+01 -0.22361561107E+03  0.22987684345E+03  0.41800000000E+01 0.  1.
        -11    1    1    2    0    0 -0.51379500956E+02 -0.58363401710E+02 -0.18595459508E+03  0.20155706688E+03  0.00000000000E+00 0.  1.
         11    1    1    2    0    0 -0.13368226209E+02 -0.97407077046E+02 -0.76901832904E+02  0.12482283459E+03  0.00000000000E+00 0. -1.
</event>
<event>
 7    1  0.2626349E-009  0.7118362E+02  0.7561462E-02  0.1356114E+00
         -2   -1    0    0    0  501 -0.00000000000E+00  0.00000000000E+00  0.31678255185E+02  0.31678255185E+02  0.00000000000E+00 0.  1.
          2   -1    0    0  501    0  0.00000000000E+00 -0.00000000000E+00 -0.36984215166E+03  0.36984215166E+03  0.00000000000E+00 0. -1.
         25    2    1    2    0    0  0.23712180325E+02 -0.10877010686E+02 -0.20228536382E+03  0.23926400140E+03  0.12508923653E+03 0.  0.
          5    1    3    3  502    0  0.20094522006E+02 -0.30651830754E+02 -0.21295355420E+03  0.21612499437E+03  0.41800000000E+01 0. -1.
         -5    1    3    3    0  502  0.36176583188E+01  0.19774820068E+02  0.10668190386E+02  0.23139007035E+02  0.41800000000E+01 0. -1.
        -11    1    1    2    0    0 -0.41059282052E+02  0.35870834903E+02 -0.63203405530E+02  0.83470065951E+02  0.00000000000E+00 0.  1.
         11    1    1    2    0    0  0.17347101727E+02 -0.24993824217E+02 -0.72675127126E+02  0.78786339489E+02  0.00000000000E+00 0. -1.
</event>
<event>
 7    1  0.2626349E-009  0.8181389E+02  0.7561462E-02  0.1323981E+00
         -4   -1    0    0    0  501 -0.00000000000E+00  0.00000000000E+00  0.20826321369E+03  0.20826321369E+03  0.00000000000E+00 0.  1.
          4   -1    0    0  501    0  0.00000000000E+00 -0.00000000000E+00 -0.68713151428E+02  0.68713151428E+02  0.00000000000E+00 0. -1.
         25    2    1    2    0    0  0.14710441212E+02 -0.46764029935E+02  0.98385740878E+02  0.16652441373E+03  0.12508938717E+03 0.  0.
          5    1    3    3  502    0 -0.84739187710E+01 -0.46773980419E+02  0.12331444470E+03  0.13222532743E+03  0.41800000000E+01 0. -1.
         -5    1    3    3    0  502  0.23184359983E+02  0.99504836643E-02 -0.24928703818E+02  0.34299086298E+02  0.41800000000E+01 0. -1.
        -11    1    1    2    0    0 -0.17538073576E+02  0.68358278109E+02  0.83449284242E+01  0.71063887039E+02  0.00000000000E+00 0. -1.
         11    1    1    2    0    0  0.28276323635E+01 -0.21594248173E+02  0.32819392957E+02  0.39388064347E+02  0.00000000000E+00 0.  1.
</event>
<event>
 7    1  0.2626349E-009  0.7751457E+02  0.7561462E-02  0.1336256E+00
          2   -1    0    0  501    0  0.00000000000E+00  0.00000000000E+00  0.10376811407E+04  0.10376811407E+04  0.00000000000E+00 0.  1.
         -2   -1    0    0    0  501 -0.00000000000E+00 -0.00000000000E+00 -0.13274392484E+02  0.13274392484E+02  0.00000000000E+00 0. -1.
         25    2    1    2    0    0  0.35544603289E+02 -0.10850106491E+02  0.49743858471E+03  0.51426837723E+03  0.12508267118E+03 0.  0.
          5    1    3    3  502    0  0.35781602659E+02  0.68326229622E+01  0.49450372960E+03  0.49586128990E+03  0.41800000000E+01 0. -1.
         -5    1    3    3    0  502 -0.23699936931E+00 -0.17682729453E+02  0.29348551019E+01  0.18407087333E+02  0.41800000000E+01 0. -1.
        -11    1    1    2    0    0 -0.66986783389E+02  0.14496617417E+02  0.40024048280E+03  0.40606628170E+03  0.00000000000E+00 0. -1.
         11    1    1    2    0    0  0.31442180100E+02 -0.36465109266E+01  0.12672768069E+03  0.13062087423E+03  0.00000000000E+00 0.  1.
</event>
<event>
 7    1  0.2626349E-009  0.9679431E+02  0.7561462E-02  0.1287185E+00
          2   -1    0    0  501    0  0.00000000000E+00  0.00000000000E+00  0.10436556988E+03  0.10436556988E+03  0.00000000000E+00 0. -1.
         -2   -1    0    0    0  501 -0.00000000000E+00 -0.00000000000E+00 -0.11490526171E+03  0.11490526171E+03  0.00000000000E+00 0.  1.
         25    2    1    2    0    0 -0.10175266451E+02  0.11519463761E+02 -0.88533719142E+01  0.12634266198E+03  0.12509137440E+03 0.  0.
          5    1    3    3  502    0 -0.57209515928E+02  0.36770134570E+01  0.29866716878E+02  0.64776093721E+02  0.41800000000E+01 0.  1.
         -5    1    3    3    0  502  0.47034249477E+02  0.78424503040E+01 -0.38720088792E+02  0.61566568255E+02  0.41800000000E+01 0.  1.
        -11    1    1    2    0    0  0.37225966800E+02  0.23476591434E+02 -0.15387294893E+02  0.46622867712E+02  0.00000000000E+00 0.  1.
         11    1    1    2    0    0 -0.27050700349E+02 -0.34996055195E+02  0.13700974985E+02  0.46305301901E+02  0.00000000000E+00 0. -1.
</event>
<event>
 7    1  0.2626349E-009  0.1715949E+03  0.7561462E-02  0.1176195E+00
          1   -1    0    0  501    0  0.00000000000E+00  0.00000000000E+00  0.17090451119E+03  0.17090451119E+03  0.00000000000E+00 0. -1.
         -1   -1    0    0    0  501 -0.00000000000E+00 -0.00000000000E+00 -0.23337479866E+03  0.23337479866E+03  0.00000000000E+00 0.  1.
         25    2    1    2    0    0  0.15597907093E+03  0.94485444918E+01  0.29487192462E+02  0.20232766009E+03  0.12509293328E+03 0.  0.
          5    1    3    3  502    0  0.86799230230E+02  0.33939673107E+02 -0.39694323237E+02  0.10138599251E+03  0.41800000000E+01 0.  1.
         -5    1    3    3    0  502  0.69179840700E+02 -0.24491128615E+02  0.69181515699E+02  0.10094166758E+03  0.41800000000E+01 0.  1.
        -11    1    1    2    0    0 -0.42328095427E+02 -0.40491742286E+02 -0.49596005181E+02  0.76752932099E+02  0.00000000000E+00 0.  1.
         11    1    1    2    0    0 -0.11365097550E+03  0.31043197794E+02 -0.42361474753E+02  0.12519871767E+03  0.00000000000E+00 0. -1.
</event>
<event>
 7    1  0.2626349E-009  0.8862434E+02  0.7561462E-02  0.1306218E+00
          3   -1    0    0  501    0  0.00000000000E+00  0.00000000000E+00  0.50584581603E+02  0.50584581603E+02  0.00000000000E+00 0. -1.
         -3   -1    0    0    0  501 -0.00000000000E+00 -0.00000000000E+00 -0.34467292046E+03  0.34467292046E+03  0.00000000000E+00 0.  1.
         25    2    1    2    0    0  0.28600903416E+02 -0.36018882530E+02 -0.82082843320E+02  0.15653415058E+03  0.12509986233E+03 0.  0.
          5    1    3    3  502    0 -0.21126045510E+02  0.13118333715E+02 -0.82740167631E+02  0.86497446309E+02  0.41800000000E+01 0.  1.
         -5    1    3    3    0  502  0.49726948926E+02 -0.49137216245E+02  0.65732431097E+00  0.70036704270E+02  0.41800000000E+01 0.  1.
        -11    1    1    2    0    0  0.20727352917E+02 -0.32087389964E+00 -0.30283854204E+01  0.20949874397E+02  0.00000000000E+00 0. -1.
         11    1    1    2    0    0 -0.49328256332E+02  0.36339756429E+02 -0.20897711012E+03  0.21777347709E+03  0.00000000000E+00 0.  1.
</event>
<event>
 7    1  0.2626349E-009  0.3761688E+03  0.7561462E-02  0.1052359E+00
          2   -1    0    0  501    0  0.00000000000E+00  0.00000000000E+00  0.13214464232E+04  0.13214464232E+04  0.00000000000E+00 0.  1.
         -2   -1    0    0    0  501 -0.00000000000E+00 -0.00000000000E+00 -0.11783784370E+03  0.11783784370E+03  0.00000000000E+00 0. -1.
         25    2    1    2    0    0 -0.12472501069E+03 -0.34957963791E+03  0.75013637282E+03  0.84623643604E+03  0.12509706758E+03 0.  0.
          5    1    3    3  502    0 -0.46459513721E+02 -0.75657874586E+02  0.30533647582E+03  0.31801011976E+03  0.41800000000E+01 0.  1.
         -5    1    3    3    0  502 -0.78265496966E+02 -0.27392176333E+03  0.44479989700E+03  0.52822631628E+03  0.41800000000E+01 0.  1.
        -11    1    1    2    0    0 -0.79777420503E+01  0.53385607779E+02  0.38876828875E+02  0.66521239537E+02  0.00000000000E+00 0. -1.
         11    1    1    2    0    0  0.13270275274E+03  0.29619403014E+03  0.41459537780E+03  0.52652659132E+03  0.00000000000E+00 0.  1.
</event>
<event>
 7    1  0.2626349E-009  0.1825049E+03  0.7561462E-02  0.1165401E+00
         -4   -1    0    0    0  501 -0.00000000000E+00  0.00000000000E+00  0.28786389643E+03  0.28786389643E+03  0.00000000000E+00 0.  1.
          4   -1    0    0  501    0  0.00000000000E+00 -0.00000000000E+00 -0.23277625158E+03  0.23277625158E+03  0.00000000000E+00 0. -1.
         25    2    1    2    0    0 -0.57909321930E+02  0.14050645070E+03 -0.15143714037E+03  0.24834762877E+03  0.12509110671E+03 0.  0.
          5    1    3    3  502    0 -0.30290013231E+02  0.15974032624E+03 -0.13015446045E+03  0.20830773559E+03  0.41800000000E+01 0. -1.
         -5    1    3    3    0  502 -0.27619308700E+02 -0.19233875547E+02 -0.21282679916E+02  0.40039893182E+02  0.41800000000E+01 0. -1.
        -11    1    1    2    0    0  0.21398870242E+01 -0.98778916871E+02  0.16159500851E+03  0.18940644210E+03  0.00000000000E+00 0. -1.
         11    1    1    2    0    0  0.55769434906E+02 -0.41727533824E+02  0.44929776715E+02  0.82886077145E+02  0.00000000000E+00 0.  1.
</event>
<event>
 7    1  0.2626349E-009  0.1135386E+03  0.7561462E-02  0.1254154E+00
          1   -1    0    0  501    0  0.00000000000E+00  0.00000000000E+00  0.64470333322E+02  0.64470333322E+02  0.00000000000E+00 0. -1.
         -1   -1    0    0    0  501 -0.00000000000E+00 -0.00000000000E+00 -0.34719505744E+03  0.34719505744E+03  0.00000000000E+00 0.  1.
         25    2    1    2    0    0  0.57354477164E+02  0.31983244688E+02 -0.25750925156E+03  0.29371901220E+03  0.12508948594E+03 0.  0.
          5    1    3    3  502    0 -0.38919198094E+02 -0.16882059645E+01 -0.73771667796E+02  0.83530146589E+02  0.41800000000E+01 0. -1.
         -5    1    3    3    0  502  0.96273675258E+02  0.33671450653E+02 -0.18373758377E+03  0.21018886561E+03  0.41800000000E+01 0. -1.
        -11    1    1    2    0    0 -0.48645966363E+02 -0.47523116113E+02 -0.52118104555E+02  0.85680647936E+02  0.00000000000E+00 0.  1.
         11    1    1    2    0    0 -0.87085108011E+01  0.15539871425E+02  0.26902632002E+02  0.32265730627E+02  0.00000000000E+00 0. -1.
</event>
<event>
 7    1  0.2626349E-009  0.1080894E+03  0.7561462E-02  0.1264149E+00
         -2   -1    0    0    0  501 -0.00000000000E+00  0.00000000000E+00  0.10042028277E+02  0.10042028277E+02  0.00000000000E+00 0.  1.
          2   -1    0    0  501    0  0.00000000000E+00 -0.00000000000E+00 -0.19409936333E+04  0.19409936333E+04  0.00000000000E+00 0. -1.
         25    2    1    2    0    0 -0.14243312300E-01  0.45660704429E+02 -0.15793057971E+04  0.15849097178E+04  0.12508841923E+03 0.  0.
          5    1    3    3  502    0  0.44939772070E+02 -0.71345923514E+01 -0.10592157344E+04  0.10602008913E+04  0.41800000000E+01 0. -1.
         -5    1    3    3    0  502 -0.44954015382E+02  0.52795296780E+02 -0.52009006270E+03  0.52470882648E+03  0.41800000000E+01 0. -1.
        -11    1    1    2    0    0  0.33401797975E+02 -0.56738505243E+02 -0.25175764779E+03  0.26022461702E+03  0.00000000000E+00 0.  1.
         11    1    1    2    0    0 -0.33387554663E+02  0.11077800814E+02 -0.99888160123E+02  0.10590132676E+03  0.00000000000E+00 0. -1.
</event>
<event>
 7    1  0.2626349E-009  0.1033551E+03  0.7561462E-02  0.1273395E+00
         -1   -1    0    0    0  501 -0.00000000000E+00  0.00000000000E+00  0.63218802727E+03  0.63218802727E+03  0.00000000000E+00 0.  1.
          1   -1    0    0  501    0  0.00000000000E+00 -0.00000000000E+00 -0.23484642236E+02  0.23484642236E+02  0.00000000000E+00 0. -1.
         25    2    1    2    0    0 -0.40506265034E+02 -0.33129956654E+02  0.37126661506E+03  0.39525341194E+03  0.12509200076E+03 0.  0.
          5    1    3    3  502    0 -0.40206430301E+02 -0.67591995089E+02  0.13376648756E+03  0.15522944448E+03  0.41800000000E+01 0.  1.
         -5    1    3    3    0  502 -0.29983473243E+00  0.34462038435E+02  0.23750012750E+03  0.24002396746E+03  0.41800000000E+01 0.  1.
        -11    1    1    2    0    0  0.42572114031E+02 -0.14943880602E+02  0.52020346018E+02  0.68860880479E+02  0.00000000000E+00 0. -1.
         11    1    1    2    0    0 -0.20658489971E+01  0.48073837256E+02  0.18541642396E+03  0.19155837709E+03  0.00000000000E+00 0.  1.
</event>
<event>
 7    1  0.2626349E-009  0.1052822E+03  0.7561462E-02  0.1269565E+00
         -2   -1    0    0    0  501 -0.00000000000E+00  0.00000000000E+00  0.21755959815E+02  0.21755959815E+02  0.00000000000E+00 0.  1.
          2   -1    0    0  501    0  0.00000000000E+00 -0.00000000000E+00 -0.58577075630E+03  0.58577075630E+03  0.00000000000E+00 0. -1.
         25    2    1    2    0    0  0.28082928274E+02  0.26703721369E+01 -0.35575280186E+03  0.37815651359E+03  0.12508601437E+03 0.  0.
          5    1    3    3  502    0  0.70483757967E+02  0.17452776705E+02 -0.28593199126E+03  0.29503751555E+03  0.41800000000E+01 0.  1.
         -5    1    3    3    0  502 -0.42400829693E+02 -0.14782404569E+02 -0.69820810594E+02  0.83118998041E+02  0.41800000000E+01 0.  1.
        -11    1    1    2    0    0 -0.54737471812E+02 -0.22836556965E+02 -0.10216391682E+03  0.11813198151E+03  0.00000000000E+00 0.  1.
         11    1    1    2    0    0  0.26654543538E+02  0.20166184828E+02 -0.10609807781E+03  0.11123822102E+03  0.00000000000E+00 0. -1.
</event>
<event>
 7    1  0.2626349E-009  0.6233377E+02  0.7561462E-02  0.1388291E+00
         -1   -1    0    0    0  501 -0.00000000000E+00  0.00000000000E+00  0.65608882280E+02  0.65608882280E+02  0.00000000000E+00 0.  1.
          1   -1    0    0  501    0  0.00000000000E+00 -0.00000000000E+00 -0.35402253764E+03  0.35402253764E+03  0.00000000000E+00 0. -1.
         25    2    1    2    0    0 -0.28175168148E+02 -0.83309817755E+01 -0.29891702562E+03  0.32536503967E+03  0.12509106872E+03 0.  0.
          5    1    3    3  502    0 -0.50321176254E+02  0.14920422940E+02 -0.44624926554E+02  0.69019535425E+02  0.41800000000E+01 0. -1.
         -5    1    3    3    0  502  0.22146008106E+02 -0.23251404716E+02 -0.25429209907E+03  0.25634550424E+03  0.41800000000E+01 0. -1.
        -11    1    1    2    0    0  0.11457864146E+02 -0.97237791080E+01  0.47507817235E+02  0.49827976373E+02  0.00000000000E+00 0.  1.
         11    1    1    2    0    0  0.16717304002E+02  0.18054760883E+02 -0.37004446972E+02  0.44438403879E+02  0.00000000000E+00 0. -1.
</event>
<event>
 7    1  0.2626349E-009  0.1762426E+03  0.7561462E-02  0.1171490E+00
          4   -1    0    0  501    0  0.00000000000E+00  0.00000000000E+00  0.72056874392E+02  0.72056874392E+02  0.00000000000E+00 0. -1.
         -4   -1    0    0    0  501 -0.00000000000E+00 -0.00000000000E+00 -0.67298603035E+03  0.67298603035E+03  0.00000000000E+00 0.  1.
         25    2    1    2    0    0 -0.69882337931E+02 -0.15668978360E+03 -0.17113631388E+03  0.27270904294E+03  0.12508938697E+03 0.  0.
          5    1    3    3  502    0 -0.12043189803E+02 -0.35507539433E+02 -0.12515130656E+03  0.13071398438E+03  0.41800000000E+01 0.  1.
         -5    1    3    3    0  502 -0.57839148128E+02 -0.12118224417E+03 -0.45985007312E+02  0.14199505856E+03  0.41800000000E+01 0.  1.
        -11    1    1    2    0    0  0.79243849718E+02  0.13135821661E+03 -0.41290361066E+03  0.44048150981E+03  0.00000000000E+00 0. -1.
         11    1    1    2    0    0 -0.93615117872E+01  0.25331566993E+02 -0.16889231415E+02  0.31852351986E+02  0.00000000000E+00 0.  1.
</event>
<event>
 7    1  0.2626349E-009  0.8925210E+02  0.7561462E-02  0.1304673E+00
         -2   -1    0    0    0  501 -0.00000000000E+00  0.00000000000E+00  0.70765772832E+02  0.70765772832E+02  0.00000000000E+00 0.  1.
          2   -1    0    0  501    0  0.00000000000E+00 -0.00000000000E+00 -0.29571669441E+03  0.29571669441E+03  0.00000000000E+00 0. -1.
         25    2    1    2    0    0  0.28974825773E+02 -0.69622777153E+02 -0.19103943141E+03  0.24047922231E+03  0.12508924967E+03 0.  0.
          5    1    3    3  502    0  0.18290530345E+02 -0.17118912867E+02  0.13662599338E+02  0.28839897689E+02  0.41800000000E+01 0.  1.
         -5    1    3    3    0  502  0.10684295428E+02 -0.52503864286E+02 -0.20470203075E+03  0.21163932462E+03  0.41800000000E+01 0.  1.
        -11    1    1    2    0    0  0.14670902846E+02 -0.26747202051E+01  0.20641693587E+02  0.25465055127E+02  0.00000000000E+00 0.  1.
         11    1    1    2    0    0 -0.43645728619E+02  0.72297497358E+02 -0.54553183750E+02  0.10053818980E+03  0.00000000000E+00 0. -1.
</event>
<event>
 7    1  0.2626349E-009  0.9577330E+02  0.7561462E-02  0.1289444E+00
          3   -1    0    0  501    0  0.00000000000E+00  0.00000000000E+00  0.50041084452E+03  0.50041084452E+03  0.00000000000E+00 0. -1.
         -3   -1    0    0    0  501 -0.00000000000E+00 -0.00000000000E+00 -0.23428055924E+02  0.23428055924E+02  0.00000000000E+00 0.  1.
         25    2    1    2    0    0 -0.11719616311E+02 -0.48101775556E+01  0.28275099498E+03  0.30944279567E+03  0.12508489684E+03 0.  0.
          5    1    3    3  502    0  0.17136900194E+01  0.59118418766E+02  0.15370900127E+03  0.16474784867E+03  0.41800000000E+01 0.  1.
         -5    1    3    3    0  502 -0.13433306331E+02 -0.63928596322E+02  0.12904199371E+03  0.14469494700E+03  0.41800000000E+01 0.  1.
        -11    1    1    2    0    0 -0.11239684248E+02 -0.26027996043E+02  0.16130324581E+03  0.16377583518E+03  0.00000000000E+00 0. -1.
         11    1    1    2    0    0  0.22959300560E+02  0.30838173599E+02  0.32928547813E+02  0.50620269598E+02  0.00000000000E+00 0.  1.
</event>
<event>
 7    1  0.2626349E-009  0.9429203E+02  0.7561462E-02  0.1292779E+00
          2   -1    0    0  501    0  0.00000000000E+00  0.00000000000E+00  0.23793163396E+03  0.23793163396E+03  0.00000000000E+00 0.  1.
         -2   -1    0    0    0  501 -0.00000000000E+00 -0.00000000000E+00 -0.91497074582E+02  0.91497074582E+02  0.00000000000E+00 0. -1.
         25    2    1    2    0    0 -0.42740967164E+02  0.18819654422E+02  0.17798284171E+03  0.22250023287E+03  0.12508993572E+03 0.  0.
          5    1    3    3  502    0 -0.41257541946E+02 -0.29590809726E+02  0.16026468781E+02  0.53405251513E+02  0.41800000000E+01 0. -1.
         -5    1    3    3    0  502 -0.14834252181E+01  0.48410464148E+02  0.16195637293E+03  0.16909498136E+03  0.41800000000E+01 0. -1.
        -11    1    1    2    0    0  0.44345771699E+02  0.21075823280E+02 -0.43132694589E+02  0.65354166944E+02  0.00000000000E+00 0. -1.
         11    1    1    2    0    0 -0.16048045350E+01 -0.39895477703E+02  0.11584412261E+02  0.41574308728E+02  0.00000000000E+00 0.  1.
</event>
<event>
 7    1  0.2626349E-009  0.1113148E+03  0.7561462E-02  0.1258154E+00
         -1   -1    0    0    0  501 -0.00000000000E+00  0.00000000000E+00  0.19332068697E+03  0.19332068697E+03  0.00000000000E+00 0.  1.
          1   -1    0    0  501    0  0.00000000000E+00 -0.00000000000E+00 -0.85716373533E+02  0.85716373533E+02  0.00000000000E+00 0. -1.
         25    2    1    2    0    0  0.64343326891E+02  0.16743677012E+02  0.39544493191E+02  0.14707370440E+03  0.12508594305E+03 0.  0.
          5    1    3    3  502    0  0.51061428670E+02 -0.42830673320E+02  0.52003692675E+02  0.84638008760E+02  0.41800000000E+01 0.  1.
         -5    1    3    3    0  502  0.13281898221E+02  0.59574350333E+02 -0.12459199484E+02  0.62435695637E+02  0.41800000000E+01 0.  1.
        -11    1    1    2    0    0 -0.77641799337E+02 -0.21475604990E+02  0.21594367120E+02  0.83401242828E+02  0.00000000000E+00 0. -1.
         11    1    1    2    0    0  0.13298472445E+02  0.47319279778E+01  0.46465453122E+02  0.48562113274E+02  0.00000000000E+00 0.  1.
</event>
<event>
 7    1  0.2626349E-009  0.1755078E+03  0.7561462E-02  0.1172223E+00
          1   -1    0    0  501    0  0.00000000000E+00  0.00000000000E+00  0.22453799948E+03  0.22453799948E+03  0.00000000000E+00 0. -1.
         -1   -1    0    0    0  501 -0.00000000000E+00 -0.00000000000E+00 -0.27704818220E+03  0.27704818220E+03  0.00000000000E+00 0.  1.
         25    2    1    2    0    0 -0.10789196804E+03 -0.10899839158E+03  0.13867904698E+03  0.24165909679E+03  0.12508363145E+03 0.  0.
          5    1    3    3  502    0 -0.91533376703E+02 -0.13458093501E+03  0.95654042676E+02  0.18883208255E+03  0.41800000000E+01 0. -1.
         -5    1    3    3    0  502 -0.16358591338E+02  0.25582543428E+02  0.43025004302E+02  0.52827014245E+02  0.41800000000E+01 0. -1.
        -11    1    1    2    0    0  0.53728384382E+01  0.23358466323E+02 -0.87786083996E+02  0.90999351015E+02  0.00000000000E+00 0.  1.
         11    1    1    2    0    0  0.10251912960E+03  0.85639925258E+02 -0.10340314570E+03  0.16892773388E+03  0.00000000000E+00 0. -1.
</event>
<event>
 7    1  0.2626349E-009  0.1247906E+03  0.7561462E-02  0.1235397E+00
         -1   -1    0    0    0  501 -0.00000000000E+00  0.00000000000E+00  0.17994324461E+03  0.17994324461E+03  0.00000000000E+00 0.  1.
          1   -1    0    0  501    0  0.00000000000E+00 -0.00000000000E+00 -0.15648615852E+03  0.15648615852E+03  0.00000000000E+00 0. -1.
         25    2    1    2    0    0 -0.37313387016E+02 -0.72653595313E+02  0.11122812141E+03  0.18625042182E+03  0.12508673341E+03 0.  0.
          5    1    3    3  502    0 -0.50566667920E+02 -0.10344587205E+03  0.80227329005E+02  0.14039919184E+03  0.41800000000E+01 0.  1.
         -5    1    3    3    0  502  0.13253280905E+02  0.30792276739E+02  0.31000792405E+02  0.45851229986E+02  0.41800000000E+01 0.  1.
        -11    1    1    2    0    0  0.15488405589E+02 -0.77121827096E+01  0.11369711837E+02  0.20703594304E+02  0.00000000000E+00 0.  1.
         11    1    1    2    0    0  0.21824981427E+02  0.80365778023E+02 -0.99140747155E+02  0.12947538700E+03  0.00000000000E+00 0. -1.
</event>
<event>
 7    1  0.2626349E-009  0.1330543E+03  0.7561462E-02  0.1222993E+00
          1   -1    0    0  501    0  0.00000000000E+00  0.00000000000E+00  0.25771059390E+03  0.25771059390E+03  0.00000000000E+00 0. -1.
         -1   -1    0    0    0  501 -0.00000000000E+00 -0.00000000000E+00 -0.72555827168E+02  0.72555827168E+02  0.00000000000E+00 0.  1.
         25    2    1    2    0    0 -0.77243804327E+02  0.51958013122E+01  0.13568205629E+03  0.20012733457E+03  0.12509087890E+03 0.  0.
          5    1    3    3  502    0  0.34185307665E+02 -0.34504800036E+01  0.40414641775E+02  0.53210494663E+02  0.41800000000E+01 0. -1.
         -5    1    3    3    0  502 -0.11142911199E+03  0.86462813157E+01  0.95267414517E+02  0.14691683991E+03  0.41800000000E+01 0. -1.
        -11    1    1    2    0    0  0.85575190591E+02  0.24337066859E+02  0.42837337014E+02  0.98744334068E+02  0.00000000000E+00 0. -1.
         11    1    1    2    0    0 -0.83313862639E+01 -0.29532868171E+02  0.66353734243E+01  0.31394752428E+02  0.00000000000E+00 0.  1.
</event>
<event>
 7    1  0.2626349E-009  0.1551810E+03  0.7561462E-02  0.1194247E+00
         -2   -1    0    0    0  501 -0.00000000000E+00  0.00000000000E+00  0.42287564492E+02  0.42287564492E+02  0.00000000000E+00 0.  1.
          2   -1    0    0  501    0  0.00000000000E+00 -0.00000000000E+00 -0.88404052813E+03  0.88404052813E+03  0.00000000000E+00 0. -1.
         25    2    1    2    0    0 -0.14921705286E+03  0.85098164961E+01 -0.57699931235E+03  0.60902522495E+03  0.12508146279E+03 0.  0.
          5    1    3    3  502    0 -0.26776068688E+02 -0.19563239160E+02 -0.33189555003E+03  0.33357428965E+03  0.41800000000E+01 0.  1.
         -5    1    3    3    0  502 -0.12244098417E+03  0.28073055657E+02 -0.24510376231E+03  0.27545093530E+03  0.41800000000E+01 0.  1.
        -11    1    1    2    0    0  0.36426858209E+02  0.78978028117E+01 -0.15374947042E+03  0.15820300548E+03  0.00000000000E+00 0. -1.
         11    1    1    2    0    0  0.11279019465E+03 -0.16407619308E+02 -0.11100418087E+03  0.15909986220E+03  0.00000000000E+00 0.  1.
</event>
<event>
 7    1  0.2626349E-009  0.1054090E+03  0.7561462E-02  0.1269316E+00
          1   -1    0    0  501    0  0.00000000000E+00  0.00000000000E+00  0.21442179547E+03  0.21442179547E+03  0.00000000000E+00 0. -1.
         -1   -1    0    0    0  501 -0.00000000000E+00 -0.00000000000E+00 -0.77577790033E+02  0.77577790033E+02  0.00000000000E+00 0.  1.
         25    2    1    2    0    0  0.64599726543E+02  0.18325518121E+02  0.50603225629E+02  0.15071332204E+03  0.12507945360E+03 0.  0.
          5    1    3    3  502    0  0.50365741082E+02 -0.23354498662E+02  0.80094418836E+02  0.97543471392E+02  0.41800000000E+01 0. -1.
         -5    1    3    3    0  502  0.14233985461E+02  0.41680016783E+02 -0.29491193208E+02  0.53169850648E+02  0.41800000000E+01 0. -1.
        -11    1    1    2    0    0 -0.12825540670E+02 -0.49049353093E+02  0.30056904681E+02  0.58938536217E+02  0.00000000000E+00 0.  1.
         11    1    1    2    0    0 -0.51774185873E+02  0.30723834972E+02  0.56183875123E+02  0.82347727243E+02  0.00000000000E+00 0. -1.
</event>
<event>
 7    1  0.2626349E-009  0.9706800E+02  0.7561462E-02  0.1286585E+00
         -2   -1    0    0    0  501 -0.00000000000E+00  0.00000000000E+00  0.21864540872E+02  0.21864540872E+02  0.00000000000E+00 0.  1.
          2   -1    0    0  501    0  0.00000000000E+00 -0.00000000000E+00 -0.58714281522E+03  0.58714281522E+03  0.00000000000E+00 0. -1.
         25    2    1    2    0    0 -0.32989616905E+02 -0.96923107473E+01 -0.34049237674E+03  0.36436794790E+03  0.12508671844E+03 0.  0.
          5    1    3    3  502    0 -0.12342243261E+02  0.51674094781E+02 -0.23124701354E+03  0.23730823145E+03  0.41800000000E+01 0. -1.
         -5    1    3    3    0  502 -0.20647373644E+02 -0.61366405529E+02 -0.10924536319E+03  0.12705971645E+03  0.41800000000E+01 0. -1.
        -11    1    1    2    0    0  0.44960217748E+02 -0.15916280276E+02 -0.56245718352E+02  0.73745033668E+02  0.00000000000E+00 0. -1.
         11    1    1    2    0    0 -0.11970600843E+02  0.25608591023E+02 -0.16854017926E+03  0.17089437452E+03  0.00000000000E+00 0.  1.
</event>
<event>
 7    1  0.2626349E-009  0.2566719E+03  0.7561462E-02  0.1109159E+00
         -1   -1    0    0    0  501 -0.00000000000E+00  0.00000000000E+00  0.15494644293E+04  0.15494644293E+04  0.00000000000E+00 0.  1.
          1   -1    0    0  501    0  0.00000000000E+00 -0.00000000000E+00 -0.45865067587E+02  0.45865067587E+02  0.00000000000E+00 0. -1.
         25    2    1    2    0    0  0.16269470266E+03 -0.18013370957E+03  0.79101163838E+03  0.83681870079E+03  0.12509359032E+03 0.  0.
          5    1    3    3  502    0 -0.67523132603E+01 -0.14727019898E+02  0.75730447759E+01  0.18365790389E+02  0.41800000000E+01 0.  1.
         -5    1    3    3    0  502  0.16944701592E+03 -0.16540668967E+03  0.78343859361E+03  0.81845291040E+03  0.41800000000E+01 0.  1.
        -11    1    1    2    0    0 -0.94898566601E+02  0.37846169471E+02  0.29237763611E+03  0.30971398512E+03  0.00000000000E+00 0.  1.
         11    1    1    2    0    0 -0.67796136055E+02  0.14228754010E+03  0.42021008718E+03  0.44879681093E+03  0.00000000000E+00 0. -1.
</event>
<event>
 7    1  0.2626349E-009  0.7350856E+02  0.7561462E-02  0.1348553E+00
         -1   -1    0    0    0  501 -0.00000000000E+00  0.00000000000E+00  0.17448106623E+02  0.17448106623E+02  0.00000000000E+00 0.  1.
          1   -1    0    0  501    0  0.00000000000E+00 -0.00000000000E+00 -0.68482649023E+03  0.68482649023E+03  0.00000000000E+00 0. -1.
         25    2    1    2    0    0 -0.14741471931E+02 -0.11907190458E+02 -0.35434084046E+03  0.37624990576E+03  0.12508984046E+03 0.  0.
          5    1    3    3  502    0 -0.74829116173E+01 -0.34819223819E+02 -0.34955544677E+03  0.35138989040E+03  0.41800000000E+01 0.  1.
         -5    1    3    3    0  502 -0.72585603136E+01  0.22912033360E+02 -0.47853936913E+01  0.24860015352E+02  0.41800000000E+01 0.  1.
        -11    1    1    2    0    0 -0.35502086214E+02  0.78251159858E+01 -0.84409389417E+02  0.91905253318E+02  0.00000000000E+00 0.  1.
         11    1    1    2    0    0  0.50243558145E+02  0.40820744725E+01 -0.22862815373E+03  0.23411943778E+03  0.00000000000E+00 0. -1.
</event>
<event>
 7    1  0.2626349E-009  0.5547428E+02  0.7561462E-02  0.1417869E+00
          1   -1    0    0  501    0  0.00000000000E+00  0.00000000000E+00  0.71201551210E+02  0.71201551210E+02  0.00000000000E+00 0. -1.
         -1   -1    0    0    0  501 -0.00000000000E+00 -0.00000000000E+00 -0.19639934027E+03  0.19639934027E+03  0.00000000000E+00 0.  1.
         25    2    1    2    0    0  0.18899430484E+01 -0.38483302839E+02 -0.10181592458E+03  0.16582634982E+03  0.12508940529E+03 0.  0.
          5    1    3    3  502    0 -0.83850840074E+01  0.27425238942E+01 -0.11929562036E+03  0.11969439631E+03  0.41800000000E+01 0. -1.
         -5    1    3    3    0  502  0.10275027056E+02 -0.41225826733E+02  0.17479695779E+02  0.46131953518E+02  0.41800000000E+01 0. -1.
        -11    1    1    2    0    0 -0.12843770579E+02 -0.49019246814E+01 -0.48533919166E+02  0.50443360493E+02  0.00000000000E+00 0.  1.
         11    1    1    2    0    0  0.10953827530E+02  0.43385227520E+02  0.25152054683E+02  0.51331181161E+02  0.00000000000E+00 0. -1.
</event>
<event>
 7    1  0.2626349E-009  0.2713092E+03  0.7561462E-02  0.1100533E+00
         -2   -1    0    0    0  501 -0.00000000000E+00  0.00000000000E+00  0.11189047425E+03  0.11189047425E+03  0.00000000000E+00 0.  1.
          2   -1    0    0  501    0  0.00000000000E+00 -0.00000000000E+00 -0.12288615670E+04  0.12288615670E+04  0.00000000000E+00 0. -1.
         25    2    1    2    0    0  0.23431821057E+03  0.87188620555E+02 -0.10195627793E+04  0.10571958073E+04  0.12509130479E+03 0.  0.
          5    1    3    3  502    0  0.49482637859E+02 -0.29458525060E+02 -0.28521711812E+03  0.29100277149E+03  0.41800000000E+01 0.  1.
         -5    1    3    3    0  502  0.18483557271E+03  0.11664714561E+03 -0.73434566120E+03  0.76619303576E+03  0.41800000000E+01 0.  1.
        -11    1    1    2    0    0 -0.10594121291E+03 -0.88265773832E+02 -0.52421295753E+02  0.14752077709E+03  0.00000000000E+00 0. -1.
         11    1    1    2    0    0 -0.12837699766E+03  0.10771532774E+01 -0.44987017706E+02  0.13603545695E+03  0.00000000000E+00 0.  1.
</event>
<event>
 7    1  0.2626349E-009  0.1002292E+03  0.7561462E-02  0.1279815E+00
          1   -1    0    0  501    0  0.00000000000E+00  0.00000000000E+00  0.41510736338E+02  0.41510736338E+02  0.00000000000E+00 0. -1.
         -1   -1    0    0    0  501 -0.00000000000E+00 -0.00000000000E+00 -0.33714063338E+03  0.33714063338E+03  0.00000000000E+00 0.  1.
         25    2    1    2    0    0 -0.19525994864E+02 -0.91528731310E+00 -0.17430437852E+03  0.21543702279E+03  0.12509593196E+03 0.  0.
          5    1    3    3  502    0 -0.26340953432E+02  0.58816851899E+02 -0.10800937316E+03  0.12584420918E+03  0.41800000000E+01 0. -1.
         -5    1    3    3    0  502  0.68149585677E+01 -0.59732139212E+02 -0.66295005356E+02  0.89592813609E+02  0.41800000000E+01 0. -1.
        -11    1    1    2    0    0 -0.27091608293E+02 -0.77890702283E+01 -0.11120634626E+03  0.11472347756E+03  0.00000000000E+00 0.  1.
         11    1    1    2    0    0  0.46617603157E+02  0.87043575414E+01 -0.10119172265E+02  0.48490869364E+02  0.00000000000E+00 0. -1.
</event>
<event>
 7    1  0.2626349E-009  0.7046253E+02  0.7561462E-02  0.1358527E+00
          1   -1    0    0  501    0  0.00000000000E+00  0.00000000000E+00  0.23184292513E+03  0.23184292513E+03  0.00000000000E+00 0. -1.
         -1   -1    0    0    0  501 -0.00000000000E+00 -0.00000000000E+00 -0.54958883011E+02  0.54958883011E+02  0.00000000000E+00 0.  1.
         25    2    1    2    0    0 -0.76407948687E+01  0.28802868596E+01  0.13130567198E+03  0.18153713782E+03  0.12509146699E+03 0.  0.
          5    1    3    3  502    0 -0.49922570155E+02  0.33163776014E+02  0.29039040871E+02  0.66729583732E+02  0.41800000000E+01 0. -1.
         -5    1    3    3    0  502  0.42281775286E+02 -0.30283489154E+02  0.10226663111E+03  0.11480755409E+03  0.41800000000E+01 0. -1.
        -11    1    1    2    0    0  0.39709033419E+01 -0.15254386716E+02 -0.27153166103E+02  0.31396796283E+02  0.00000000000E+00 0.  1.
         11    1    1    2    0    0  0.36698915268E+01  0.12374099856E+02  0.72731536235E+02  0.73867874033E+02  0.00000000000E+00 0. -1.
</event>
<event>
 7    1  0.2626349E-009  0.1003088E+03  0.7561462E-02  0.1279648E+00
          1   -1    0    0  501    0  0.00000000000E+00  0.00000000000E+00  0.23391406289E+03  0.23391406289E+03  0.00000000000E+00 0. -1.
         -1   -1    0    0    0  501 -0.00000000000E+00 -0.00000000000E+00 -0.94280332255E+02  0.94280332255E+02  0.00000000000E+00 0.  1.
         25    2    1    2    0    0  0.22316999474E+02 -0.92308536207E+02  0.37772042314E+02  0.16154868839E+03  0.12510930108E+03 0.  0.
          5    1    3    3  502    0  0.21388582774E+02 -0.80069117904E+02  0.81275524996E+02  0.11615385692E+03  0.41800000000E+01 0.  1.
         -5    1    3    3    0  502  0.92841669952E+00 -0.12239418304E+02 -0.43503482682E+02  0.45394831462E+02  0.41800000000E+01 0.  1.
        -11    1    1    2    0    0  0.82578671050E+01  0.58522100164E+02  0.10550735281E+03  0.12093316367E+03  0.00000000000E+00 0. -1.
         11    1    1    2    0    0 -0.30574866579E+02  0.33786436043E+02 -0.36456644872E+01  0.45712543097E+02  0.00000000000E+00 0.  1.
</event>
<event>
 7    1  0.2626349E-009  0.6438103E+02  0.7561462E-02  0.1380315E+00
          2   -1    0    0  501    0  0.00000000000E+00  0.00000000000E+00  0.53896928859E+03  0.53896928859E+03  0.00000000000E+00 0. -1.
         -2   -1    0    0    0  501 -0.00000000000E+00 -0.00000000000E+00 -0.25603056020E+02  0.25603056020E+02  0.00000000000E+00 0.  1.
         25    2    1    2    0    0 -0.12097369287E+02  0.19570865279E+02  0.39754629494E+03  0.41739622974E+03  0.12508873201E+03 0.  0.
          5    1    3    3  502    0  0.19018859198E+02 -0.42964784488E+00  0.14248973313E+01  0.19529575901E+02  0.41800000000E+01 0. -1.
         -5    1    3    3    0  502 -0.31116228485E+02  0.20000513124E+02  0.39612139760E+03  0.39786665384E+03  0.41800000000E+01 0. -1.
        -11    1    1    2    0    0  0.38550694114E+02  0.97722214176E+00  0.10518632248E+03  0.11203246591E+03  0.00000000000E+00 0. -1.
         11    1    1    2    0    0 -0.26453324827E+02 -0.20548087421E+02  0.10633615154E+02  0.35143648961E+02  0.00000000000E+00 0.  1.
</event>
<event>
 7    1  0.2626349E-009  0.1898080E+03  0.7561462E-02  0.1158635E+00
         -2   -1    0    0    0  501 -0.00000000000E+00  0.00000000000E+00  0.12454146205E+03  0.12454146205E+03  0.00000000000E+00 0. -1.
          2   -1    0    0  501    0  0.00000000000E+00 -0.00000000000E+00 -0.31470095797E+03  0.31470095797E+03  0.00000000000E+00 0.  1.
         25    2    1    2    0    0 -0.13550671716E+03 -0.95213056223E+02 -0.10183606754E+03  0.23118285139E+03  0.12508928673E+03 0.  0.
          5    1    3    3  502    0 -0.56572914145E+02 -0.10063437501E+03 -0.19932784253E+02  0.11722866687E+03  0.41800000000E+01 0. -1.
         -5    1    3    3    0  502 -0.78933803012E+02  0.54213187905E+01 -0.81903283288E+02  0.11395418452E+03  0.41800000000E+01 0. -1.
        -11    1    1    2    0    0  0.13879826127E+03  0.10532096604E+03 -0.91718361708E+02  0.19690028210E+03  0.00000000000E+00 0.  1.
         11    1    1    2    0    0 -0.32915441089E+01 -0.10107909817E+02  0.33949333323E+01  0.11159286528E+02  0.00000000000E+00 0. -1.
</event>
<event>
 7    1  0.2626349E-009  0.1369240E+03  0.7561462E-02  0.1217529E+00
          2   -1    0    0  501    0  0.00000000000E+00  0.00000000000E+00  0.16527071135E+03  0.16527071135E+03  0.00000000000E+00 0. -1.
         -2   -1    0    0    0  501 -0.00000000000E+00 -0.00000000000E+00 -0.14639103491E+03  0.14639103491E+03  0.00000000000E+00 0.  1.
         25    2    1    2    0    0  0.10613381550E+03 -0.90573890494E+01  0.53357826662E+02  0.17274368181E+03  0.12508756473E+03 0.  0.
          5    1    3    3  502    0  0.85059502571E+01 -0.38817572632E+02  0.58066610632E+02  0.70486585994E+02  0.41800000000E+01 0.  1.
         -5    1    3    3    0  502  0.97627865240E+02  0.29760183583E+02 -0.47087839693E+01  0.10225709582E+03  0.41800000000E+01 0.  1.
        -11    1    1    2    0    0 -0.11865411762E+03  0.57576089571E+01 -0.21762846943E+02  0.12077073817E+03  0.00000000000E+00 0. -1.
         11    1    1    2    0    0  0.12520302128E+02  0.32997800923E+01 -0.12715303279E+02  0.18147326291E+02  0.00000000000E+00 0.  1.
</event>
<event>
 7    1  0.2626349E-009  0.7614205E+02  0.7561462E-02  0.1340371E+00
          1   -1    0    0  501    0  0.00000000000E+00  0.00000000000E+00  0.62351071166E+02  0.62351071166E+02  0.00000000000E+00 0. -1.
         -1   -1    0    0    0  501 -0.00000000000E+00 -0.00000000000E+00 -0.21912458077E+03  0.21912458077E+03  0.00000000000E+00 0.  1.
         25    2    1    2    0    0  0.18627584245E+02  0.25564200461E+01 -0.14224120567E+03  0.19035203239E+03  0.12509122057E+03 0.  0.
          5    1    3    3  502    0  0.35362503941E+01 -0.56191593150E+02 -0.10454337141E+03  0.11881409476E+03  0.41800000000E+01 0.  1.
         -5    1    3    3    0  502  0.15091333851E+02  0.58748013197E+02 -0.37697834266E+02  0.71537937629E+02  0.41800000000E+01 0.  1.
        -11    1    1    2    0    0 -0.22435477198E+02  0.79888773936E+01 -0.49214655616E+02  0.54674080939E+02  0.00000000000E+00 0.  1.
         11    1    1    2    0    0  0.38078929524E+01 -0.10545297440E+02  0.34682351683E+02  0.36449538613E+02  0.00000000000E+00 0. -1.
</event>
<event>
 7    1  0.2626349E-009  0.7152073E+02  0.7561462E-02  0.1354997E+00
          2   -1    0    0  501    0  0.00000000000E+00  0.00000000000E+00  0.53491275706E+03  0.53491275706E+03  0.00000000000E+00 0. -1.
         -2   -1    0    0    0  501 -0.00000000000E+00 -0.00000000000E+00 -0.27076327341E+02  0.27076327341E+02  0.00000000000E+00 0.  1.
         25    2    1    2    0    0  0.35979066384E+02  0.10689297380E+02  0.33022779846E+03  0.35511448370E+03  0.12508854210E+03 0.  0.
          5    1    3    3  502    0  0.31496759458E+02  0.17784153314E+02  0.33978268524E+03  0.34172806082E+03  0.41800000000E+01 0.  1.
         -5    1    3    3    0  502  0.44823069259E+01 -0.70948559336E+01 -0.95548867824E+01  0.13386422880E+02  0.41800000000E+01 0.  1.
        -11    1    1    2    0    0  0.29748412216E+02  0.36784288979E+01  0.21509694060E+02  0.36893980635E+02  0.00000000000E+00 0.  1.
         11    1    1    2    0    0 -0.65727478600E+02 -0.14367726278E+02  0.15609893721E+03  0.16998062007E+03  0.00000000000E+00 0. -1.
</event>
<event>
 7    1  0.2626349E-009  0.1657914E+03  0.7561462E-02  0.1182309E+00
         -1   -1    0    0    0  501 -0.00000000000E+00  0.00000000000E+00  0.24892907797E+02  0.24892907797E+02  0.00000000000E+00 0.  1.
          1   -1    0    0  501    0  0.00000000000E+00 -0.00000000000E+00 -0.12365320969E+04  0.12365320969E+04  0.00000000000E+00 0. -1.
         25    2    1    2    0    0  0.13427641993E+03 -0.24796345730E+02 -0.66767659605E+03  0.69288209753E+03  0.12509415838E+03 0.  0.
          5    1    3    3  502    0  0.15051205000E+03 -0.13099401079E+02 -0.64447346644E+03  0.66195845251E+03  0.41800000000E+01 0. -1.
         -5    1    3    3    0  502 -0.16235630071E+02 -0.11696944651E+02 -0.23203129610E+02  0.30923645025E+02  0.41800000000E+01 0. -1.
        -11    1    1    2    0    0 -0.92660518707E+02 -0.24149196478E+02 -0.25162694038E+03  0.26923089077E+03  0.00000000000E+00 0.  1.
         11    1    1    2    0    0 -0.41615901218E+02  0.48945542207E+02 -0.29233565272E+03  0.29931201644E+03  0.00000000000E+00 0. -1.
</event>
<event>
 7    1  0.2979653E-009  0.1150853E+03  0.7561462E-02  0.1251432E+00
         -2   -1    0    0    0  501 -0.00000000000E+00  0.00000000000E+00  0.10821037817E+03  0.10821037817E+03  0.00000000000E+00 0.  1.
          2   -1    0    0  501    0  0.00000000000E+00 -0.00000000000E+00 -0.18138562541E+03  0.18138562541E+03  0.00000000000E+00 0. -1.
         25    2    1    2    0    0  0.78779753932E+02  0.69420854592E+01  0.30769126624E+00  0.14799149514E+03  0.12508775232E+03 0.  0.
          5    1    3    3  502    0  0.10012464490E+03  0.38732819421E+02  0.11047201378E+02  0.10800318918E+03  0.41800000000E+01 0.  1.
         -5    1    3    3    0  502 -0.21344890963E+02 -0.31790733962E+02 -0.10739510112E+02  0.39988305959E+02  0.41800000000E+01 0.  1.
        -11    1    1    2    0    0 -0.17476893202E+02 -0.14153467072E+02  0.19656160149E+02  0.29868496078E+02  0.00000000000E+00 0.  1.
         11    1    1    2    0    0 -0.61302860730E+02  0.72113816127E+01 -0.93139098657E+02  0.11173601236E+03  0.00000000000E+00 0. -1.
</event>
<event>
 7    1  0.2626349E-009  0.1382019E+03  0.7561462E-02  0.1215769E+00
         -1   -1    0    0    0  501 -0.00000000000E+00  0.00000000000E+00  0.78843074693E+02  0.78843074693E+02  0.00000000000E+00 0.  1.
          1   -1    0    0  501    0  0.00000000000E+00 -0.00000000000E+00 -0.42314405092E+03  0.42314405092E+03  0.00000000000E+00 0. -1.
         25    2    1    2    0    0  0.72648568911E+01 -0.13480915262E+03 -0.26497927810E+03  0.32262610507E+03  0.12508916849E+03 0.  0.
          5    1    3    3  502    0  0.17817424952E+02 -0.55688776292E+02 -0.15468930931E+02  0.60625577614E+02  0.41800000000E+01 0.  1.
         -5    1    3    3    0  502 -0.10552568061E+02 -0.79120376329E+02 -0.24951034717E+03  0.26200052746E+03  0.41800000000E+01 0.  1.
        -11    1    1    2    0    0 -0.17518190190E+02  0.65981076409E+02 -0.85602510189E+02  0.10949054380E+03  0.00000000000E+00 0. -1.
         11    1    1    2    0    0  0.10253333299E+02  0.68828076213E+02  0.62808120667E+01  0.69870476734E+02  0.00000000000E+00 0.  1.
</event>
<event>
 7    1  0.2626349E-009  0.1184092E+03  0.7561462E-02  0.1245745E+00
         -1   -1    0    0    0  501 -0.00000000000E+00  0.00000000000E+00  0.62459055512E+02  0.62459055512E+02  0.00000000000E+00 0.  1.
          1   -1    0    0  501    0  0.00000000000E+00 -0.00000000000E+00 -0.43036898752E+03  0.43036898752E+03  0.00000000000E+00 0. -1.
         25    2    1    2    0    0 -0.97115689870E+01 -0.77713923659E+02 -0.33936269468E+03  0.37006576333E+03  0.12509141516E+03 0.  0.
          5    1    3    3  502    0 -0.58084234484E+02 -0.34348153586E+02 -0.25322337831E+03  0.26209373451E+03  0.41800000000E+01 0. -1.
         -5    1    3    3    0  502  0.48372665497E+02 -0.43365770074E+02 -0.86139316372E+02  0.10797202882E+03  0.41800000000E+01 0. -1.
        -11    1    1    2    0    0  0.13386965811E+02 -0.97542507396E+01 -0.31038371975E+02  0.35181483709E+02  0.00000000000E+00 0. -1.
         11    1    1    2    0    0 -0.36753968242E+01  0.87468174399E+02  0.24911346503E+01  0.87580795991E+02  0.00000000000E+00 0.  1.
</event>
<event>
 7    1  0.2626349E-009  0.2006300E+03  0.7561462E-02  0.1149209E+00
         -2   -1    0    0    0  501 -0.00000000000E+00  0.00000000000E+00  0.16716126111E+03  0.16716126111E+03  0.00000000000E+00 0.  1.
          2   -1    0    0  501    0  0.00000000000E+00 -0.00000000000E+00 -0.61632381912E+03  0.61632381912E+03  0.00000000000E+00 0. -1.
         25    2    1    2    0    0  0.31932468058E+02 -0.19072514465E+03  0.54461520384E+02  0.23666598485E+03  0.12509583473E+03 0.  0.
          5    1    3    3  502    0 -0.12918034357E+02 -0.68547911488E+02 -0.35515717720E+02  0.78387054965E+02  0.41800000000E+01 0. -1.
         -5    1    3    3    0  502  0.44850502415E+02 -0.12217723316E+03  0.89977238104E+02  0.15827892989E+03  0.41800000000E+01 0. -1.
        -11    1    1    2    0    0 -0.43126852727E+02  0.89792141744E+02 -0.15973795005E+03  0.18825187073E+03  0.00000000000E+00 0.  1.
         11    1    1    2    0    0  0.11194384668E+02  0.10093300290E+03 -0.34388612835E+03  0.35856722465E+03  0.00000000000E+00 0. -1.
</event>
<event>
 7    1  0.2626349E-009  0.9269812E+02  0.7561462E-02  0.1296446E+00
          2   -1    0    0  501    0  0.00000000000E+00  0.00000000000E+00  0.14357334719E+03  0.14357334719E+03  0.00000000000E+00 0. -1.
         -2   -1    0    0    0  501 -0.00000000000E+00 -0.00000000000E+00 -0.87159970245E+02  0.87159970245E+02  0.00000000000E+00 0.  1.
         25    2    1    2    0    0  0.32768453555E+02  0.92183916262E+01  0.44845602691E+02  0.13717599625E+03  0.12508947028E+03 0.  0.
          5    1    3    3  502    0  0.21912394386E+02 -0.38260381014E+02  0.69511994461E+02  0.82422081732E+02  0.41800000000E+01 0. -1.
         -5    1    3    3    0  502  0.10856059169E+02  0.47478772641E+02 -0.24666391770E+02  0.54753914518E+02  0.41800000000E+01 0. -1.
        -11    1    1    2    0    0  0.28772806069E+02 -0.10612171096E+02 -0.11966865921E+01  0.30690790202E+02  0.00000000000E+00 0.  1.
         11    1    1    2    0    0 -0.61541259624E+02  0.13937794702E+01  0.12764460849E+02  0.62866530985E+02  0.00000000000E+00 0. -1.
</event>
<event>
 7    1  0.2626349E-009  0.1076340E+03  0.7561462E-02  0.1265015E+00
         -2   -1    0    0    0  501 -0.00000000000E+00  0.00000000000E+00  0.80059615968E+02  0.80059615968E+02  0.00000000000E+00 0.  1.
          2   -1    0    0  501    0  0.00000000000E+00 -0.00000000000E+00 -0.18510882877E+03  0.18510882877E+03  0.00000000000E+00 0. -1.
         25    2    1    2    0    0  0.53397047751E+01 -0.46838102814E+02 -0.91107519000E+02  0.16177369032E+03  0.12509127283E+03 0.  0.
          5    1    3    3  502    0  0.60625198871E+02 -0.28817142767E+02 -0.76128145462E+02  0.10158154058E+03  0.41800000000E+01 0. -1.
         -5    1    3    3    0  502 -0.55285494095E+02 -0.18020960047E+02 -0.14979373538E+02  0.60192149737E+02  0.41800000000E+01 0. -1.
        -11    1    1    2    0    0 -0.26382756341E+02 -0.10683674993E+02 -0.28668752314E+02  0.40399110173E+02  0.00000000000E+00 0. -1.
         11    1    1    2    0    0  0.21043051566E+02  0.57521777807E+02  0.14727058514E+02  0.62995644244E+02  0.00000000000E+00 0.  1.
</event>
<event>
 7    1  0.2626349E-009  0.1610064E+03  0.7561462E-02  0.1187565E+00
          1   -1    0    0  501    0  0.00000000000E+00  0.00000000000E+00  0.13770791112E+03  0.13770791112E+03  0.00000000000E+00 0. -1.
         -1   -1    0    0    0  501 -0.00000000000E+00 -0.00000000000E+00 -0.26262317086E+03  0.26262317086E+03  0.00000000000E+00 0.  1.
         25    2    1    2    0    0  0.14630385785E+03  0.34168449909E+02 -0.10725269306E+03  0.22298782683E+03  0.12509248162E+03 0.  0.
          5    1    3    3  502    0  0.76555714712E+02  0.53170660925E+02  0.33332949737E+00  0.93303162576E+02  0.41800000000E+01 0. -1.
         -5    1    3    3    0  502  0.69748143136E+02 -0.19002211016E+02 -0.10758602255E+03  0.12968466426E+03  0.41800000000E+01 0. -1.
        -11    1    1    2    0    0 -0.16574471817E+02  0.98796999781E+01 -0.34278146026E+02  0.39335898142E+02  0.00000000000E+00 0.  1.
         11    1    1    2    0    0 -0.12972938603E+03 -0.44048149887E+02  0.16615579343E+02  0.13800735700E+03  0.00000000000E+00 0. -1.
</event>
<event>
 7    1  0.2626349E-009  0.2618132E+03  0.7561462E-02  0.1106059E+00
          1   -1    0    0  501    0  0.00000000000E+00  0.00000000000E+00  0.40256881848E+04  0.40256881848E+04  0.00000000000E+00 0. -1.
         -1   -1    0    0    0  501 -0.00000000000E+00 -0.00000000000E+00 -0.20744203418E+02  0.20744203418E+02  0.00000000000E+00 0.  1.
         25    2    1    2    0    0 -0.24786499882E+03 -0.16593014656E+02  0.27333561720E+04  0.27474707456E+04  0.12508856533E+03 0.  0.
          5    1    3    3  502    0 -0.12756657403E+03 -0.48180963680E+02  0.18978784887E+04  0.19027755691E+04  0.41800000000E+01 0. -1.
         -5    1    3    3    0  502 -0.12029842479E+03  0.31587949024E+02  0.83547768327E+03  0.84469517648E+03  0.41800000000E+01 0. -1.
        -11    1    1    2    0    0  0.11527546911E+03  0.50569810138E+02  0.52060015857E+03  0.53560271151E+03  0.00000000000E+00 0.  1.
         11    1    1    2    0    0  0.13258952971E+03 -0.33976795483E+02  0.75098765080E+03  0.76335893109E+03  0.00000000000E+00 0. -1.
</event>
<event>
 7    1  0.2626349E-009  0.1260171E+03  0.7561462E-02  0.1233488E+00
         -1   -1    0    0    0  501 -0.00000000000E+00  0.00000000000E+00  0.28285069211E+02  0.28285069211E+02  0.00000000000E+00 0.  1.
          1   -1    0    0  501    0  0.00000000000E+00 -0.00000000000E+00 -0.64657706865E+03  0.64657706865E+03  0.00000000000E+00 0. -1.
         25    2    1    2    0    0  0.48731127460E+02 -0.60180665071E+02 -0.28916425724E+03  0.32444088753E+03  0.12509790808E+03 0.  0.
          5    1    3    3  502    0  0.86693692784E+02 -0.34344201811E+02 -0.23754389852E+03  0.25522518820E+03  0.41800000000E+01 0. -1.
         -5    1    3    3    0  502 -0.37962565324E+02 -0.25836463260E+02 -0.51620358720E+02  0.69215699333E+02  0.41800000000E+01 0. -1.
        -11    1    1    2    0    0 -0.61098558534E+02  0.72712757771E+02 -0.31088060843E+03  0.32506450390E+03  0.00000000000E+00 0. -1.
         11    1    1    2    0    0  0.12367431074E+02 -0.12532092700E+02 -0.18247133768E+02  0.25356746431E+02  0.00000000000E+00 0.  1.
</event>
<event>
 7    1  0.2626349E-009  0.5789268E+02  0.7561462E-02  0.1406894E+00
         -1   -1    0    0    0  501 -0.00000000000E+00  0.00000000000E+00  0.17246496723E+02  0.17246496723E+02  0.00000000000E+00 0.  1.
          1   -1    0    0  501    0  0.00000000000E+00 -0.00000000000E+00 -0.15185028373E+04  0.15185028373E+04  0.00000000000E+00 0. -1.
         25    2    1    2    0    0  0.74071430487E+00  0.29655849966E+02 -0.13677150605E+04  0.13737438250E+04  0.12509033502E+03 0.  0.
          5    1    3    3  502    0  0.68293969665E-01  0.17796620013E+02 -0.25006136455E+02  0.30975855248E+02  0.41800000000E+01 0.  1.
         -5    1    3    3    0  502  0.67242033521E+00  0.11859229953E+02 -0.13427089240E+04  0.13427679697E+04  0.41800000000E+01 0.  1.
        -11    1    1    2    0    0 -0.34286734078E+02 -0.37134390049E+02 -0.47525542894E+02  0.69377375890E+02  0.00000000000E+00 0.  1.
         11    1    1    2    0    0  0.33546019773E+02  0.74785400825E+01 -0.86015737171E+02  0.92628133121E+02  0.00000000000E+00 0. -1.
</event>
<event>
 7    1  0.2626349E-009  0.5108258E+02  0.7561462E-02  0.1439588E+00
          1   -1    0    0  501    0  0.00000000000E+00  0.00000000000E+00  0.41206101784E+03  0.41206101784E+03  0.00000000000E+00 0. -1.
         -1   -1    0    0    0  501 -0.00000000000E+00 -0.00000000000E+00 -0.20961323948E+02  0.20961323948E+02  0.00000000000E+00 0.  1.
         25    2    1    2    0    0 -0.64830520080E+01 -0.33744792697E+02  0.27618093677E+03  0.30513104695E+03  0.12509318520E+03 0.  0.
          5    1    3    3  502    0 -0.23474493184E+02 -0.25104428797E+02  0.28250356242E+03  0.28461732090E+03  0.41800000000E+01 0. -1.
         -5    1    3    3    0  502  0.16991441176E+02 -0.86403638996E+01 -0.63226256530E+01  0.20513726056E+02  0.41800000000E+01 0. -1.
        -11    1    1    2    0    0 -0.13785419109E+02  0.11705000899E+02  0.14731031901E+02  0.23324839269E+02  0.00000000000E+00 0.  1.
         11    1    1    2    0    0  0.20268471117E+02  0.22039791798E+02  0.10018772522E+03  0.10456645556E+03  0.00000000000E+00 0. -1.
</event>
<event>
 7    1  0.2626349E-009  0.1574549E+03  0.7561462E-02  0.1191600E+00
          2   -1    0    0  501    0  0.00000000000E+00  0.00000000000E+00  0.32676422575E+04  0.32676422575E+04  0.00000000000E+00 0.  1.
         -2   -1    0    0    0  501 -0.00000000000E+00 -0.00000000000E+00 -0.24252024461E+02  0.24252024461E+02  0.00000000000E+00 0. -1.
         25    2    1    2    0    0  0.42931897098E+02  0.14535987030E+03  0.28782105098E+04  0.28849118825E+04  0.12509273085E+03 0.  0.
          5    1    3    3  502    0  0.37981182896E+02  0.45979450087E+02  0.20291463649E+04  0.20300268773E+04  0.41800000000E+01 0. -1.
         -5    1    3    3    0  502  0.49507142018E+01  0.99380420217E+02  0.84906414498E+03  0.85488500524E+03  0.41800000000E+01 0. -1.
        -11    1    1    2    0    0 -0.38412088925E+02 -0.68447316816E+02  0.28571538493E+03  0.29630019396E+03  0.00000000000E+00 0.  1.
         11    1    1    2    0    0 -0.45198081727E+01 -0.76912553488E+02  0.79464338232E+02  0.11068220544E+03  0.00000000000E+00 0. -1.
</event>
<event>
 7    1  0.2626349E-009  0.2150586E+03  0.7561462E-02  0.1137622E+00
         -1   -1    0    0    0  501 -0.00000000000E+00  0.00000000000E+00  0.56313311038E+02  0.56313311038E+02  0.00000000000E+00 0.  1.
          1   -1    0    0  501    0  0.00000000000E+00 -0.00000000000E+00 -0.82315072004E+03  0.82315072004E+03  0.00000000000E+00 0. -1.
         25    2    1    2    0    0  0.18358515265E+03  0.25112449225E+02 -0.39663537225E+03  0.45530700378E+03  0.12510278092E+03 0.  0.
          5    1    3    3  502    0  0.63110417739E+02 -0.50677614423E+02 -0.13638664153E+03  0.15865035083E+03  0.41800000000E+01 0.  1.
         -5    1    3    3    0  502  0.12047473491E+03  0.75790063648E+02 -0.26024873071E+03  0.29665665294E+03  0.41800000000E+01 0.  1.
        -11    1    1    2    0    0 -0.20224460528E+02  0.28319841948E+02 -0.53528227362E+02  0.63846013001E+02  0.00000000000E+00 0.  1.
         11    1    1    2    0    0 -0.16336069212E+03 -0.53432291172E+02 -0.31667380940E+03  0.36031101430E+03  0.00000000000E+00 0. -1.
</event>
<event>
 7    1  0.2626349E-009  0.4858027E+02  0.7561462E-02  0.1453153E+00
          1   -1    0    0  501    0  0.00000000000E+00  0.00000000000E+00  0.13227048640E+03  0.13227048640E+03  0.00000000000E+00 0. -1.
         -1   -1    0    0    0  501 -0.00000000000E+00 -0.00000000000E+00 -0.98382946747E+02  0.98382946747E+02  0.00000000000E+00 0.  1.
         25    2    1    2    0    0  0.16881621239E+02  0.34592838282E+02  0.14865126120E+02  0.13171813859E+03  0.12508813878E+03 0.  0.
          5    1    3    3  502    0  0.21912547582E+01  0.43419319854E+01  0.68214707764E+02  0.68515492599E+02  0.41800000000E+01 0. -1.
         -5    1    3    3    0  502  0.14690366480E+02  0.30250906296E+02 -0.53349581644E+02  0.63202645994E+02  0.41800000000E+01 0. -1.
        -11    1    1    2    0    0  0.68971444825E+01 -0.32234493528E+02  0.49953192552E+02  0.59849432923E+02  0.00000000000E+00 0. -1.
         11    1    1    2    0    0 -0.23778765721E+02 -0.23583447539E+01 -0.30930779016E+02  0.39085861635E+02  0.00000000000E+00 0.  1.
</event>
<event>
 7    1  0.2626349E-009  0.1943683E+03  0.7561462E-02  0.1154579E+00
         -2   -1    0    0    0  501 -0.00000000000E+00  0.00000000000E+00  0.14129293233E+03  0.14129293233E+03  0.00000000000E+00 0.  1.
          2   -1    0    0  501    0  0.00000000000E+00 -0.00000000000E+00 -0.35260421321E+03  0.35260421321E+03  0.00000000000E+00 0. -1.
         25    2    1    2    0    0 -0.17555075740E+03 -0.62059173228E+02 -0.17198826896E+03  0.28265793605E+03  0.12508451040E+03 0.  0.
          5    1    3    3  502    0 -0.99353726946E+02 -0.54970895447E+02 -0.24189884382E+02  0.11617050103E+03  0.41800000000E+01 0. -1.
         -5    1    3    3    0  502 -0.76197030459E+02 -0.70882777812E+01 -0.14779838458E+03  0.16648743501E+03  0.41800000000E+01 0. -1.
        -11    1    1    2    0    0  0.11553065672E+03  0.74105815607E+02  0.21920704615E+01  0.13727275666E+03  0.00000000000E+00 0.  1.
         11    1    1    2    0    0  0.60020100685E+02 -0.12046642379E+02 -0.41515082385E+02  0.73966452830E+02  0.00000000000E+00 0. -1.
</event>
<event>
 7    1  0.2626349E-009  0.2132182E+03  0.7561462E-02  0.1139043E+00
         -2   -1    0    0    0  501 -0.00000000000E+00  0.00000000000E+00  0.86446728108E+02  0.86446728108E+02  0.00000000000E+00 0.  1.
          2   -1    0    0  501    0  0.00000000000E+00 -0.00000000000E+00 -0.58699011119E+03  0.58699011119E+03  0.00000000000E+00 0. -1.
         25    2    1    2    0    0 -0.10081814944E+03 -0.16671473407E+03 -0.30164456259E+03  0.38025571727E+03  0.12508743569E+03 0.  0.
          5    1    3    3  502    0 -0.10582473349E+03 -0.56102736771E+02 -0.17318443117E+03  0.21061032950E+03  0.41800000000E+01 0. -1.
         -5    1    3    3    0  502  0.50065840468E+01 -0.11061199730E+03 -0.12846013141E+03  0.16964538778E+03  0.41800000000E+01 0. -1.
        -11    1    1    2    0    0  0.32931369006E+02  0.38164308096E+02 -0.11444687296E+03  0.12505629216E+03  0.00000000000E+00 0.  1.
         11    1    1    2    0    0  0.67886780434E+02  0.12855042598E+03 -0.84451947538E+02  0.16812482987E+03  0.00000000000E+00 0. -1.
</event>
<event>
 7    1  0.2626349E-009  0.1416540E+03  0.7561462E-02  0.1211121E+00
         -1   -1    0    0    0  501 -0.00000000000E+00  0.00000000000E+00  0.16390614246E+03  0.16390614246E+03  0.00000000000E+00 0.  1.
          1   -1    0    0  501    0  0.00000000000E+00 -0.00000000000E+00 -0.22361731703E+03  0.22361731703E+03  0.00000000000E+00 0. -1.
         25    2    1    2    0    0 -0.11468789398E+03 -0.17138948582E+02  0.75161612783E+02  0.18639639286E+03  0.12508913082E+03 0.  0.
          5    1    3    3  502    0 -0.21709878731E+02 -0.43557301614E+02  0.75170985142E+02  0.89647681318E+02  0.41800000000E+01 0. -1.
         -5    1    3    3    0  502 -0.92978015252E+02  0.26418353032E+02 -0.93723593625E-02  0.96748711541E+02  0.41800000000E+01 0. -1.
        -11    1    1    2    0    0  0.50224680172E+02 -0.29407583950E+02 -0.20243227515E+02  0.61620716909E+02  0.00000000000E+00 0.  1.
         11    1    1    2    0    0  0.64463213811E+02  0.46546532532E+02 -0.11462955983E+03  0.13950634972E+03  0.00000000000E+00 0. -1.
</event>
<event>
 7    1  0.2626349E-009  0.1068656E+03  0.7561462E-02  0.1266487E+00
          2   -1    0    0  501    0  0.00000000000E+00  0.00000000000E+00  0.15013115806E+03  0.15013115806E+03  0.00000000000E+00 0. -1.
         -2   -1    0    0    0  501 -0.00000000000E+00 -0.00000000000E+00 -0.97778629525E+02  0.97778629525E+02  0.00000000000E+00 0.  1.
         25    2    1    2    0    0 -0.20065383668E+02 -0.52941320639E+02  0.41909565417E+02  0.14356237472E+03  0.12509332800E+03 0.  0.
          5    1    3    3  502    0 -0.46157183214E+02 -0.80446702791E+02  0.91653655147E+01  0.93293268123E+02  0.41800000000E+01 0. -1.
         -5    1    3    3    0  502  0.26091799546E+02  0.27505382151E+02  0.32744199902E+02  0.50269106597E+02  0.41800000000E+01 0. -1.
        -11    1    1    2    0    0  0.41161360954E+02  0.26636653360E+02 -0.25332295668E+02  0.55185995883E+02  0.00000000000E+00 0.  1.
         11    1    1    2    0    0 -0.21095977286E+02  0.26304667279E+02  0.35775258786E+02  0.49161416980E+02  0.00000000000E+00 0. -1.
</event>
<event>
 7    1  0.2626349E-009  0.1020277E+03  0.7561462E-02  0.1276089E+00
          3   -1    0    0  501    0  0.00000000000E+00  0.00000000000E+00  0.54336952665E+02  0.54336952665E+02  0.00000000000E+00 0. -1.
         -3   -1    0    0    0  501 -0.00000000000E+00 -0.00000000000E+00 -0.33980545396E+03  0.33980545396E+03  0.00000000000E+00 0.  1.
         25    2    1    2    0    0  0.46406085413E+02 -0.34842653172E+02 -0.73973107339E+02  0.15648425355E+03  0.12509102988E+03 0.  0.
          5    1    3    3  502    0  0.56371929329E+01  0.25699669530E+02  0.22892757969E+02  0.35125513883E+02  0.41800000000E+01 0.  1.
         -5    1    3    3    0  502  0.40768892480E+02 -0.60542322702E+02 -0.96865865308E+02  0.12135873967E+03  0.41800000000E+01 0.  1.
        -11    1    1    2    0    0 -0.71836884532E+02  0.18866638588E+02 -0.11773199657E+03  0.13920241035E+03  0.00000000000E+00 0. -1.
         11    1    1    2    0    0  0.25430799119E+02  0.15976014584E+02 -0.93763397385E+02  0.98455742722E+02  0.00000000000E+00 0.  1.
</event>
<event>
 7    1  0.2626349E-009  0.8929897E+02  0.7561462E-02  0.1304558E+00
         -2   -1    0    0    0  501 -0.00000000000E+00  0.00000000000E+00  0.11583883531E+02  0.11583883531E+02  0.00000000000E+00 0.  1.
          2   -1    0    0  501    0  0.00000000000E+00 -0.00000000000E+00 -0.14519815309E+04  0.14519815309E+04  0.00000000000E+00 0. -1.
         25    2    1    2    0    0 -0.19788281656E+02  0.38934381714E+02 -0.11242654426E+04  0.11320460544E+04  0.12509205284E+03 0.  0.
          5    1    3    3  502    0  0.23324904228E+02  0.62120759166E+01 -0.93042818921E+03  0.93075062649E+03  0.41800000000E+01 0.  1.
         -5    1    3    3    0  502 -0.43113185884E+02  0.32722305797E+02 -0.19383725344E+03  0.20129542795E+03  0.41800000000E+01 0.  1.
        -11    1    1    2    0    0  0.64150042272E+00 -0.66362041397E+02 -0.21267237447E+03  0.22278660400E+03  0.00000000000E+00 0. -1.
         11    1    1    2    0    0  0.19146781233E+02  0.27427659684E+02 -0.10345983024E+03  0.10873275597E+03  0.00000000000E+00 0.  1.
</event>
<event>
 7    1  0.2626349E-009  0.1574227E+03  0.7561462E-02  0.1191638E+00
         -1   -1    0    0    0  501 -0.00000000000E+00  0.00000000000E+00  0.30921957451E+02  0.30921957451E+02  0.00000000000E+00 0.  1.
          1   -1    0    0  501    0  0.00000000000E+00 -0.00000000000E+00 -0.82157742552E+03  0.82157742552E+03  0.00000000000E+00 0. -1.
         25    2    1    2    0    0  0.30753176132E+02 -0.11240218742E+03 -0.41869352161E+03  0.45225215402E+03  0.12509091172E+03 0.  0.
          5    1    3    3  502    0 -0.27187243157E+01 -0.13186758568E+03 -0.32798187771E+03  0.35353364213E+03  0.41800000000E+01 0. -1.
         -5    1    3    3    0  502  0.33471900448E+02  0.19465398262E+02 -0.90711643904E+02  0.98718511885E+02  0.41800000000E+01 0. -1.
        -11    1    1    2    0    0 -0.43559938034E+02  0.15564069517E+02 -0.16551478489E+03  0.17185706991E+03  0.00000000000E+00 0.  1.
         11    1    1    2    0    0  0.12806761902E+02  0.96838117900E+02 -0.20644716158E+03  0.22839015905E+03  0.00000000000E+00 0. -1.
</event>
<event>
 7    1  0.2626349E-009  0.1123425E+03  0.7561462E-02  0.1256292E+00
          2   -1    0    0  501    0  0.00000000000E+00  0.00000000000E+00  0.14993362213E+04  0.14993362213E+04  0.00000000000E+00 0. -1.
         -2   -1    0    0    0  501 -0.00000000000E+00 -0.00000000000E+00 -0.11669081011E+02  0.11669081011E+02  0.00000000000E+00 0.  1.
         25    2    1    2    0    0 -0.49013184024E+02  0.31897189132E+02  0.10878224405E+04  0.10965510137E+04  0.12508693326E+03 0.  0.
          5    1    3    3  502    0 -0.69619808312E+02 -0.12041778598E+02  0.89038011894E+03  0.89318875427E+03  0.41800000000E+01 0.  1.
         -5    1    3    3    0  502  0.20606624287E+02  0.43938967730E+02  0.19744232153E+03  0.20336225948E+03  0.41800000000E+01 0.  1.
        -11    1    1    2    0    0  0.70600395845E+02 -0.41142316527E+02  0.34915039574E+03  0.35858486436E+03  0.00000000000E+00 0. -1.
         11    1    1    2    0    0 -0.21587211821E+02  0.92451273953E+01  0.50694304054E+02  0.55869424181E+02  0.00000000000E+00 0.  1.
</event>
<event>
 7    1  0.2626349E-009  0.1146463E+03  0.7561462E-02  0.1252200E+00
         -2   -1    0    0    0  501 -0.00000000000E+00  0.00000000000E+00  0.36315573825E+02  0.36315573825E+02  0.00000000000E+00 0.  1.
          2   -1    0    0  501    0  0.00000000000E+00 -0.00000000000E+00 -0.40808416886E+03  0.40808416886E+03  0.00000000000E+00 0. -1.
         25    2    1    2    0    0  0.24409737363E+02  0.49458607963E+02 -0.21219430390E+03  0.25242017422E+03  0.12509009780E+03 0.  0.
          5    1    3    3  502    0  0.45614691382E+02  0.75927437038E+02 -0.93318390557E+02  0.12873022249E+03  0.41800000000E+01 0. -1.
         -5    1    3    3    0  502 -0.21204954019E+02 -0.26468829074E+02 -0.11887591334E+03  0.12368995173E+03  0.41800000000E+01 0. -1.
        -11    1    1    2    0    0 -0.36870739269E+02  0.15723693312E+02 -0.53365110757E+02  0.66742197984E+02  0.00000000000E+00 0.  1.
         11    1    1    2    0    0  0.12461001906E+02 -0.65182301276E+02 -0.10620918038E+03  0.12523737048E+03  0.00000000000E+00 0. -1.
</event>
<event>
 7    1  0.2626349E-009  0.1189097E+03  0.7561462E-02  0.1244907E+00
          1   -1    0    0  501    0  0.00000000000E+00  0.00000000000E+00  0.61857203865E+03  0.61857203865E+03  0.00000000000E+00 0. -1.
         -1   -1    0    0    0  501 -0.00000000000E+00 -0.00000000000E+00 -0.24493204293E+02  0.24493204293E+02  0.00000000000E+00 0.  1.
         25    2    1    2    0    0  0.15657010348E+02 -0.60778585929E+02  0.30288126875E+03  0.33365216958E+03  0.12509008284E+03 0.  0.
          5    1    3    3  502    0 -0.54696886472E+02 -0.19789011847E+02  0.13271131417E+03  0.14495902762E+03  0.41800000000E+01 0. -1.
         -5    1    3    3    0  502  0.70353896820E+02 -0.40989574083E+02  0.17016995458E+03  0.18869314196E+03  0.41800000000E+01 0. -1.
        -11    1    1    2    0    0 -0.77761055058E+01 -0.17577365187E+02  0.11253090501E+03  0.11416057186E+03  0.00000000000E+00 0.  1.
         11    1    1    2    0    0 -0.78809048419E+01  0.78355951116E+02  0.17866666059E+03  0.19525250150E+03  0.00000000000E+00 0. -1.
</event>
<event>
 7    1  0.2626349E-009  0.8580114E+02  0.7561462E-02  0.1313351E+00
          1   -1    0    0  501    0  0.00000000000E+00  0.00000000000E+00  0.14346914945E+02  0.14346914945E+02  0.00000000000E+00 0. -1.
         -1   -1    0    0    0  501 -0.00000000000E+00 -0.00000000000E+00 -0.10922886797E+04  0.10922886797E+04  0.00000000000E+00 0.  1.
         25    2    1    2    0    0  0.17262291139E+02  0.51259620060E+02 -0.72640148844E+03  0.73907519842E+03  0.12508993230E+03 0.  0.
          5    1    3    3  502    0 -0.56131382288E+01  0.46803588522E+02 -0.70667335847E+03  0.70825616212E+03  0.41800000000E+01 0. -1.
         -5    1    3    3    0  502  0.22875429368E+02  0.44560315384E+01 -0.19728129977E+02  0.30819036296E+02  0.41800000000E+01 0. -1.
        -11    1    1    2    0    0  0.28808870424E+02  0.35203364411E+01 -0.16925706914E+03  0.17172739804E+03  0.00000000000E+00 0.  1.
         11    1    1    2    0    0 -0.46071161563E+02 -0.54779956501E+02 -0.18228320717E+03  0.19583299819E+03  0.00000000000E+00 0. -1.
</event>
<event>
 7    1  0.2626349E-009  0.1742518E+03  0.7561462E-02  0.1173485E+00
          1   -1    0    0  501    0  0.00000000000E+00  0.00000000000E+00  0.21889141039E+04  0.21889141039E+04  0.00000000000E+00 0. -1.
         -1   -1    0    0    0  501 -0.00000000000E+00 -0.00000000000E+00 -0.16482409407E+02  0.16482409407E+02  0.00000000000E+00 0.  1.
         25    2    1    2    0    0 -0.10669174581E+03 -0.97102398311E+02  0.14801037123E+04  0.14923694484E+04  0.12509023462E+03 0.  0.
          5    1    3    3  502    0 -0.13252917322E+03 -0.85630471491E+02  0.13480304672E+04  0.13572399096E+04  0.41800000000E+01 0.  1.
         -5    1    3    3    0  502  0.25837427416E+02 -0.11471926820E+02  0.13207324516E+03  0.13512953877E+03  0.41800000000E+01 0.  1.
        -11    1    1    2    0    0  0.26219883485E+02  0.73781117600E+02  0.44649946827E+03  0.45331325898E+03  0.00000000000E+00 0. -1.
         11    1    1    2    0    0  0.80471862323E+02  0.23321280711E+02  0.24582851389E+03  0.25971380595E+03  0.00000000000E+00 0.  1.
</event>
<event>
 7    1  0.2626349E-009  0.1624551E+03  0.7561462E-02  0.1185953E+00
         -2   -1    0    0    0  501 -0.00000000000E+00  0.00000000000E+00  0.34714640818E+02  0.34714640818E+02  0.00000000000E+00 0.  1.
          2   -1    0    0  501    0  0.00000000000E+00 -0.00000000000E+00 -0.79629771155E+03  0.79629771155E+03  0.00000000000E+00 0. -1.
         25    2    1    2    0    0 -0.86660069542E+02  0.67805456639E+02 -0.43539700317E+03  0.46618363925E+03  0.12509631302E+03 0.  0.
          5    1    3    3  502    0  0.14076649523E+02 -0.22100926921E+02 -0.37178466276E+02  0.45676184026E+02  0.41800000000E+01 0. -1.
         -5    1    3    3    0  502 -0.10073671907E+03  0.89906383561E+02 -0.39821853690E+03  0.42050745523E+03  0.41800000000E+01 0. -1.
        -11    1    1    2    0    0 -0.30415867437E+02 -0.63820759360E+01 -0.67738098380E+02  0.74527215548E+02  0.00000000000E+00 0.  1.
         11    1    1    2    0    0  0.11707593698E+03 -0.61423380703E+02 -0.25844796917E+03  0.29030149756E+03  0.00000000000E+00 0. -1.
</event>
<event>
 7    1  0.2626349E-009  0.9912481E+02  0.7561462E-02  0.1282147E+00
         -1   -1    0    0    0  501 -0.00000000000E+00  0.00000000000E+00  0.31171149227E+02  0.31171149227E+02  0.00000000000E+00 0. -1.
          1   -1    0    0  501    0  0.00000000000E+00 -0.00000000000E+00 -0.45918070002E+03  0.45918070002E+03  0.00000000000E+00 0.  1.
         25    2    1    2    0    0 -0.57701734202E+01 -0.42960985314E+01 -0.19466467291E+03  0.23150484594E+03  0.12509359476E+03 0.  0.
          5    1    3    3  502    0 -0.42547847928E+02 -0.44234605159E+02 -0.14616935206E+03  0.15858742554E+03  0.41800000000E+01 0. -1.
         -5    1    3    3    0  502  0.36777674508E+02  0.39938506627E+02 -0.48495320847E+02  0.72917420401E+02  0.41800000000E+01 0. -1.
        -11    1    1    2    0    0  0.22378661304E+02 -0.33904029387E+02 -0.28045144730E+02  0.49364135092E+02  0.00000000000E+00 0. -1.
         11    1    1    2    0    0 -0.16608487884E+02  0.38200127919E+02 -0.20529973315E+03  0.20948286821E+03  0.00000000000E+00 0.  1.
</event>
<event>
 7    1  0.2626349E-009  0.1041937E+03  0.7561462E-02  0.1271716E+00
          2   -1    0    0  501    0  0.00000000000E+00  0.00000000000E+00  0.17169988819E+03  0.17169988819E+03  0.00000000000E+00 0. -1.
         -2   -1    0    0    0  501 -0.00000000000E+00 -0.00000000000E+00 -0.95065731536E+02  0.95065731536E+02  0.00000000000E+00 0.  1.
         25    2    1    2    0    0 -0.51237049306E+02 -0.11152816363E-01  0.79690160372E+02  0.15691554034E+03  0.12508688898E+03 0.  0.
          5    1    3    3  502    0 -0.62496136424E+02 -0.32952589744E+02  0.10165126371E+01  0.70782384367E+02  0.41800000000E+01 0. -1.
         -5    1    3    3    0  502  0.11259087118E+02  0.32941436928E+02  0.78673647735E+02  0.86133155971E+02  0.41800000000E+01 0. -1.
        -11    1    1    2    0    0  0.74802671389E+02  0.12562448516E+02 -0.19726549561E+02  0.78373410779E+02  0.00000000000E+00 0.  1.
         11    1    1    2    0    0 -0.23565622083E+02 -0.12551295700E+02  0.16670545838E+02  0.31476668604E+02  0.00000000000E+00 0. -1.
</event>
<event>
 7    1  0.2626349E-009  0.1058743E+03  0.7561462E-02  0.1268407E+00
          1   -1    0    0  501    0  0.00000000000E+00  0.00000000000E+00  0.39606204313E+03  0.39606204313E+03  0.00000000000E+00 0. -1.
         -1   -1    0    0    0  501 -0.00000000000E+00 -0.00000000000E+00 -0.36203831982E+02  0.36203831982E+02  0.00000000000E+00 0.  1.
         25    2    1    2    0    0 -0.30137861445E+02 -0.37202614675E+02  0.18681100136E+03  0.22986546570E+03  0.12508979520E+03 0.  0.
          5    1    3    3  502    0  0.25259127296E+02  0.16342787743E+02  0.30061249859E+01  0.30522441095E+02  0.41800000000E+01 0.  1.
         -5    1    3    3    0  502 -0.55396988741E+02 -0.53545402418E+02  0.18380487637E+03  0.19934302461E+03  0.41800000000E+01 0.  1.
        -11    1    1    2    0    0 -0.15506520037E+02  0.53536783271E+02  0.10461034767E+03  0.11853254475E+03  0.00000000000E+00 0. -1.
         11    1    1    2    0    0  0.45644381482E+02 -0.16334168596E+02  0.68436862119E+02  0.83867864652E+02  0.00000000000E+00 0.  1.
</event>
<event>
 7    1  0.2626349E-009  0.9087150E+02  0.7561462E-02  0.1300755E+00
         -4   -1    0    0    0  501 -0.00000000000E+00  0.00000000000E+00  0.52918432233E+03  0.52918432233E+03  0.00000000000E+00 0.  1.
          4   -1    0    0  501    0  0.00000000000E+00 -0.00000000000E+00 -0.28249259279E+02  0.28249259279E+02  0.00000000000E+00 0. -1.
         25    2    1    2    0    0 -0.55031757300E+02 -0.17758135072E+02  0.29622916896E+03  0.32671735004E+03  0.12509460659E+03 0.  0.
          5    1    3    3  502    0  0.29970020880E+01 -0.19415429126E+02 -0.43534990855E+01  0.20551551376E+02  0.41800000000E+01 0. -1.
         -5    1    3    3    0  502 -0.58028759388E+02  0.16572940549E+01  0.30058266805E+03  0.30616579866E+03  0.41800000000E+01 0. -1.
        -11    1    1    2    0    0 -0.11809023124E+02 -0.22511553320E+02  0.76670336218E+02  0.80774770293E+02  0.00000000000E+00 0.  1.
         11    1    1    2    0    0  0.66840780424E+02  0.40269688392E+02  0.12803555787E+03  0.14994146128E+03  0.00000000000E+00 0. -1.
</event>
<event>
 7    1  0.2626349E-009  0.8544053E+02  0.7561462E-02  0.1314285E+00
         -3   -1    0    0    0  501 -0.00000000000E+00  0.00000000000E+00  0.13482149301E+03  0.13482149301E+03  0.00000000000E+00 0.  1.
          3   -1    0    0  501    0  0.00000000000E+00 -0.00000000000E+00 -0.16174292317E+03  0.16174292317E+03  0.00000000000E+00 0. -1.
         25    2    1    2    0    0  0.22323041582E+02 -0.67293395724E+02  0.55449685789E+02  0.15410163362E+03  0.12508367814E+03 0.  0.
          5    1    3    3  502    0  0.21601493586E+02 -0.64909953550E+02 -0.25409558120E+02  0.73096132858E+02  0.41800000000E+01 0. -1.
         -5    1    3    3    0  502  0.72154799641E+00 -0.23834421745E+01  0.80859243909E+02  0.81005500762E+02  0.41800000000E+01 0. -1.
        -11    1    1    2    0    0 -0.46298926235E+02  0.48137463529E+02 -0.15031339491E+02  0.68459821299E+02  0.00000000000E+00 0.  1.
         11    1    1    2    0    0  0.23975884652E+02  0.19155932195E+02 -0.67339776456E+02  0.74002961267E+02  0.00000000000E+00 0. -1.
</event>
<event>
 7    1  0.2626349E-009  0.9935376E+02  0.7561462E-02  0.1281661E+00
          1   -1    0    0  501    0  0.00000000000E+00  0.00000000000E+00  0.11271916642E+03  0.11271916642E+03  0.00000000000E+00 0. -1.
         -1   -1    0    0    0  501 -0.00000000000E+00 -0.00000000000E+00 -0.12545356860E+03  0.12545356860E+03  0.00000000000E+00 0.  1.
         25    2    1    2    0    0  0.46682167223E+02  0.36146589642E+01 -0.16658882549E+02  0.13460279287E+03  0.12509237780E+03 0.  0.
          5    1    3    3  502    0 -0.20957218457E+02 -0.37662706444E+02  0.19392746673E+02  0.47447186277E+02  0.41800000000E+01 0. -1.
         -5    1    3    3    0  502  0.67639385680E+02  0.41277365408E+02 -0.36051629222E+02  0.87155606588E+02  0.41800000000E+01 0. -1.
        -11    1    1    2    0    0 -0.10394922312E+02  0.26775587844E+02 -0.32846166106E+02  0.43633211458E+02  0.00000000000E+00 0.  1.
         11    1    1    2    0    0 -0.36287244910E+02 -0.30390246808E+02  0.36770646481E+02  0.59936730699E+02  0.00000000000E+00 0. -1.
</event>
<event>
 7    1  0.2626349E-009  0.1697819E+03  0.7561462E-02  0.1178076E+00
          1   -1    0    0  501    0  0.00000000000E+00  0.00000000000E+00  0.91453828169E+03  0.91453828169E+03  0.00000000000E+00 0. -1.
         -1   -1    0    0    0  501 -0.00000000000E+00 -0.00000000000E+00 -0.41139705747E+02  0.41139705747E+02  0.00000000000E+00 0.  1.
         25    2    1    2    0    0  0.14079791135E+03 -0.71845702312E+02  0.40384750146E+03  0.45135913397E+03  0.12508559711E+03 0.  0.
          5    1    3    3  502    0  0.13862971276E+03 -0.38456478935E+02  0.20991473589E+03  0.25451673182E+03  0.41800000000E+01 0. -1.
         -5    1    3    3    0  502  0.21681985847E+01 -0.33389223377E+02  0.19393276558E+03  0.19684240216E+03  0.41800000000E+01 0. -1.
        -11    1    1    2    0    0 -0.85724495680E+02  0.24146180238E+02  0.13363820506E+03  0.16059544523E+03  0.00000000000E+00 0.  1.
         11    1    1    2    0    0 -0.55073415665E+02  0.47699522074E+02  0.33591286942E+03  0.34372340823E+03  0.00000000000E+00 0. -1.
</event>
<event>
 7    1  0.2626349E-009  0.1065431E+03  0.7561462E-02  0.1267109E+00
         -1   -1    0    0    0  501 -0.00000000000E+00  0.00000000000E+00  0.63356621814E+02  0.63356621814E+02  0.00000000000E+00 0.  1.
          1   -1    0    0  501    0  0.00000000000E+00 -0.00000000000E+00 -0.28383813921E+03  0.28383813921E+03  0.00000000000E+00 0. -1.
         25    2    1    2    0    0  0.66819557447E+02  0.36000930893E+02 -0.93302181945E+02  0.17353390499E+03  0.12509116173E+03 0.  0.
          5    1    3    3  502    0  0.21032211987E+01 -0.35174553759E+02  0.51105947389E+01  0.35850569732E+02  0.41800000000E+01 0.  1.
         -5    1    3    3    0  502  0.64716336248E+02  0.71175484652E+02 -0.98412776683E+02  0.13768333526E+03  0.41800000000E+01 0.  1.
        -11    1    1    2    0    0 -0.28431102448E+02  0.36560725470E+00 -0.11623355860E+03  0.11966077636E+03  0.00000000000E+00 0. -1.
         11    1    1    2    0    0 -0.38388454999E+02 -0.36366538148E+02 -0.10945776857E+02  0.54000079676E+02  0.00000000000E+00 0.  1.
</event>
<event>
 7    1  0.2651754E-009  0.1111942E+03  0.7561462E-02  0.1258374E+00
         -1   -1    0    0    0  501 -0.00000000000E+00  0.00000000000E+00  0.28517179615E+03  0.28517179615E+03  0.00000000000E+00 0.  1.
          1   -1    0    0  501    0  0.00000000000E+00 -0.00000000000E+00 -0.68676027018E+02  0.68676027018E+02  0.00000000000E+00 0. -1.
         25    2    1    2    0    0 -0.43094931158E+02  0.53010133450E+02  0.18848735401E+03  0.23630977577E+03  0.12509028804E+03 0.  0.
          5    1    3    3  502    0 -0.43239668837E+02  0.92037777283E+02  0.11976356775E+03  0.15716680937E+03  0.41800000000E+01 0.  1.
         -5    1    3    3    0  502  0.14473767962E+00 -0.39027643833E+02  0.68723786261E+02  0.79142966397E+02  0.41800000000E+01 0.  1.
        -11    1    1    2    0    0  0.46288809810E+02 -0.23931765264E+02  0.56389372028E+02  0.76779844881E+02  0.00000000000E+00 0.  1.
         11    1    1    2    0    0 -0.31938786527E+01 -0.29078368186E+02 -0.28380956908E+02  0.40758202515E+02  0.00000000000E+00 0. -1.
</event>
<event>
 7    1  0.2626349E-009  0.9395203E+02  0.7561462E-02  0.1293554E+00
          2   -1    0    0  501    0  0.00000000000E+00  0.00000000000E+00  0.19798753478E+03  0.19798753478E+03  0.00000000000E+00 0.  1.
         -2   -1    0    0    0  501 -0.00000000000E+00 -0.00000000000E+00 -0.10128067736E+03  0.10128067736E+03  0.00000000000E+00 0. -1.
         25    2    1    2    0    0  0.63972054101E+02 -0.11782429522E+01 -0.14727505557E+02  0.14127084808E+03  0.12508693432E+03 0.  0.
          5    1    3    3  502    0 -0.38288694413E+01  0.76486500281E+01 -0.58964320810E+02  0.59727929958E+02  0.41800000000E+01 0.  1.
         -5    1    3    3    0  502  0.67800923542E+02 -0.88268929803E+01  0.44236815253E+02  0.81542918127E+02  0.41800000000E+01 0.  1.
        -11    1    1    2    0    0 -0.15699209248E+02 -0.42173863545E+02  0.30947231646E+02  0.54615300822E+02  0.00000000000E+00 0.  1.
         11    1    1    2    0    0 -0.48272844853E+02  0.43352106497E+02  0.80487131335E+02  0.10338206323E+03  0.00000000000E+00 0. -1.
</event>
<event>
 7    1  0.2626349E-009  0.1722810E+03  0.7561462E-02  0.1175490E+00
         -2   -1    0    0    0  501 -0.00000000000E+00  0.00000000000E+00  0.62973848136E+02  0.62973848136E+02  0.00000000000E+00 0. -1.
          2   -1    0    0  501    0  0.00000000000E+00 -0.00000000000E+00 -0.55028522420E+03  0.55028522420E+03  0.00000000000E+00 0.  1.
         25    2    1    2    0    0 -0.76725322821E+02 -0.12320693599E+03 -0.32617222606E+03  0.37828916989E+03  0.12509057025E+03 0.  0.
          5    1    3    3  502    0 -0.58277203440E+02  0.73207777742E+01 -0.84909592854E+02  0.10332926781E+03  0.41800000000E+01 0. -1.
         -5    1    3    3    0  502 -0.18448119381E+02 -0.13052771376E+03 -0.24126263321E+03  0.27495990208E+03  0.41800000000E+01 0. -1.
        -11    1    1    2    0    0  0.19615827700E+02  0.79465758363E+02 -0.33471338832E+02  0.88430300078E+02  0.00000000000E+00 0. -1.
         11    1    1    2    0    0  0.57109495122E+02  0.43741177626E+02 -0.12766781117E+03  0.14653960237E+03  0.00000000000E+00 0.  1.
</event>
<event>
 7    1  0.2626349E-009  0.1695248E+03  0.7561462E-02  0.1178344E+00
          2   -1    0    0  501    0  0.00000000000E+00  0.00000000000E+00  0.27542034790E+03  0.27542034790E+03  0.00000000000E+00 0. -1.
         -2   -1    0    0    0  501 -0.00000000000E+00 -0.00000000000E+00 -0.11640323484E+03  0.11640323484E+03  0.00000000000E+00 0.  1.
         25    2    1    2    0    0 -0.12976733852E+01  0.13504084257E+03  0.39444447068E+02  0.18825814575E+03  0.12509017515E+03 0.  0.
          5    1    3    3  502    0  0.43999687936E+01  0.15780826233E+03  0.23710072630E+02  0.15969485693E+03  0.41800000000E+01 0. -1.
         -5    1    3    3    0  502 -0.56976421788E+01 -0.22767419767E+02  0.15734374438E+02  0.28563288819E+02  0.41800000000E+01 0. -1.
        -11    1    1    2    0    0 -0.57530982573E+01 -0.14498312453E+03  0.87941257952E+02  0.16966693664E+03  0.00000000000E+00 0.  1.
         11    1    1    2    0    0  0.70507716425E+01  0.99422819629E+01  0.31631408044E+02  0.33898500354E+02  0.00000000000E+00 0. -1.
</event>
<event>
 7    1  0.2626349E-009  0.2604346E+03  0.7561462E-02  0.1106882E+00
          2   -1    0    0  501    0  0.00000000000E+00  0.00000000000E+00  0.12119565176E+03  0.12119565176E+03  0.00000000000E+00 0. -1.
         -2   -1    0    0    0  501 -0.00000000000E+00 -0.00000000000E+00 -0.58512655742E+03  0.58512655742E+03  0.00000000000E+00 0.  1.
         25    2    1    2    0    0 -0.47267663123E+02  0.22728020325E+03 -0.30837999548E+03  0.40575444415E+03  0.12509166469E+03 0.  0.
          5    1    3    3  502    0 -0.65025535233E+02  0.41996250888E+02 -0.90227081783E+02  0.11895547069E+03  0.41800000000E+01 0.  1.
         -5    1    3    3    0  502  0.17757872110E+02  0.18528395236E+03 -0.21815291369E+03  0.28679897346E+03  0.41800000000E+01 0.  1.
        -11    1    1    2    0    0 -0.32161233470E+02 -0.27999933104E+02 -0.24473890371E+02  0.49166172335E+02  0.00000000000E+00 0.  1.
         11    1    1    2    0    0  0.79428896593E+02 -0.19928027014E+03 -0.13107701982E+03  0.25140159269E+03  0.00000000000E+00 0. -1.
</event>
<event>
 7    1  0.2626349E-009  0.1077477E+03  0.7561462E-02  0.1264799E+00
         -2   -1    0    0    0  501 -0.00000000000E+00  0.00000000000E+00  0.19544179209E+02  0.19544179209E+02  0.00000000000E+00 0.  1.
          2   -1    0    0  501    0  0.00000000000E+00 -0.00000000000E+00 -0.70509351162E+03  0.70509351162E+03  0.00000000000E+00 0. -1.
         25    2    1    2    0    0  0.25287012214E+02 -0.38099935867E+02 -0.38002488535E+03  0.40268831901E+03  0.12509168910E+03 0.  0.
          5    1    3    3  502    0  0.67281680171E+02 -0.40267724816E+02 -0.31858385254E+03  0.32811805443E+03  0.41800000000E+01 0. -1.
         -5    1    3    3    0  502 -0.41994667957E+02  0.21677889492E+01 -0.61441032811E+02  0.74570264574E+02  0.41800000000E+01 0. -1.
        -11    1    1    2    0    0 -0.14574842309E+02  0.64551660721E+02 -0.15178991574E+03  0.16558840978E+03  0.00000000000E+00 0.  1.
         11    1    1    2    0    0 -0.10712169905E+02 -0.26451724855E+02 -0.15373453132E+03  0.15636096205E+03  0.00000000000E+00 0. -1.
</event>
<event>
 7    1  0.2626349E-009  0.9166117E+02  0.7561462E-02  0.1298878E+00
          2   -1    0    0  501    0  0.00000000000E+00  0.00000000000E+00  0.98053932660E+03  0.98053932660E+03  0.00000000000E+00 0. -1.
         -2   -1    0    0    0  501 -0.00000000000E+00 -0.00000000000E+00 -0.15789466905E+02  0.15789466905E+02  0.00000000000E+00 0.  1.
         25    2    1    2    0    0  0.47994293103E+02 -0.13114169574E+02  0.66824785223E+03  0.68167313212E+03  0.12509050096E+03 0.  0.
          5    1    3    3  502    0  0.63677062790E+02 -0.21122378214E+02  0.65685917016E+03  0.66028960692E+03  0.41800000000E+01 0. -1.
         -5    1    3    3    0  502 -0.15682769687E+02  0.80082086396E+01  0.11388682074E+02  0.21383525201E+02  0.41800000000E+01 0. -1.
        -11    1    1    2    0    0 -0.34175006283E+02  0.48891413443E+02  0.11968193476E+03  0.13372384556E+03  0.00000000000E+00 0.  1.
         11    1    1    2    0    0 -0.13819286820E+02 -0.35777243869E+02  0.17682007270E+03  0.18093181582E+03  0.00000000000E+00 0. -1.
</event>
<event>
 7    1  0.2626349E-009  0.1063049E+03  0.7561462E-02  0.1267570E+00
         -3   -1    0    0    0  501 -0.00000000000E+00  0.00000000000E+00  0.42659092170E+03  0.42659092170E+03  0.00000000000E+00 0.  1.
          3   -1    0    0  501    0  0.00000000000E+00 -0.00000000000E+00 -0.33618753519E+02  0.33618753519E+02  0.00000000000E+00 0. -1.
         25    2    1    2    0    0  0.97919313856E+01 -0.16211986986E+02  0.13059822139E+03  0.18182945418E+03  0.12508934620E+03 0.  0.
          5    1    3    3  502    0  0.62150680141E+02  0.13894292417E+02  0.50273792547E+02  0.81244599949E+02  0.41800000000E+01 0. -1.
         -5    1    3    3    0  502 -0.52358748756E+02 -0.30106279403E+02  0.80324428848E+02  0.10058485423E+03  0.41800000000E+01 0. -1.
        -11    1    1    2    0    0  0.25884458154E+02 -0.23430367956E+02  0.14976003195E+03  0.15377598800E+03  0.00000000000E+00 0.  1.
         11    1    1    2    0    0 -0.35676389540E+02  0.39642354943E+02  0.11261391483E+03  0.12460423303E+03  0.00000000000E+00 0. -1.
</event>
<event>
 7    1  0.3087395E-009  0.1342699E+03  0.7561462E-02  0.1221254E+00
          2   -1    0    0  501    0  0.00000000000E+00  0.00000000000E+00  0.22067914879E+03  0.22067914879E+03  0.00000000000E+00 0. -1.
         -2   -1    0    0    0  501 -0.00000000000E+00 -0.00000000000E+00 -0.13931565559E+03  0.13931565559E+03  0.00000000000E+00 0.  1.
         25    2    1    2    0    0  0.44787783376E+02  0.11085551953E+03 -0.26545494282E+02  0.17506317210E+03  0.12509020428E+03 0.  0.
          5    1    3    3  502    0 -0.30315727483E+01  0.31919184162E+01 -0.53744552581E+02  0.54086302412E+02  0.41800000000E+01 0. -1.
         -5    1    3    3    0  502  0.47819356124E+02  0.10766360112E+03  0.27199058299E+02  0.12097686968E+03  0.41800000000E+01 0. -1.
        -11    1    1    2    0    0 -0.42487362021E+02 -0.99228355566E+01  0.57236124276E+02  0.71969524934E+02  0.00000000000E+00 0.  1.
         11    1    1    2    0    0 -0.23004213544E+01 -0.10093268398E+03  0.50672863205E+02  0.11296210736E+03  0.00000000000E+00 0. -1.
</event>
<event>
 7    1  0.2626349E-009  0.1040708E+03  0.7561462E-02  0.1271961E+00
          1   -1    0    0  501    0  0.00000000000E+00  0.00000000000E+00  0.31071229959E+03  0.31071229959E+03  0.00000000000E+00 0. -1.
         -1   -1    0    0    0  501 -0.00000000000E+00 -0.00000000000E+00 -0.51387795749E+02  0.51387795749E+02  0.00000000000E+00 0.  1.
         25    2    1    2    0    0 -0.43183900308E+02  0.30155569004E+02  0.89808204255E+02  0.16276202394E+03  0.12510697541E+03 0.  0.
          5    1    3    3  502    0  0.20277208837E+02 -0.17923466558E+02 -0.14884734576E+02  0.31167989590E+02  0.41800000000E+01 0. -1.
         -5    1    3    3    0  502 -0.63461109145E+02  0.48079035562E+02  0.10469293883E+03  0.13159403435E+03  0.41800000000E+01 0. -1.
        -11    1    1    2    0    0 -0.15104148504E+02  0.19356482194E+02  0.67581706032E+02  0.71903377495E+02  0.00000000000E+00 0. -1.
         11    1    1    2    0    0  0.58288048812E+02 -0.49512051199E+02  0.10193459356E+03  0.12743469391E+03  0.00000000000E+00 0.  1.
</event>
<event>
 7    1  0.2626349E-009  0.1364582E+03  0.7561462E-02  0.1218176E+00
         -1   -1    0    0    0  501 -0.00000000000E+00  0.00000000000E+00  0.43473538674E+03  0.43473538674E+03  0.00000000000E+00 0.  1.
          1   -1    0    0  501    0  0.00000000000E+00 -0.00000000000E+00 -0.52163292932E+02  0.52163292932E+02  0.00000000000E+00 0. -1.
         25    2    1    2    0    0 -0.94027815424E+02 -0.39690295509E+02  0.23960873724E+03  0.28892568250E+03  0.12509657636E+03 0.  0.
          5    1    3    3  502    0 -0.18368924334E+02  0.40353919591E+02  0.11068273015E+03  0.11930630898E+03  0.41800000000E+01 0. -1.
         -5    1    3    3    0  502 -0.75658891090E+02 -0.80044215100E+02  0.12892600709E+03  0.16961937353E+03  0.41800000000E+01 0. -1.
        -11    1    1    2    0    0  0.67126883766E+02 -0.35656340486E+01  0.29129083555E+02  0.73261420809E+02  0.00000000000E+00 0. -1.
         11    1    1    2    0    0  0.26900931658E+02  0.43255929557E+02  0.11383427301E+03  0.12471157636E+03  0.00000000000E+00 0.  1.
</event>
<event>
 7    1  0.2626349E-009  0.1504026E+03  0.7561462E-02  0.1199979E+00
          2   -1    0    0  501    0  0.00000000000E+00  0.00000000000E+00  0.68135990123E+02  0.68135990123E+02  0.00000000000E+00 0. -1.
         -2   -1    0    0    0  501 -0.00000000000E+00 -0.00000000000E+00 -0.41302623249E+03  0.41302623249E+03  0.00000000000E+00 0.  1.
         25    2    1    2    0    0 -0.10489528929E+03  0.71527898719E+02 -0.19454899757E+03  0.26384831436E+03  0.12508940213E+03 0.  0.
          5    1    3    3  502    0 -0.10432780020E+03  0.82481562759E+02 -0.94717266269E+02  0.16332890442E+03  0.41800000000E+01 0. -1.
         -5    1    3    3    0  502 -0.56748909150E+00 -0.10953664040E+02 -0.99831731302E+02  0.10051940994E+03  0.41800000000E+01 0. -1.
        -11    1    1    2    0    0 -0.43142424052E+01 -0.42888445034E+02 -0.52390281202E+02  0.67843739353E+02  0.00000000000E+00 0. -1.
         11    1    1    2    0    0  0.10920953170E+03 -0.28639453685E+02 -0.97950963592E+02  0.14947016890E+03  0.00000000000E+00 0.  1.
</event>
<event>
 7    1  0.2626349E-009  0.1050584E+03  0.7561462E-02  0.1270005E+00
         -1   -1    0    0    0  501 -0.00000000000E+00  0.00000000000E+00  0.39570267015E+02  0.39570267015E+02  0.00000000000E+00 0.  1.
          1   -1    0    0  501    0  0.00000000000E+00 -0.00000000000E+00 -0.51561819890E+03  0.51561819890E+03  0.00000000000E+00 0. -1.
         25    2    1    2    0    0  0.71351271670E+02  0.66471549832E+02 -0.25680059871E+03  0.30183198415E+03  0.12508608337E+03 0.  0.
          5    1    3    3  502    0  0.28083938878E+02  0.10572387267E+02 -0.21991006733E+03  0.22198737151E+03  0.41800000000E+01 0.  1.
         -5    1    3    3    0  502  0.43267332793E+02  0.55899162565E+02 -0.36890531379E+02  0.79844612642E+02  0.41800000000E+01 0.  1.
        -11    1    1    2    0    0 -0.68504826830E+02 -0.34120765901E+02 -0.81369362202E+02  0.11170546571E+03  0.00000000000E+00 0.  1.
         11    1    1    2    0    0 -0.28464448399E+01 -0.32350783931E+02 -0.13787797097E+03  0.14165101605E+03  0.00000000000E+00 0. -1.
</event>
<event>
 7    1  0.2626349E-009  0.9666404E+02  0.7561462E-02  0.1287472E+00
         -1   -1    0    0    0  501 -0.00000000000E+00  0.00000000000E+00  0.55900079962E+02  0.55900079962E+02  0.00000000000E+00 0.  1.
          1   -1    0    0  501    0  0.00000000000E+00 -0.00000000000E+00 -0.31807220750E+03  0.31807220750E+03  0.00000000000E+00 0. -1.
         25    2    1    2    0    0 -0.42957787984E+02 -0.62205729204E+02 -0.16035657782E+03  0.21696352160E+03  0.12507603032E+03 0.  0.
          5    1    3    3  502    0  0.14474094784E+02  0.10692140608E+02 -0.10951700643E+03  0.11106425342E+03  0.41800000000E+01 0.  1.
         -5    1    3    3    0  502 -0.57431882769E+02 -0.72897869812E+02 -0.50839571389E+02  0.10589926818E+03  0.41800000000E+01 0.  1.
        -11    1    1    2    0    0  0.34840197196E+02  0.22602670022E+02 -0.10836941552E+03  0.11605451414E+03  0.00000000000E+00 0. -1.
         11    1    1    2    0    0  0.81175907889E+01  0.39603059182E+02  0.65538658034E+01  0.40954251718E+02  0.00000000000E+00 0.  1.
</event>
<event>
 7    1  0.2626349E-009  0.1370851E+03  0.7561462E-02  0.1217306E+00
          1   -1    0    0  501    0  0.00000000000E+00  0.00000000000E+00  0.62478796034E+03  0.62478796034E+03  0.00000000000E+00 0. -1.
         -1   -1    0    0    0  501 -0.00000000000E+00 -0.00000000000E+00 -0.43175169918E+02  0.43175169918E+02  0.00000000000E+00 0.  1.
         25    2    1    2    0    0  0.11213210624E+03 -0.28912416269E+02  0.23902323202E+03  0.29358219959E+03  0.12509542521E+03 0.  0.
          5    1    3    3  502    0  0.61261613696E+02  0.16397432371E+02  0.21001648232E+03  0.21942255205E+03  0.41800000000E+01 0. -1.
         -5    1    3    3    0  502  0.50870492546E+02 -0.45309848640E+02  0.29006749692E+02  0.74159647541E+02  0.41800000000E+01 0. -1.
        -11    1    1    2    0    0 -0.12492086542E+03  0.19386089988E+02  0.33195997191E+03  0.35521608361E+03  0.00000000000E+00 0. -1.
         11    1    1    2    0    0  0.12788759178E+02  0.95263262816E+01  0.10629586495E+02  0.19164847059E+02  0.00000000000E+00 0.  1.
</event>
<event>
 7    1  0.2626349E-009  0.1768362E+03  0.7561462E-02  0.1170901E+00
          2   -1    0    0  501    0  0.00000000000E+00  0.00000000000E+00  0.73030370921E+03  0.73030370921E+03  0.00000000000E+00 0.  1.
         -2   -1    0    0    0  501 -0.00000000000E+00 -0.00000000000E+00 -0.73751862353E+02  0.73751862353E+02  0.00000000000E+00 0. -1.
         25    2    1    2    0    0  0.14248971064E+03  0.52119462663E+01  0.84308430520E+02  0.20756904906E+03  0.12508603698E+03 0.  0.
          5    1    3    3  502    0  0.14581985717E+03  0.40408444140E+02  0.53687405523E+02  0.16061159054E+03  0.41800000000E+01 0.  1.
         -5    1    3    3    0  502 -0.33301465335E+01 -0.35196497873E+02  0.30621024997E+02  0.46957458517E+02  0.41800000000E+01 0.  1.
        -11    1    1    2    0    0 -0.14871736580E+03 -0.20564064941E+02  0.53613382210E+03  0.55675776677E+03  0.00000000000E+00 0.  1.
         11    1    1    2    0    0  0.62276551601E+01  0.15352118675E+02  0.36109594239E+02  0.39728755741E+02  0.00000000000E+00 0. -1.
</event>
<event>
 7    1  0.2626349E-009  0.8261995E+02  0.7561462E-02  0.1321777E+00
         -4   -1    0    0    0  501 -0.00000000000E+00  0.00000000000E+00  0.97688401415E+02  0.97688401415E+02  0.00000000000E+00 0.  1.
          4   -1    0    0  501    0  0.00000000000E+00 -0.00000000000E+00 -0.17244448953E+03  0.17244448953E+03  0.00000000000E+00 0. -1.
         25    2    1    2    0    0 -0.41152120603E+02  0.39433732148E+02  0.26275072115E+01  0.13748843551E+03  0.12509056657E+03 0.  0.
          5    1    3    3  502    0 -0.23706005130E+02  0.44765817442E+02 -0.56188478900E+02  0.75766553647E+02  0.41800000000E+01 0. -1.
         -5    1    3    3    0  502 -0.17446115473E+02 -0.53320852936E+01  0.58815986112E+02  0.61721881865E+02  0.41800000000E+01 0. -1.
        -11    1    1    2    0    0  0.33588188609E+02  0.17767342778E+02 -0.24586435069E+01  0.38077418654E+02  0.00000000000E+00 0.  1.
         11    1    1    2    0    0  0.75639319942E+01 -0.57201074926E+02 -0.74924951820E+02  0.94567036778E+02  0.00000000000E+00 0. -1.
</event>
<event>
 7    1  0.2626349E-009  0.9482058E+02  0.7561462E-02  0.1291581E+00
          2   -1    0    0  501    0  0.00000000000E+00  0.00000000000E+00  0.76148539762E+02  0.76148539762E+02  0.00000000000E+00 0. -1.
         -2   -1    0    0    0  501 -0.00000000000E+00 -0.00000000000E+00 -0.19509548153E+03  0.19509548153E+03  0.00000000000E+00 0.  1.
         25    2    1    2    0    0  0.29560891248E+02 -0.45041675855E+02 -0.76483452915E+02  0.15620643367E+03  0.12509249575E+03 0.  0.
          5    1    3    3  502    0 -0.60063261717E+01  0.27473026708E+02  0.16579303791E+02  0.32911834722E+02  0.41800000000E+01 0.  1.
         -5    1    3    3    0  502  0.35567217420E+02 -0.72514702564E+02 -0.93062756706E+02  0.12329459894E+03  0.41800000000E+01 0.  1.
        -11    1    1    2    0    0 -0.20333419874E+02  0.59669849392E+02 -0.62361923218E+02  0.88673267435E+02  0.00000000000E+00 0.  1.
         11    1    1    2    0    0 -0.92274713739E+01 -0.14628173537E+02  0.19898434365E+02  0.26364320192E+02  0.00000000000E+00 0. -1.
</event>
<event>
 7    1  0.2626349E-009  0.1399545E+03  0.7561462E-02  0.1213390E+00
          2   -1    0    0  501    0  0.00000000000E+00  0.00000000000E+00  0.87537238945E+02  0.87537238945E+02  0.00000000000E+00 0. -1.
         -2   -1    0    0    0  501 -0.00000000000E+00 -0.00000000000E+00 -0.35069605559E+03  0.35069605559E+03  0.00000000000E+00 0.  1.
         25    2    1    2    0    0  0.12460308943E+03 -0.43997564851E+01 -0.68509352731E+02  0.18944010155E+03  0.12509489563E+03 0.  0.
          5    1    3    3  502    0  0.67985309866E+02 -0.27596449506E+01 -0.10261234372E+03  0.12319246520E+03  0.41800000000E+01 0.  1.
         -5    1    3    3    0  502  0.56617779560E+02 -0.16401115345E+01  0.34102990989E+02  0.66247636355E+02  0.41800000000E+01 0.  1.
        -11    1    1    2    0    0 -0.71022507282E+02  0.48120469364E+02 -0.10890979282E+03  0.13864025060E+03  0.00000000000E+00 0.  1.
         11    1    1    2    0    0 -0.53580582143E+02 -0.43720712879E+02 -0.85739671085E+02  0.11015294238E+03  0.00000000000E+00 0. -1.
</event>
<event>
 7    1  0.2626349E-009  0.2083025E+03  0.7561462E-02  0.1142917E+00
         -2   -1    0    0    0  501 -0.00000000000E+00  0.00000000000E+00  0.47543758804E+02  0.47543758804E+02  0.00000000000E+00 0.  1.
          2   -1    0    0  501    0  0.00000000000E+00 -0.00000000000E+00 -0.11042241814E+04  0.11042241814E+04  0.00000000000E+00 0. -1.
         25    2    1    2    0    0 -0.22478174761E+02  0.19482382405E+03 -0.66627661359E+03  0.70571748245E+03  0.12510415047E+03 0.  0.
          5    1    3    3  502    0 -0.35192826599E+02  0.14546866929E+03 -0.61625588531E+03  0.63418329951E+03  0.41800000000E+01 0.  1.
         -5    1    3    3    0  502  0.12714651838E+02  0.49355154755E+02 -0.50020728275E+02  0.71534182944E+02  0.41800000000E+01 0.  1.
        -11    1    1    2    0    0  0.50986711510E+02 -0.17147286286E+03 -0.32316776417E+03  0.36937784347E+03  0.00000000000E+00 0. -1.
         11    1    1    2    0    0 -0.28508536749E+02 -0.23350961186E+02 -0.67236044858E+02  0.76672614303E+02  0.00000000000E+00 0.  1.
</event>
<event>
 7    1  0.2626349E-009  0.9155907E+02  0.7561462E-02  0.1299119E+00
         -1   -1    0    0    0  501 -0.00000000000E+00  0.00000000000E+00  0.66070910655E+02  0.66070910655E+02  0.00000000000E+00 0.  1.
          1   -1    0    0  501    0  0.00000000000E+00 -0.00000000000E+00 -0.19014777489E+03  0.19014777489E+03  0.00000000000E+00 0. -1.
         25    2    1    2    0    0 -0.22600630316E+01  0.13243258892E+02 -0.45273160629E+02  0.13370608231E+03  0.12508863091E+03 0.  0.
          5    1    3    3  502    0  0.25546039636E+02 -0.41797140470E+02 -0.51967028093E+02  0.71537720829E+02  0.41800000000E+01 0. -1.
         -5    1    3    3    0  502 -0.27806102668E+02  0.55040399362E+02  0.66938674639E+01  0.62168361480E+02  0.41800000000E+01 0. -1.
        -11    1    1    2    0    0 -0.29754324678E+02 -0.24154871434E+02 -0.17524987587E+01  0.38364683017E+02  0.00000000000E+00 0.  1.
         11    1    1    2    0    0  0.32014387710E+02  0.10911612542E+02 -0.77051204851E+02  0.84147920222E+02  0.00000000000E+00 0. -1.
</event>
<event>
 7    1  0.2626349E-009  0.9791707E+02  0.7561462E-02  0.1284738E+00
         -2   -1    0    0    0  501 -0.00000000000E+00  0.00000000000E+00  0.61544985553E+02  0.61544985553E+02  0.00000000000E+00 0.  1.
          2   -1    0    0  501    0  0.00000000000E+00 -0.00000000000E+00 -0.18294922255E+03  0.18294922255E+03  0.00000000000E+00 0. -1.
         25    2    1    2    0    0 -0.15532224432E+02 -0.22967622731E+01 -0.76411752113E+02  0.14742059709E+03  0.12509017336E+03 0.  0.
          5    1    3    3  502    0  0.18834172795E+02  0.47962197637E+02 -0.68593654280E+02  0.85893307507E+02  0.41800000000E+01 0. -1.
         -5    1    3    3    0  502 -0.34366397227E+02 -0.50258959910E+02 -0.78180978334E+01  0.61527289582E+02  0.41800000000E+01 0. -1.
        -11    1    1    2    0    0  0.10613487950E+02 -0.39562500216E+02 -0.96828494555E+01  0.42090321018E+02  0.00000000000E+00 0. -1.
         11    1    1    2    0    0  0.49187364817E+01  0.41859262490E+02 -0.35309635430E+02  0.54983289997E+02  0.00000000000E+00 0.  1.
</event>
<event>
 7    1  0.2626349E-009  0.1116013E+03  0.7561462E-02  0.1257633E+00
          2   -1    0    0  501    0  0.00000000000E+00  0.00000000000E+00  0.21308323223E+03  0.21308323223E+03  0.00000000000E+00 0. -1.
         -2   -1    0    0    0  501 -0.00000000000E+00 -0.00000000000E+00 -0.10524248300E+03  0.10524248300E+03  0.00000000000E+00 0.  1.
         25    2    1    2    0    0  0.62461502130E+02 -0.39855169650E+02  0.13380596625E+03  0.19758324093E+03  0.12508088062E+03 0.  0.
          5    1    3    3  502    0  0.73475027392E+02  0.26108820992E+02  0.65841857178E+02  0.10214143498E+03  0.41800000000E+01 0.  1.
         -5    1    3    3    0  502 -0.11013525262E+02 -0.65963990642E+02  0.67964109070E+02  0.95441805944E+02  0.41800000000E+01 0.  1.
        -11    1    1    2    0    0 -0.56811226749E+02  0.24728896934E+02  0.25351173704E+02  0.66945618500E+02  0.00000000000E+00 0. -1.
         11    1    1    2    0    0 -0.56502753811E+01  0.15126272717E+02 -0.51316390720E+02  0.53796855807E+02  0.00000000000E+00 0.  1.
</event>
<event>
 7    1  0.2626349E-009  0.1458277E+03  0.7561462E-02  0.1205696E+00
          2   -1    0    0  501    0  0.00000000000E+00  0.00000000000E+00  0.77450271625E+03  0.77450271625E+03  0.00000000000E+00 0. -1.
         -2   -1    0    0    0  501 -0.00000000000E+00 -0.00000000000E+00 -0.40999563204E+02  0.40999563204E+02  0.00000000000E+00 0.  1.
         25    2    1    2    0    0 -0.13269609403E+03  0.22067652511E+02  0.46562977065E+03  0.50055389814E+03  0.12509151436E+03 0.  0.
          5    1    3    3  502    0 -0.87417282656E+02  0.41322469276E+02  0.42707847029E+03  0.43790731892E+03  0.41800000000E+01 0. -1.
         -5    1    3    3    0  502 -0.45278811379E+02 -0.19254816765E+02  0.38551300357E+02  0.62646579218E+02  0.41800000000E+01 0. -1.
        -11    1    1    2    0    0  0.59891968461E+01 -0.17727540701E+02  0.13794998673E+00  0.18712434592E+02  0.00000000000E+00 0.  1.
         11    1    1    2    0    0  0.12670689719E+03 -0.43401118109E+01  0.26773543241E+03  0.29623594673E+03  0.00000000000E+00 0. -1.
</event>
<event>
 7    1  0.2626349E-009  0.2240587E+03  0.7561462E-02  0.1130893E+00
         -4   -1    0    0    0  501 -0.00000000000E+00  0.00000000000E+00  0.19510567868E+04  0.19510567868E+04  0.00000000000E+00 0.  1.
          4   -1    0    0  501    0  0.00000000000E+00 -0.00000000000E+00 -0.26062955241E+02  0.26062955241E+02  0.00000000000E+00 0. -1.
         25    2    1    2    0    0  0.84996975135E+02  0.17697972759E+03  0.10618749613E+04  0.10870930320E+04  0.12508603847E+03 0.  0.
          5    1    3    3  502    0  0.35031074416E+02  0.17873651529E+03  0.80403125694E+03  0.82441352039E+03  0.41800000000E+01 0. -1.
         -5    1    3    3    0  502  0.49965900719E+02 -0.17567876991E+01  0.25784370433E+03  0.26267951157E+03  0.41800000000E+01 0. -1.
        -11    1    1    2    0    0 -0.21690041133E+02 -0.14157439522E+03  0.61935353810E+03  0.63569849176E+03  0.00000000000E+00 0. -1.
         11    1    1    2    0    0 -0.63306934002E+02 -0.35405332378E+02  0.24376533217E+03  0.25432821830E+03  0.00000000000E+00 0.  1.
</event>
<event>
 7    1  0.2626349E-009  0.5032773E+02  0.7561462E-02  0.1443582E+00
         -1   -1    0    0    0  501 -0.00000000000E+00  0.00000000000E+00  0.17300953311E+03  0.17300953311E+03  0.00000000000E+00 0.  1.
          1   -1    0    0  501    0  0.00000000000E+00 -0.00000000000E+00 -0.69773292528E+02  0.69773292528E+02  0.00000000000E+00 0. -1.
         25    2    1    2    0    0  0.91745189189E+01  0.15689740232E+02  0.56099704145E+02  0.13829765431E+03  0.12509486255E+03 0.  0.
          5    1    3    3  502    0  0.24712226685E+02  0.60918467669E+01 -0.36014137875E+02  0.44297802108E+02  0.41800000000E+01 0.  1.
         -5    1    3    3    0  502 -0.15537707766E+02  0.95978934656E+01  0.92113842020E+02  0.93999852198E+02  0.41800000000E+01 0.  1.
        -11    1    1    2    0    0 -0.31068394922E+02 -0.14265634754E+02 -0.15926306555E+02  0.37714728402E+02  0.00000000000E+00 0. -1.
         11    1    1    2    0    0  0.21893876003E+02 -0.14241054785E+01  0.63062842990E+02  0.66770442928E+02  0.00000000000E+00 0.  1.
</event>
<event>
 7    1  0.2626349E-009  0.1750672E+03  0.7561462E-02  0.1172664E+00
         -1   -1    0    0    0  501 -0.00000000000E+00  0.00000000000E+00  0.50062189281E+02  0.50062189281E+02  0.00000000000E+00 0.  1.
          1   -1    0    0  501    0  0.00000000000E+00 -0.00000000000E+00 -0.70098053788E+03  0.70098053788E+03  0.00000000000E+00 0. -1.
         25    2    1    2    0    0  0.45701101077E+02  0.14251765930E+03 -0.39168829915E+03  0.43756968914E+03  0.12509050847E+03 0.  0.
          5    1    3    3  502    0 -0.84331414697E+01  0.11737622621E+03 -0.33520872921E+03  0.35528954515E+03  0.41800000000E+01 0.  1.
         -5    1    3    3    0  502  0.54134242547E+02  0.25141433086E+02 -0.56479569934E+02  0.82280143982E+02  0.41800000000E+01 0.  1.
        -11    1    1    2    0    0 -0.71475601542E+02 -0.10319576348E+03 -0.15751840341E+03  0.20142039278E+03  0.00000000000E+00 0.  1.
         11    1    1    2    0    0  0.25774500465E+02 -0.39321895818E+02 -0.10171164604E+03  0.11205264524E+03  0.00000000000E+00 0. -1.
</event>
<event>
 7    1  0.2626349E-009  0.1244477E+03  0.7561462E-02  0.1235935E+00
          2   -1    0    0  501    0  0.00000000000E+00  0.00000000000E+00  0.57237654467E+03  0.57237654467E+03  0.00000000000E+00 0. -1.
         -2   -1    0    0    0  501 -0.00000000000E+00 -0.00000000000E+00 -0.35223244478E+02  0.35223244478E+02  0.00000000000E+00 0.  1.
         25    2    1    2    0    0 -0.82556553062E+02 -0.17885875478E+02  0.40967266486E+03  0.43659754316E+03  0.12510089273E+03 0.  0.
          5    1    3    3  502    0 -0.10248679269E+03 -0.40655932337E+02  0.37242518795E+03  0.38842559201E+03  0.41800000000E+01 0.  1.
         -5    1    3    3    0  502  0.19930239629E+02  0.22770056860E+02  0.37247476916E+02  0.48171951151E+02  0.41800000000E+01 0.  1.
        -11    1    1    2    0    0  0.11977607240E+02  0.33629411044E+02  0.70182576665E+02  0.78740043368E+02  0.00000000000E+00 0. -1.
         11    1    1    2    0    0  0.70578945821E+02 -0.15743535566E+02  0.57298058662E+02  0.92262202617E+02  0.00000000000E+00 0.  1.
</event>
<event>
 7    1  0.2626349E-009  0.2168623E+03  0.7561462E-02  0.1136244E+00
          1   -1    0    0  501    0  0.00000000000E+00  0.00000000000E+00  0.54832092935E+03  0.54832092935E+03  0.00000000000E+00 0. -1.
         -1   -1    0    0    0  501 -0.00000000000E+00 -0.00000000000E+00 -0.92489292303E+02  0.92489292303E+02  0.00000000000E+00 0.  1.
         25    2    1    2    0    0 -0.17941492375E+03 -0.80214110228E+02  0.23181883311E+03  0.32865142567E+03  0.12509104632E+03 0.  0.
          5    1    3    3  502    0 -0.59792517860E+02  0.16858654315E+02  0.12943108574E+03  0.14362881944E+03  0.41800000000E+01 0. -1.
         -5    1    3    3    0  502 -0.11962240589E+03 -0.97072764543E+02  0.10238774736E+03  0.18502260623E+03  0.41800000000E+01 0. -1.
        -11    1    1    2    0    0  0.16800714845E+03  0.99267578802E+02  0.19911490983E+03  0.27879598535E+03  0.00000000000E+00 0. -1.
         11    1    1    2    0    0  0.11407775295E+02 -0.19053468574E+02  0.24897894107E+02  0.33362810626E+02  0.00000000000E+00 0.  1.
</event>
<event>
 7    1  0.2626349E-009  0.1019911E+03  0.7561462E-02  0.1276164E+00
         -3   -1    0    0    0  501 -0.00000000000E+00  0.00000000000E+00  0.52445332696E+02  0.52445332696E+02  0.00000000000E+00 0.  1.
          3   -1    0    0  501    0  0.00000000000E+00 -0.00000000000E+00 -0.27974216579E+03  0.27974216579E+03  0.00000000000E+00 0. -1.
         25    2    1    2    0    0 -0.16066954239E+02  0.24142023163E+02 -0.66604792923E+02  0.14465225886E+03  0.12508834179E+03 0.  0.
          5    1    3    3  502    0  0.45530672877E+02 -0.21931364026E+02 -0.19340263756E+02  0.54272876309E+02  0.41800000000E+01 0. -1.
         -5    1    3    3    0  502 -0.61597627116E+02  0.46073387190E+02 -0.47264529167E+02  0.90379382554E+02  0.41800000000E+01 0. -1.
        -11    1    1    2    0    0 -0.25880494250E+02  0.33297867736E+01 -0.87320730894E+01  0.27516114606E+02  0.00000000000E+00 0.  1.
         11    1    1    2    0    0  0.41947448489E+02 -0.27471809937E+02 -0.15195996708E+03  0.16001912502E+03  0.00000000000E+00 0. -1.
</event>
<event>
 7    1  0.2626349E-009  0.7594477E+02  0.7561462E-02  0.1340970E+00
          2   -1    0    0  501    0  0.00000000000E+00  0.00000000000E+00  0.87781517618E+03  0.87781517618E+03  0.00000000000E+00 0. -1.
         -2   -1    0    0    0  501 -0.00000000000E+00 -0.00000000000E+00 -0.15289511719E+02  0.15289511719E+02  0.00000000000E+00 0.  1.
         25    2    1    2    0    0 -0.22147194068E+02  0.10833621569E+01  0.63117919430E+03  0.64383628054E+03  0.12508520673E+03 0.  0.
          5    1    3    3  502    0 -0.26652518730E+02 -0.23450673440E+02  0.46700993795E+02  0.58811104911E+02  0.41800000000E+01 0. -1.
         -5    1    3    3    0  502  0.45053246623E+01  0.24534035597E+02  0.58447820051E+03  0.58502517563E+03  0.41800000000E+01 0. -1.
        -11    1    1    2    0    0 -0.22859588247E+02  0.28843217518E+02  0.11965317001E+03  0.12518535483E+03  0.00000000000E+00 0. -1.
         11    1    1    2    0    0  0.45006782316E+02 -0.29926579675E+02  0.11169330015E+03  0.12408305253E+03  0.00000000000E+00 0.  1.
</event>
<event>
 7    1  0.2626349E-009  0.1130057E+03  0.7561462E-02  0.1255103E+00
          2   -1    0    0  501    0  0.00000000000E+00  0.00000000000E+00  0.91347815229E+03  0.91347815229E+03  0.00000000000E+00 0. -1.
         -2   -1    0    0    0  501 -0.00000000000E+00 -0.00000000000E+00 -0.24778273373E+02  0.24778273373E+02  0.00000000000E+00 0.  1.
         25    2    1    2    0    0  0.77589107189E+02  0.61671445760E+02  0.43256908713E+03  0.46107290840E+03  0.12509506361E+03 0.  0.
          5    1    3    3  502    0  0.44825128027E+02  0.53583741873E+02  0.77674591659E+02  0.10455297263E+03  0.41800000000E+01 0.  1.
         -5    1    3    3    0  502  0.32763979162E+02  0.80877038871E+01  0.35489449547E+03  0.35651993577E+03  0.41800000000E+01 0.  1.
        -11    1    1    2    0    0 -0.81371381053E+02 -0.24958190635E+02  0.40660716726E+03  0.41541978937E+03  0.00000000000E+00 0. -1.
         11    1    1    2    0    0  0.37822738637E+01 -0.36713255125E+02  0.49523624534E+02  0.61763727903E+02  0.00000000000E+00 0.  1.
</event>
<event>
 7    1  0.2626349E-009  0.8728849E+02  0.7561462E-02  0.1309554E+00
         -1   -1    0    0    0  501 -0.00000000000E+00  0.00000000000E+00  0.20243547432E+03  0.20243547432E+03  0.00000000000E+00 0.  1.
          1   -1    0    0  501    0  0.00000000000E+00 -0.00000000000E+00 -0.79041100537E+02  0.79041100537E+02  0.00000000000E+00 0. -1.
         25    2    1    2    0    0  0.33164822907E+02 -0.56227708752E+02  0.61341619286E+02  0.15385605375E+03  0.12508968906E+03 0.  0.
          5    1    3    3  502    0  0.12586310537E+02 -0.18633219169E+02  0.95932916545E+02  0.98621544027E+02  0.41800000000E+01 0.  1.
         -5    1    3    3    0  502  0.20578512370E+02 -0.37594489582E+02 -0.34591297259E+02  0.55234509723E+02  0.41800000000E+01 0.  1.
        -11    1    1    2    0    0 -0.24099275509E+02  0.79815575116E+02  0.34489274633E+02  0.90226443883E+02  0.00000000000E+00 0. -1.
         11    1    1    2    0    0 -0.90655473984E+01 -0.23587866364E+02  0.27563479866E+02  0.37394077226E+02  0.00000000000E+00 0.  1.
</event>
<event>
 7    1  0.2626349E-009  0.9977994E+02  0.7561462E-02  0.1280759E+00
          1   -1    0    0  501    0  0.00000000000E+00  0.00000000000E+00  0.37135502541E+03  0.37135502541E+03  0.00000000000E+00 0. -1.
         -1   -1    0    0    0  501 -0.00000000000E+00 -0.00000000000E+00 -0.37971083968E+02  0.37971083968E+02  0.00000000000E+00 0.  1.
         25    2    1    2    0    0  0.36828353302E+02 -0.31738073855E+02  0.18092693291E+03  0.22526657901E+03  0.12508734400E+03 0.  0.
          5    1    3    3  502    0 -0.18552345893E+02 -0.37243400856E+02  0.67405882142E+01  0.42357624756E+02  0.41800000000E+01 0.  1.
         -5    1    3    3    0  502  0.55380699195E+02  0.55053270011E+01  0.17418634469E+03  0.18290895425E+03  0.41800000000E+01 0.  1.
        -11    1    1    2    0    0 -0.40529269137E+02 -0.23313224292E+02  0.83990745878E+02  0.96127901656E+02  0.00000000000E+00 0.  1.
         11    1    1    2    0    0  0.37009158347E+01  0.55051298147E+02  0.68466262652E+02  0.87931628708E+02  0.00000000000E+00 0. -1.
</event>
<event>
 7    1  0.2626349E-009  0.1433321E+03  0.7561462E-02  0.1208914E+00
          2   -1    0    0  501    0  0.00000000000E+00  0.00000000000E+00  0.90782111482E+03  0.90782111482E+03  0.00000000000E+00 0. -1.
         -2   -1    0    0    0  501 -0.00000000000E+00 -0.00000000000E+00 -0.36539103733E+02  0.36539103733E+02  0.00000000000E+00 0.  1.
         25    2    1    2    0    0  0.73620551077E+02  0.11606646392E+03  0.33431329681E+03  0.38250264773E+03  0.12510589717E+03 0.  0.
          5    1    3    3  502    0 -0.75084948513E+01  0.27121971581E+02  0.14213788117E+01  0.28486339798E+02  0.41800000000E+01 0.  1.
         -5    1    3    3    0  502  0.81129045929E+02  0.88944492344E+02  0.33289191800E+03  0.35401630793E+03  0.41800000000E+01 0.  1.
        -11    1    1    2    0    0 -0.16826966721E+02 -0.34210624912E+02  0.41022099140E+02  0.56002913172E+02  0.00000000000E+00 0. -1.
         11    1    1    2    0    0 -0.56793584356E+02 -0.81855839012E+02  0.49594661514E+03  0.50585465765E+03  0.00000000000E+00 0.  1.
</event>
<event>
 7    1  0.2626349E-009  0.1319615E+03  0.7561462E-02  0.1224574E+00
         -2   -1    0    0    0  501 -0.00000000000E+00  0.00000000000E+00  0.19140045472E+02  0.19140045472E+02  0.00000000000E+00 0.  1.
          2   -1    0    0  501    0  0.00000000000E+00 -0.00000000000E+00 -0.10879074928E+04  0.10879074928E+04  0.00000000000E+00 0. -1.
         25    2    1    2    0    0 -0.84534520304E+02  0.36633831016E+02 -0.66803838306E+03  0.68586802976E+03  0.12510615617E+03 0.  0.
          5    1    3    3  502    0  0.26944811604E+02  0.33463621533E+02 -0.16041367601E+03  0.16612000689E+03  0.41800000000E+01 0.  1.
         -5    1    3    3    0  502 -0.11147933191E+03  0.31702094828E+01 -0.50762470705E+03  0.51974802287E+03  0.41800000000E+01 0.  1.
        -11    1    1    2    0    0  0.54929598576E+02  0.80874845834E+01 -0.89204524035E+02  0.10507195304E+03  0.00000000000E+00 0.  1.
         11    1    1    2    0    0  0.29604921727E+02 -0.44721315600E+02 -0.31152454024E+03  0.31610755548E+03  0.00000000000E+00 0. -1.
</event>
<event>
 7    1  0.3201601E-009  0.1100555E+03  0.7561462E-02  0.1260467E+00
          1   -1    0    0  501    0  0.00000000000E+00  0.00000000000E+00  0.48210321492E+03  0.48210321492E+03  0.00000000000E+00 0. -1.
         -1   -1    0    0    0  501 -0.00000000000E+00 -0.00000000000E+00 -0.35631159873E+02  0.35631159873E+02  0.00000000000E+00 0.  1.
         25    2    1    2    0    0  0.26658512427E+02 -0.56987401098E+02  0.32255359197E+03  0.35163694996E+03  0.12509790054E+03 0.  0.
          5    1    3    3  502    0  0.44668524214E+02 -0.90726168421E+02  0.24434707063E+03  0.26447963630E+03  0.41800000000E+01 0. -1.
         -5    1    3    3    0  502 -0.18010011787E+02  0.33738767323E+02  0.78206521339E+02  0.87157313663E+02  0.41800000000E+01 0. -1.
        -11    1    1    2    0    0 -0.37951861284E+02  0.22463085938E+02  0.82591431369E+01  0.44868111729E+02  0.00000000000E+00 0.  1.
         11    1    1    2    0    0  0.11293348857E+02  0.34524315160E+02  0.11565931995E+03  0.12122931311E+03  0.00000000000E+00 0. -1.
</event>
<event>
 7    1  0.2626349E-009  0.1459772E+03  0.7561462E-02  0.1205505E+00
         -3   -1    0    0    0  501 -0.00000000000E+00  0.00000000000E+00  0.91530881917E+03  0.91530881917E+03  0.00000000000E+00 0.  1.
          3   -1    0    0  501    0  0.00000000000E+00 -0.00000000000E+00 -0.37634963899E+02  0.37634963899E+02  0.00000000000E+00 0. -1.
         25    2    1    2    0    0 -0.82164959942E+02 -0.11059535125E+03  0.31099232686E+03  0.36241685172E+03  0.12508930684E+03 0.  0.
          5    1    3    3  502    0 -0.53282167696E+02 -0.10489801605E+03  0.11636793385E+03  0.16553414027E+03  0.41800000000E+01 0.  1.
         -5    1    3    3    0  502 -0.28882792246E+02 -0.56973352031E+01  0.19462439301E+03  0.19688271145E+03  0.41800000000E+01 0.  1.
        -11    1    1    2    0    0  0.31493737224E+02  0.78317292990E+02  0.46354256917E+03  0.47116575353E+03  0.00000000000E+00 0.  1.
         11    1    1    2    0    0  0.50671222718E+02  0.32278058259E+02  0.10313895924E+03  0.11936117781E+03  0.00000000000E+00 0. -1.
</event>
<event>
 7    1  0.2626349E-009  0.1089971E+03  0.7561462E-02  0.1262438E+00
          3   -1    0    0  501    0  0.00000000000E+00  0.00000000000E+00  0.16946216885E+02  0.16946216885E+02  0.00000000000E+00 0. -1.
         -3   -1    0    0    0  501 -0.00000000000E+00 -0.00000000000E+00 -0.11837173592E+04  0.11837173592E+04  0.00000000000E+00 0.  1.
         25    2    1    2    0    0 -0.21786683581E+02  0.88704407763E+02 -0.60279120491E+03  0.62237353769E+03  0.12509377346E+03 0.  0.
          5    1    3    3  502    0 -0.23737663933E+02  0.18852016730E+02 -0.48042047702E+03  0.48139399910E+03  0.41800000000E+01 0. -1.
         -5    1    3    3    0  502  0.19509803520E+01  0.69852391033E+02 -0.12237072789E+03  0.14097953859E+03  0.41800000000E+01 0. -1.
        -11    1    1    2    0    0 -0.42384172122E+01 -0.91151529217E+02 -0.51243163435E+03  0.52049279087E+03  0.00000000000E+00 0. -1.
         11    1    1    2    0    0  0.26025100794E+02  0.24471214545E+01 -0.51548303048E+02  0.57797247528E+02  0.00000000000E+00 0.  1.
</event>
<event>
 7    1  0.2626349E-009  0.1329937E+03  0.7561462E-02  0.1223080E+00
          1   -1    0    0  501    0  0.00000000000E+00  0.00000000000E+00  0.79374096926E+03  0.79374096926E+03  0.00000000000E+00 0. -1.
         -1   -1    0    0    0  501 -0.00000000000E+00 -0.00000000000E+00 -0.28059652166E+02  0.28059652166E+02  0.00000000000E+00 0.  1.
         25    2    1    2    0    0  0.83629980360E+02 -0.33779025429E+02  0.56920658462E+03  0.58972688471E+03  0.12508663559E+03 0.  0.
          5    1    3    3  502    0  0.10208264207E+03 -0.58598569695E+02  0.37598289926E+03  0.39399907503E+03  0.41800000000E+01 0. -1.
         -5    1    3    3    0  502 -0.18452661708E+02  0.24819544266E+02  0.19322368536E+03  0.19572780969E+03  0.41800000000E+01 0. -1.
        -11    1    1    2    0    0 -0.12363490412E+02 -0.22844813641E+02  0.80847386747E+02  0.84917850593E+02  0.00000000000E+00 0. -1.
         11    1    1    2    0    0 -0.71266489948E+02  0.56623839070E+02  0.11562734573E+03  0.14715588612E+03  0.00000000000E+00 0.  1.
</event>
<event>
 7    1  0.2626349E-009  0.2256794E+03  0.7561462E-02  0.1129718E+00
         -2   -1    0    0    0  501 -0.00000000000E+00  0.00000000000E+00  0.50337500139E+03  0.50337500139E+03  0.00000000000E+00 0.  1.
          2   -1    0    0  501    0  0.00000000000E+00 -0.00000000000E+00 -0.11601800230E+03  0.11601800230E+03  0.00000000000E+00 0. -1.
         25    2    1    2    0    0 -0.10131288557E+03  0.18590904137E+03  0.25099179609E+03  0.35138614180E+03  0.12509542957E+03 0.  0.
          5    1    3    3  502    0 -0.27882489147E+01  0.69268821050E+02  0.16249594625E+02  0.71326472134E+02  0.41800000000E+01 0.  1.
         -5    1    3    3    0  502 -0.98524636654E+02  0.11664022032E+03  0.23474220146E+03  0.28005966966E+03  0.41800000000E+01 0.  1.
        -11    1    1    2    0    0 -0.13507162828E+02 -0.47236756892E+02  0.16974986112E+02  0.51979849970E+02  0.00000000000E+00 0. -1.
         11    1    1    2    0    0  0.11482004840E+03 -0.13867228447E+03  0.11939021688E+03  0.21602701193E+03  0.00000000000E+00 0.  1.
</event>
<event>
 7    1  0.2626349E-009  0.1140372E+03  0.7561462E-02  0.1253271E+00
          1   -1    0    0  501    0  0.00000000000E+00  0.00000000000E+00  0.77522984088E+03  0.77522984088E+03  0.00000000000E+00 0.  1.
         -1   -1    0    0    0  501 -0.00000000000E+00 -0.00000000000E+00 -0.22890705571E+02  0.22890705571E+02  0.00000000000E+00 0. -1.
         25    2    1    2    0    0 -0.25012953548E+02  0.72278098707E+02  0.45990156124E+03  0.48270826434E+03  0.12509217013E+03 0.  0.
          5    1    3    3  502    0 -0.63528754497E+02  0.19550469195E+02  0.12664571550E+03  0.14308994775E+03  0.41800000000E+01 0.  1.
         -5    1    3    3    0  502  0.38515800949E+02  0.52727629512E+02  0.33325584574E+03  0.33961831658E+03  0.41800000000E+01 0.  1.
        -11    1    1    2    0    0 -0.10178079004E+02 -0.56617949938E+02  0.25602250834E+03  0.26240562175E+03  0.00000000000E+00 0.  1.
         11    1    1    2    0    0  0.35191032552E+02 -0.15660148770E+02  0.36415065727E+02  0.53006660369E+02  0.00000000000E+00 0. -1.
</event>
<event>
 7    1  0.2626349E-009  0.1405634E+03  0.7561462E-02  0.1212573E+00
          2   -1    0    0  501    0  0.00000000000E+00  0.00000000000E+00  0.11411703695E+03  0.11411703695E+03  0.00000000000E+00 0. -1.
         -2   -1    0    0    0  501 -0.00000000000E+00 -0.00000000000E+00 -0.18804904215E+03  0.18804904215E+03  0.00000000000E+00 0.  1.
         25    2    1    2    0    0  0.88493135994E+02 -0.33399789481E+02 -0.13137186986E+02  0.15737341289E+03  0.12508886580E+03 0.  0.
          5    1    3    3  502    0  0.44204166277E+01 -0.62507119791E+02  0.13842253283E+02  0.64309878585E+02  0.41800000000E+01 0.  1.
         -5    1    3    3    0  502  0.84072719366E+02  0.29107330310E+02 -0.26979440269E+02  0.93063534301E+02  0.41800000000E+01 0.  1.
        -11    1    1    2    0    0 -0.69582571477E+02  0.63175891819E+02 -0.32076443177E+02  0.99306725691E+02  0.00000000000E+00 0. -1.
         11    1    1    2    0    0 -0.18910564516E+02 -0.29776102338E+02 -0.28718375033E+02  0.45485940524E+02  0.00000000000E+00 0.  1.
</event>
<event>
 7    1  0.2626349E-009  0.1834300E+03  0.7561462E-02  0.1164524E+00
         -1   -1    0    0    0  501 -0.00000000000E+00  0.00000000000E+00  0.50436853863E+02  0.50436853863E+02  0.00000000000E+00 0.  1.
          1   -1    0    0  501    0  0.00000000000E+00 -0.00000000000E+00 -0.73825931540E+03  0.73825931540E+03  0.00000000000E+00 0. -1.
         25    2    1    2    0    0 -0.93200645100E+01  0.15406137047E+03 -0.43731405308E+03  0.48032733538E+03  0.12509595766E+03 0.  0.
          5    1    3    3  502    0  0.34757915221E+02  0.99260739124E+01 -0.34203864772E+02  0.49940127945E+02  0.41800000000E+01 0.  1.
         -5    1    3    3    0  502 -0.44077979731E+02  0.14413529656E+03 -0.40311018830E+03  0.43038720744E+03  0.41800000000E+01 0.  1.
        -11    1    1    2    0    0 -0.25669692330E+02 -0.44646539060E+01 -0.32242936736E+02  0.41454471510E+02  0.00000000000E+00 0. -1.
         11    1    1    2    0    0  0.34989756840E+02 -0.14959671657E+03 -0.21826547172E+03  0.26691436237E+03  0.00000000000E+00 0.  1.
</event>
<event>
 7    1  0.2626349E-009  0.8055669E+02  0.7561462E-02  0.1327479E+00
          3   -1    0    0  501    0  0.00000000000E+00  0.00000000000E+00  0.46523513247E+02  0.46523513247E+02  0.00000000000E+00 0. -1.
         -3   -1    0    0    0  501 -0.00000000000E+00 -0.00000000000E+00 -0.48468561716E+03  0.48468561716E+03  0.00000000000E+00 0.  1.
         25    2    1    2    0    0 -0.50417159956E+02 -0.27559300733E+01 -0.39705820080E+03  0.41934481238E+03  0.12508146018E+03 0.  0.
          5    1    3    3  502    0 -0.41607039526E+02  0.81541764077E+01 -0.40173112070E+03  0.40398391313E+03  0.41800000000E+01 0. -1.
         -5    1    3    3    0  502 -0.88101204298E+01 -0.10910106481E+02  0.46729198988E+01  0.15360899251E+02  0.41800000000E+01 0. -1.
        -11    1    1    2    0    0 -0.29804319249E+01 -0.37115723995E+02 -0.17749578801E+02  0.41249333204E+02  0.00000000000E+00 0. -1.
         11    1    1    2    0    0  0.53397591881E+02  0.39871654069E+02 -0.23354324307E+02  0.70614984817E+02  0.00000000000E+00 0.  1.
</event>
<event>
 7    1  0.2626349E-009  0.1345903E+03  0.7561462E-02  0.1220799E+00
         -2   -1    0    0    0  501 -0.00000000000E+00  0.00000000000E+00  0.72409185694E+02  0.72409185694E+02  0.00000000000E+00 0.  1.
          2   -1    0    0  501    0  0.00000000000E+00 -0.00000000000E+00 -0.35357510176E+03  0.35357510176E+03  0.00000000000E+00 0. -1.
         25    2    1    2    0    0 -0.10411454956E+03  0.33759400333E+02 -0.93395127575E+02  0.19065202270E+03  0.12508400123E+03 0.  0.
          5    1    3    3  502    0 -0.64296381422E+02 -0.27873139465E+02 -0.93792776163E+02  0.11715585273E+03  0.41800000000E+01 0.  1.
         -5    1    3    3    0  502 -0.39818168143E+02  0.61632539798E+02  0.39764858842E+00  0.73496169972E+02  0.41800000000E+01 0.  1.
        -11    1    1    2    0    0  0.75732533600E+02  0.67363041066E+01 -0.55538826244E+02  0.94156017646E+02  0.00000000000E+00 0.  1.
         11    1    1    2    0    0  0.28382015964E+02 -0.40495704440E+02 -0.13223196225E+03  0.14117624711E+03  0.00000000000E+00 0. -1.
</event>
<event>
 7    1  0.2626349E-009  0.9361581E+02  0.7561462E-02  0.1294324E+00
          3   -1    0    0  501    0  0.00000000000E+00  0.00000000000E+00  0.93720631162E+02  0.93720631162E+02  0.00000000000E+00 0. -1.
         -3   -1    0    0    0  501 -0.00000000000E+00 -0.00000000000E+00 -0.28431861955E+03  0.28431861955E+03  0.00000000000E+00 0.  1.
         25    2    1    2    0    0 -0.62554308996E+02 -0.13873808440E+02 -0.22101793183E+03  0.26192065502E+03  0.12509188302E+03 0.  0.
          5    1    3    3  502    0 -0.75493353567E+02  0.26740626546E+02 -0.75190397644E+02  0.10993350644E+03  0.41800000000E+01 0. -1.
         -5    1    3    3    0  502  0.12939044571E+02 -0.40614434986E+02 -0.14582753419E+03  0.15198714857E+03  0.41800000000E+01 0. -1.
        -11    1    1    2    0    0  0.38893785173E+02  0.66006708603E+01  0.63527908000E+02  0.74780281330E+02  0.00000000000E+00 0. -1.
         11    1    1    2    0    0  0.23660523822E+02  0.72731375792E+01 -0.33107964558E+02  0.41338314370E+02  0.00000000000E+00 0.  1.
</event>
<event>
 7    1  0.2626349E-009  0.1043600E+03  0.7561462E-02  0.1271386E+00
          2   -1    0    0  501    0  0.00000000000E+00  0.00000000000E+00  0.16667223039E+03  0.16667223039E+03  0.00000000000E+00 0. -1.
         -2   -1    0    0    0  501 -0.00000000000E+00 -0.00000000000E+00 -0.86131019962E+02  0.86131019962E+02  0.00000000000E+00 0.  1.
         25    2    1    2    0    0 -0.18665767312E+02 -0.33569663953E+02  0.92368479210E+01  0.13118153948E+03  0.12509174127E+03 0.  0.
          5    1    3    3  502    0 -0.60886406165E+02 -0.82845037638E+01  0.39584002444E+02  0.73213066510E+02  0.41800000000E+01 0. -1.
         -5    1    3    3    0  502  0.42220638853E+02 -0.25285160189E+02 -0.30347154523E+02  0.57968472971E+02  0.41800000000E+01 0. -1.
        -11    1    1    2    0    0 -0.43229080629E+01  0.61451505942E+02  0.37385942345E+02  0.72060278946E+02  0.00000000000E+00 0.  1.
         11    1    1    2    0    0  0.22988675375E+02 -0.27881841989E+02  0.33918420162E+02  0.49561431925E+02  0.00000000000E+00 0. -1.
</event>
<event>
 7    1  0.2708253E-009  0.1339067E+03  0.7561462E-02  0.1221771E+00
          2   -1    0    0  501    0  0.00000000000E+00  0.00000000000E+00  0.36040548535E+03  0.36040548535E+03  0.00000000000E+00 0. -1.
         -2   -1    0    0    0  501 -0.00000000000E+00 -0.00000000000E+00 -0.67198292788E+02  0.67198292788E+02  0.00000000000E+00 0.  1.
         25    2    1    2    0    0  0.63050783519E+02 -0.90871624233E+02  0.14426072407E+03  0.22065449482E+03  0.12507676115E+03 0.  0.
          5    1    3    3  502    0 -0.19836409507E+02 -0.52920930549E+01  0.84963846977E+02  0.87508954308E+02  0.41800000000E+01 0.  1.
         -5    1    3    3    0  502  0.82887193026E+02 -0.85579531178E+02  0.59296877097E+02  0.13314554051E+03  0.41800000000E+01 0.  1.
        -11    1    1    2    0    0 -0.57573201546E+02  0.27081194389E+02  0.26796930426E+02  0.69037237097E+02  0.00000000000E+00 0. -1.
         11    1    1    2    0    0 -0.54775819731E+01  0.63790429845E+02  0.12214953806E+03  0.13791204622E+03  0.00000000000E+00 0.  1.
</event>
<event>
 7    1  0.2626349E-009  0.8165834E+02  0.7561462E-02  0.1324410E+00
         -2   -1    0    0    0  501 -0.00000000000E+00  0.00000000000E+00  0.40546680456E+02  0.40546680456E+02  0.00000000000E+00 0.  1.
          2   -1    0    0  501    0  0.00000000000E+00 -0.00000000000E+00 -0.56396916972E+03  0.56396916972E+03  0.00000000000E+00 0. -1.
         25    2    1    2    0    0 -0.15415909500E+02 -0.12159207868E+02 -0.48562044634E+03  0.50185650170E+03  0.12508890358E+03 0.  0.
          5    1    3    3  502    0  0.19199795327E+01 -0.45721599485E+02 -0.44037843637E+03  0.44276945536E+03  0.41800000000E+01 0.  1.
         -5    1    3    3    0  502 -0.17335889033E+02  0.33562391616E+02 -0.45242009970E+02  0.59087046344E+02  0.41800000000E+01 0.  1.
        -11    1    1    2    0    0  0.43526860275E+02 -0.86569413282E+01 -0.48828974293E+02  0.65983323113E+02  0.00000000000E+00 0. -1.
         11    1    1    2    0    0 -0.28110950775E+02  0.20816149196E+02  0.11026931366E+02  0.36676025360E+02  0.00000000000E+00 0.  1.
</event>
<event>
 7    1  0.2626349E-009  0.1192455E+03  0.7561462E-02  0.1244347E+00
         -2   -1    0    0    0  501 -0.00000000000E+00  0.00000000000E+00  0.37753323561E+02  0.37753323561E+02  0.00000000000E+00 0.  1.
          2   -1    0    0  501    0  0.00000000000E+00 -0.00000000000E+00 -0.47082146918E+03  0.47082146918E+03  0.00000000000E+00 0. -1.
         25    2    1    2    0    0  0.29817536804E+02  0.58126644040E+02 -0.16154733011E+03  0.21450626017E+03  0.12509038147E+03 0.  0.
          5    1    3    3  502    0 -0.17510347578E+02  0.84122108699E+02 -0.11090919366E+03  0.14036190039E+03  0.41800000000E+01 0.  1.
         -5    1    3    3    0  502  0.47327884382E+02 -0.25995464659E+02 -0.50638136452E+02  0.74144359773E+02  0.41800000000E+01 0.  1.
        -11    1    1    2    0    0  0.85027463288E+01 -0.59359501186E+02 -0.87368922825E+02  0.10596780526E+03  0.00000000000E+00 0.  1.
         11    1    1    2    0    0 -0.38320283133E+02  0.12328571463E+01 -0.18415189269E+03  0.18810072732E+03  0.00000000000E+00 0. -1.
</event>
<event>
 7    1  0.2626349E-009  0.7529728E+02  0.7561462E-02  0.1342953E+00
         -2   -1    0    0    0  501 -0.00000000000E+00  0.00000000000E+00  0.54543779728E+03  0.54543779728E+03  0.00000000000E+00 0.  1.
          2   -1    0    0  501    0  0.00000000000E+00 -0.00000000000E+00 -0.23748323175E+02  0.23748323175E+02  0.00000000000E+00 0. -1.
         25    2    1    2    0    0  0.21634244832E+02  0.15277892797E+02  0.35224380288E+03  0.37473405616E+03  0.12509381126E+03 0.  0.
          5    1    3    3  502    0  0.96575589842E+00  0.39422982645E+02  0.33684365709E+03  0.33916990723E+03  0.41800000000E+01 0. -1.
         -5    1    3    3    0  502  0.20668488933E+02 -0.24145089848E+02  0.15400145790E+02  0.35564148927E+02  0.41800000000E+01 0. -1.
        -11    1    1    2    0    0 -0.44719795255E+02 -0.27762636880E+02  0.15664382696E+03  0.16525105936E+03  0.00000000000E+00 0.  1.
         11    1    1    2    0    0  0.23085550423E+02  0.12484744084E+02  0.12801844262E+02  0.29201004943E+02  0.00000000000E+00 0. -1.
</event>
<event>
 7    1  0.2626349E-009  0.1477159E+03  0.7561462E-02  0.1203308E+00
          2   -1    0    0  501    0  0.00000000000E+00  0.00000000000E+00  0.51699060494E+03  0.51699060494E+03  0.00000000000E+00 0. -1.
         -2   -1    0    0    0  501 -0.00000000000E+00 -0.00000000000E+00 -0.84048076649E+02  0.84048076649E+02  0.00000000000E+00 0.  1.
         25    2    1    2    0    0  0.10161809056E+03  0.77727914017E+02  0.47257950705E+02  0.18505862906E+03  0.12508204243E+03 0.  0.
          5    1    3    3  502    0  0.48159911843E+02  0.77443710039E+02 -0.25396170731E+02  0.94759396479E+02  0.41800000000E+01 0. -1.
         -5    1    3    3    0  502  0.53458178715E+02  0.28420397801E+00  0.72654121436E+02  0.90299232583E+02  0.41800000000E+01 0. -1.
        -11    1    1    2    0    0 -0.24931727871E+01  0.14745467008E+02  0.82840001297E+02  0.84179038500E+02  0.00000000000E+00 0. -1.
         11    1    1    2    0    0 -0.99124917771E+02 -0.92473381025E+02  0.30284457629E+03  0.33180101403E+03  0.00000000000E+00 0.  1.
</event>
<event>
 7    1  0.2626349E-009  0.3993728E+03  0.7561462E-02  0.1043997E+00
         -2   -1    0    0    0  501 -0.00000000000E+00  0.00000000000E+00  0.14362852006E+03  0.14362852006E+03  0.00000000000E+00 0.  1.
          2   -1    0    0  501    0  0.00000000000E+00 -0.00000000000E+00 -0.11685519537E+04  0.11685519537E+04  0.00000000000E+00 0. -1.
         25    2    1    2    0    0 -0.33437785743E+03  0.20205944266E+03 -0.42632468433E+03  0.59163678891E+03  0.12507910943E+03 0.  0.
          5    1    3    3  502    0 -0.33557862901E+03  0.20634506223E+03 -0.38842163976E+03  0.55324510263E+03  0.41800000000E+01 0.  1.
         -5    1    3    3    0  502  0.12007715782E+01 -0.42856195668E+01 -0.37903044577E+02  0.38391686283E+02  0.41800000000E+01 0.  1.
        -11    1    1    2    0    0  0.17726678562E+03 -0.60819385822E+02 -0.24229980731E+03  0.30631961674E+03  0.00000000000E+00 0.  1.
         11    1    1    2    0    0  0.15711107181E+03 -0.14124005684E+03 -0.35629894198E+03  0.41422406811E+03  0.00000000000E+00 0. -1.
</event>
<event>
 7    1  0.2626349E-009  0.1035264E+03  0.7561462E-02  0.1273050E+00
         -1   -1    0    0    0  501 -0.00000000000E+00  0.00000000000E+00  0.18137845587E+03  0.18137845587E+03  0.00000000000E+00 0.  1.
          1   -1    0    0  501    0  0.00000000000E+00 -0.00000000000E+00 -0.27092664161E+03  0.27092664161E+03  0.00000000000E+00 0. -1.
         25    2    1    2    0    0  0.49679928205E+02 -0.58069601699E+02 -0.22717617971E+03  0.27036890925E+03  0.12510058574E+03 0.  0.
          5    1    3    3  502    0  0.51794738758E+02 -0.62732006773E+02 -0.24135212227E+03  0.25472793126E+03  0.41800000000E+01 0.  1.
         -5    1    3    3    0  502 -0.21148105528E+01  0.46624050739E+01  0.14175942566E+02  0.15640977987E+02  0.41800000000E+01 0.  1.
        -11    1    1    2    0    0  0.16698316225E+02  0.49274116986E+02  0.61214259857E+02  0.80336529545E+02  0.00000000000E+00 0. -1.
         11    1    1    2    0    0 -0.66378244430E+02  0.87954847127E+01  0.76413734115E+02  0.10159965869E+03  0.00000000000E+00 0.  1.
</event>
<event>
 7    1  0.2626349E-009  0.1033220E+03  0.7561462E-02  0.1273461E+00
          1   -1    0    0  501    0  0.00000000000E+00  0.00000000000E+00  0.23682877212E+03  0.23682877212E+03  0.00000000000E+00 0. -1.
         -1   -1    0    0    0  501 -0.00000000000E+00 -0.00000000000E+00 -0.75977184872E+02  0.75977184872E+02  0.00000000000E+00 0.  1.
         25    2    1    2    0    0 -0.45048522291E+01 -0.61207099593E+02  0.14858183451E+03  0.20369083642E+03  0.12508713986E+03 0.  0.
          5    1    3    3  502    0 -0.25936393380E+02  0.32990409968E+02  0.52960131068E+02  0.67700159041E+02  0.41800000000E+01 0. -1.
         -5    1    3    3    0  502  0.21431541151E+02 -0.94197509561E+02  0.95621703443E+02  0.13599067737E+03  0.41800000000E+01 0. -1.
        -11    1    1    2    0    0  0.14747213048E+02  0.17501003569E+02 -0.36341493446E+02  0.42947288209E+02  0.00000000000E+00 0.  1.
         11    1    1    2    0    0 -0.10242360819E+02  0.43706096025E+02  0.48611246186E+02  0.66167832371E+02  0.00000000000E+00 0. -1.
</event>
<event>
 7    1  0.2626349E-009  0.1016584E+03  0.7561462E-02  0.1276847E+00
         -1   -1    0    0    0  501 -0.00000000000E+00  0.00000000000E+00  0.47478710549E+03  0.47478710549E+03  0.00000000000E+00 0.  1.
          1   -1    0    0  501    0  0.00000000000E+00 -0.00000000000E+00 -0.33135717656E+02  0.33135717656E+02  0.00000000000E+00 0. -1.
         25    2    1    2    0    0 -0.37310723474E+02 -0.49005996858E+02  0.25176401265E+03  0.28779792153E+03  0.12509535465E+03 0.  0.
          5    1    3    3  502    0  0.21804563296E+02 -0.19732840857E+02  0.20423895361E+03  0.20638761242E+03  0.41800000000E+01 0.  1.
         -5    1    3    3    0  502 -0.59115286770E+02 -0.29273156002E+02  0.47525059038E+02  0.81410309106E+02  0.41800000000E+01 0.  1.
        -11    1    1    2    0    0 -0.23206296439E+02 -0.78312556340E+01  0.71098474306E+02  0.75198762010E+02  0.00000000000E+00 0.  1.
         11    1    1    2    0    0  0.60517019912E+02  0.56837252492E+02  0.11878890088E+03  0.14492613961E+03  0.00000000000E+00 0. -1.
</event>
<event>
 7    1  0.2626349E-009  0.1260198E+03  0.7561462E-02  0.1233484E+00
         -2   -1    0    0    0  501 -0.00000000000E+00  0.00000000000E+00  0.13268642739E+02  0.13268642739E+02  0.00000000000E+00 0. -1.
          2   -1    0    0  501    0  0.00000000000E+00 -0.00000000000E+00 -0.15871791409E+04  0.15871791409E+04  0.00000000000E+00 0.  1.
         25    2    1    2    0    0  0.16400860023E+02  0.80189858461E+02 -0.11270006313E+04  0.11368717911E+04  0.12509054675E+03 0.  0.
          5    1    3    3  502    0 -0.44204079737E+02  0.25571570818E+02 -0.71600412624E+03  0.71783513922E+03  0.41800000000E+01 0. -1.
         -5    1    3    3    0  502  0.60604939760E+02  0.54618287643E+02 -0.41099650505E+03  0.41903665190E+03  0.41800000000E+01 0. -1.
        -11    1    1    2    0    0 -0.46725966355E+02 -0.74968275562E+02 -0.37669606620E+03  0.38691534547E+03  0.00000000000E+00 0.  1.
         11    1    1    2    0    0  0.30325106332E+02 -0.52215828983E+01 -0.70213800663E+02  0.76660647046E+02  0.00000000000E+00 0. -1.
</event>
<event>
 7    1  0.2626349E-009  0.1189971E+03  0.7561462E-02  0.1244761E+00
          1   -1    0    0  501    0  0.00000000000E+00  0.00000000000E+00  0.19335432167E+03  0.19335432167E+03  0.00000000000E+00 0. -1.
         -1   -1    0    0    0  501 -0.00000000000E+00 -0.00000000000E+00 -0.10959658509E+03  0.10959658509E+03  0.00000000000E+00 0.  1.
         25    2    1    2    0    0  0.74091145683E+02  0.50060709046E+02  0.74641607161E+02  0.17092141507E+03  0.12508872112E+03 0.  0.
          5    1    3    3  502    0  0.10317566382E+03  0.52285928540E+02  0.33834944200E+02  0.12058736160E+03  0.41800000000E+01 0. -1.
         -5    1    3    3    0  502 -0.29084518138E+02 -0.22252194941E+01  0.40806662961E+02  0.50334053474E+02  0.41800000000E+01 0. -1.
        -11    1    1    2    0    0 -0.43900709746E+02 -0.43673787932E+02 -0.40218320989E+02  0.73838915294E+02  0.00000000000E+00 0.  1.
         11    1    1    2    0    0 -0.30190435937E+02 -0.63869211141E+01  0.49334450409E+02  0.58190576389E+02  0.00000000000E+00 0. -1.
</event>
<event>
 7    1  0.2626349E-009  0.1171777E+03  0.7561462E-02  0.1247827E+00
          1   -1    0    0  501    0  0.00000000000E+00  0.00000000000E+00  0.84723620465E+03  0.84723620465E+03  0.00000000000E+00 0.  1.
         -1   -1    0    0    0  501 -0.00000000000E+00 -0.00000000000E+00 -0.30226506794E+02  0.30226506794E+02  0.00000000000E+00 0. -1.
         25    2    1    2    0    0  0.94855297228E+01  0.88532713679E+02  0.22705329142E+03  0.27409839302E+03  0.12509482500E+03 0.  0.
          5    1    3    3  502    0  0.26794030808E+02  0.12426007562E+02 -0.40796365526E+01  0.30107168337E+02  0.41800000000E+01 0.  1.
         -5    1    3    3    0  502 -0.17308501086E+02  0.76106706117E+02  0.23113292798E+03  0.24399122468E+03  0.41800000000E+01 0.  1.
        -11    1    1    2    0    0  0.40221289622E+02 -0.35065221955E+02  0.26255960142E+03  0.26792697928E+03  0.00000000000E+00 0.  1.
         11    1    1    2    0    0 -0.49706819345E+02 -0.53467491724E+02  0.32739680502E+03  0.33543733915E+03  0.00000000000E+00 0. -1.
</event>
<event>
 7    1  0.2626349E-009  0.1007680E+03  0.7561462E-02  0.1278689E+00
         -1   -1    0    0    0  501 -0.00000000000E+00  0.00000000000E+00  0.25656204117E+02  0.25656204117E+02  0.00000000000E+00 0.  1.
          1   -1    0    0  501    0  0.00000000000E+00 -0.00000000000E+00 -0.62127445308E+03  0.62127445308E+03  0.00000000000E+00 0. -1.
         25    2    1    2    0    0 -0.34167581134E+02  0.43221810548E+02 -0.24358657348E+03  0.27931924382E+03  0.12509705306E+03 0.  0.
          5    1    3    3  502    0 -0.91520468713E+01  0.62871508607E+02 -0.44540511050E+02  0.77704028731E+02  0.41800000000E+01 0. -1.
         -5    1    3    3    0  502 -0.25015534263E+02 -0.19649698059E+02 -0.19904606243E+03  0.20161521509E+03  0.41800000000E+01 0. -1.
        -11    1    1    2    0    0 -0.51106724532E+01 -0.62024054165E+02 -0.19898764492E+03  0.20849264999E+03  0.00000000000E+00 0.  1.
         11    1    1    2    0    0  0.39278253587E+02  0.18802243617E+02 -0.15304403056E+03  0.15911876338E+03  0.00000000000E+00 0. -1.
</event>
<event>
 7    1  0.2626349E-009  0.1322170E+03  0.7561462E-02  0.1224203E+00
          2   -1    0    0  501    0  0.00000000000E+00  0.00000000000E+00  0.23651823131E+03  0.23651823131E+03  0.00000000000E+00 0. -1.
         -2   -1    0    0    0  501 -0.00000000000E+00 -0.00000000000E+00 -0.90468795539E+02  0.90468795539E+02  0.00000000000E+00 0.  1.
         25    2    1    2    0    0  0.58543215003E+02  0.48616048233E+02  0.14745501057E+03  0.20780139969E+03  0.12509042092E+03 0.  0.
          5    1    3    3  502    0  0.32861011794E+02  0.90610869555E+02  0.88901525073E+02  0.13119119383E+03  0.41800000000E+01 0. -1.
         -5    1    3    3    0  502  0.25682203209E+02 -0.41994821322E+02  0.58553485493E+02  0.76610205866E+02  0.41800000000E+01 0. -1.
        -11    1    1    2    0    0 -0.21628725304E+02 -0.71784794655E+02 -0.67529243092E+01  0.75275895801E+02  0.00000000000E+00 0. -1.
         11    1    1    2    0    0 -0.36914489700E+02  0.23168746421E+02  0.53473495109E+01  0.43909731351E+02  0.00000000000E+00 0.  1.
</event>
<event>
 7    1  0.2626349E-009  0.1405667E+03  0.7561462E-02  0.1212568E+00
          1   -1    0    0  501    0  0.00000000000E+00  0.00000000000E+00  0.38965452179E+03  0.38965452179E+03  0.00000000000E+00 0. -1.
         -1   -1    0    0    0  501 -0.00000000000E+00 -0.00000000000E+00 -0.52471697067E+02  0.52471697067E+02  0.00000000000E+00 0.  1.
         25    2    1    2    0    0 -0.65383016229E+02  0.64075887748E+02  0.18495977878E+03  0.24132731517E+03  0.12509234619E+03 0.  0.
          5    1    3    3  502    0 -0.63068391757E+02  0.10010275740E+03  0.13516608417E+03  0.17968173749E+03  0.41800000000E+01 0. -1.
         -5    1    3    3    0  502 -0.23146244718E+01 -0.36026869654E+02  0.49793694616E+02  0.61645577677E+02  0.41800000000E+01 0. -1.
        -11    1    1    2    0    0  0.15883749742E+01  0.20446504534E+02  0.48094479588E+02  0.52284428366E+02  0.00000000000E+00 0. -1.
         11    1    1    2    0    0  0.63794641254E+02 -0.84522392282E+02  0.10412856635E+03  0.14851447532E+03  0.00000000000E+00 0.  1.
</event>
<event>
 7    1  0.2626349E-009  0.9010567E+02  0.7561462E-02  0.1302596E+00
         -2   -1    0    0    0  501 -0.00000000000E+00  0.00000000000E+00  0.32847447184E+03  0.32847447184E+03  0.00000000000E+00 0.  1.
          2   -1    0    0  501    0  0.00000000000E+00 -0.00000000000E+00 -0.54442430771E+02  0.54442430771E+02  0.00000000000E+00 0. -1.
         25    2    1    2    0    0  0.13901984958E+02 -0.75418957198E+02  0.12761639968E+03  0.19445987670E+03  0.12508962343E+03 0.  0.
          5    1    3    3  502    0 -0.95569070987E+01  0.13096233787E+01 -0.22141947548E+02  0.24510973622E+02  0.41800000000E+01 0. -1.
         -5    1    3    3    0  502  0.23458892057E+02 -0.76728580577E+02  0.14975834723E+03  0.16994890308E+03  0.41800000000E+01 0. -1.
        -11    1    1    2    0    0 -0.30300568500E+02  0.57958965535E+02  0.15055665707E+03  0.16414832660E+03  0.00000000000E+00 0.  1.
         11    1    1    2    0    0  0.16398583542E+02  0.17459991663E+02 -0.41410156844E+01  0.24308699306E+02  0.00000000000E+00 0. -1.
</event>
<event>
 7    1  0.2626349E-009  0.5509630E+02  0.7561462E-02  0.1419644E+00
         -1   -1    0    0    0  501 -0.00000000000E+00  0.00000000000E+00  0.11264312810E+03  0.11264312810E+03  0.00000000000E+00 0.  1.
          1   -1    0    0  501    0  0.00000000000E+00 -0.00000000000E+00 -0.11000589387E+03  0.11000589387E+03  0.00000000000E+00 0. -1.
         25    2    1    2    0    0 -0.74846530362E+01  0.10891474811E+02  0.23847757863E+02  0.12802830253E+03  0.12509151226E+03 0.  0.
          5    1    3    3  502    0  0.23295007878E+01 -0.70280036992E+01 -0.50294953202E+02  0.51008569158E+02  0.41800000000E+01 0.  1.
         -5    1    3    3    0  502 -0.98141538240E+01  0.17919478510E+02  0.74142711065E+02  0.77019733377E+02  0.41800000000E+01 0.  1.
        -11    1    1    2    0    0 -0.35998872163E+02  0.42084489663E-01  0.12945594505E+02  0.38255835963E+02  0.00000000000E+00 0.  1.
         11    1    1    2    0    0  0.43483525199E+02 -0.10933559300E+02 -0.34156118138E+02  0.56364883473E+02  0.00000000000E+00 0. -1.
</event>
<event>
 7    1  0.2626349E-009  0.1129989E+03  0.7561462E-02  0.1255115E+00
         -1   -1    0    0    0  501 -0.00000000000E+00  0.00000000000E+00  0.76796002857E+02  0.76796002857E+02  0.00000000000E+00 0.  1.
          1   -1    0    0  501    0  0.00000000000E+00 -0.00000000000E+00 -0.26667185076E+03  0.26667185076E+03  0.00000000000E+00 0. -1.
         25    2    1    2    0    0  0.52076990252E+02 -0.72520461519E+02 -0.13546590491E+03  0.20486843388E+03  0.12509529790E+03 0.  0.
          5    1    3    3  502    0  0.70977405877E+02 -0.56155949321E+02 -0.15030242891E+03  0.17549807784E+03  0.41800000000E+01 0.  1.
         -5    1    3    3    0  502 -0.18900415625E+02 -0.16364512199E+02  0.14836523992E+02  0.29370356049E+02  0.41800000000E+01 0.  1.
        -11    1    1    2    0    0  0.82948878415E+01 -0.65470684629E+01  0.14238562034E+02  0.17731495102E+02  0.00000000000E+00 0.  1.
         11    1    1    2    0    0 -0.60371878094E+02  0.79067529982E+02 -0.68648505018E+02  0.12086792463E+03  0.00000000000E+00 0. -1.
</event>
<event>
 7    1  0.2626349E-009  0.1036785E+03  0.7561462E-02  0.1272745E+00
          1   -1    0    0  501    0  0.00000000000E+00  0.00000000000E+00  0.78418303857E+02  0.78418303857E+02  0.00000000000E+00 0. -1.
         -1   -1    0    0    0  501 -0.00000000000E+00 -0.00000000000E+00 -0.28333643734E+03  0.28333643734E+03  0.00000000000E+00 0.  1.
         25    2    1    2    0    0  0.48347523860E+02 -0.30446681012E+02 -0.21375127174E+03  0.25416071198E+03  0.12507428950E+03 0.  0.
          5    1    3    3  502    0 -0.26323385645E+02 -0.12328384022E+01 -0.14799065722E+03  0.15037668552E+03  0.41800000000E+01 0.  1.
         -5    1    3    3    0  502  0.74670909505E+02 -0.29213842610E+02 -0.65760614521E+02  0.10378402646E+03  0.41800000000E+01 0.  1.
        -11    1    1    2    0    0 -0.50778268634E+02  0.55493678965E+02  0.23074311571E+02  0.78679125726E+02  0.00000000000E+00 0.  1.
         11    1    1    2    0    0  0.24307447743E+01 -0.25046997953E+02 -0.14241173308E+02  0.28914903490E+02  0.00000000000E+00 0. -1.
</event>
<event>
 7    1  0.2626349E-009  0.9642445E+02  0.7561462E-02  0.1288000E+00
          1   -1    0    0  501    0  0.00000000000E+00  0.00000000000E+00  0.60545790626E+03  0.60545790626E+03  0.00000000000E+00 0. -1.
         -1   -1    0    0    0  501 -0.00000000000E+00 -0.00000000000E+00 -0.26216584059E+02  0.26216584059E+02  0.00000000000E+00 0.  1.
         25    2    1    2    0    0 -0.31516524584E+02  0.32790984348E+02  0.21680818747E+03  0.25440450588E+03  0.12508925805E+03 0.  0.
          5    1    3    3  502    0 -0.55335036185E+02  0.67587365245E+01  0.21115076153E+03  0.21842564695E+03  0.41800000000E+01 0. -1.
         -5    1    3    3    0  502  0.23818511601E+02  0.26032247823E+02  0.56574259392E+01  0.35978858929E+02  0.41800000000E+01 0. -1.
        -11    1    1    2    0    0  0.48124044076E+02  0.15331539798E+02  0.13325166410E+03  0.14250258144E+03  0.00000000000E+00 0.  1.
         11    1    1    2    0    0 -0.16607519492E+02 -0.48122524146E+02  0.22918147063E+03  0.23476740301E+03  0.00000000000E+00 0. -1.
</event>
<event>
 7    1  0.2626349E-009  0.1034458E+03  0.7561462E-02  0.1273212E+00
          1   -1    0    0  501    0  0.00000000000E+00  0.00000000000E+00  0.29567113191E+03  0.29567113191E+03  0.00000000000E+00 0. -1.
         -1   -1    0    0    0  501 -0.00000000000E+00 -0.00000000000E+00 -0.52271683689E+02  0.52271683689E+02  0.00000000000E+00 0.  1.
         25    2    1    2    0    0 -0.13208209947E+02  0.57202416692E+02  0.11089176283E+03  0.17717726914E+03  0.12509287889E+03 0.  0.
          5    1    3    3  502    0  0.18558081967E+02  0.86723116323E+02  0.96887598700E+02  0.13141529779E+03  0.41800000000E+01 0. -1.
         -5    1    3    3    0  502 -0.31766291915E+02 -0.29520699631E+02  0.14004164127E+02  0.45761971347E+02  0.41800000000E+01 0. -1.
        -11    1    1    2    0    0 -0.16703630887E+02 -0.28790899239E+02  0.13940025987E+01  0.33314717574E+02  0.00000000000E+00 0.  1.
         11    1    1    2    0    0  0.29911840834E+02 -0.28411517453E+02  0.13111368279E+03  0.13745082889E+03  0.00000000000E+00 0. -1.
</event>
<event>
 7    1  0.2626349E-009  0.8111113E+02  0.7561462E-02  0.1325927E+00
         -2   -1    0    0    0  501 -0.00000000000E+00  0.00000000000E+00  0.15238688929E+03  0.15238688929E+03  0.00000000000E+00 0.  1.
          2   -1    0    0  501    0  0.00000000000E+00 -0.00000000000E+00 -0.10752488483E+03  0.10752488483E+03  0.00000000000E+00 0. -1.
         25    2    1    2    0    0 -0.12717814771E+00 -0.65069798143E+01 -0.46265078592E+02  0.13352984324E+03  0.12508958621E+03 0.  0.
          5    1    3    3  502    0  0.31461838743E+02 -0.24430609988E+02 -0.76327345208E+02  0.86197668345E+02  0.41800000000E+01 0. -1.
         -5    1    3    3    0  502 -0.31589016890E+02  0.17923630174E+02  0.30062266616E+02  0.47332174900E+02  0.41800000000E+01 0. -1.
        -11    1    1    2    0    0  0.36753615049E+02 -0.18612737382E+02  0.57206873325E+02  0.70497436603E+02  0.00000000000E+00 0.  1.
         11    1    1    2    0    0 -0.36626436901E+02  0.25119717196E+02  0.33920209725E+02  0.55884494270E+02  0.00000000000E+00 0. -1.
</event>
<event>
 7    1  0.2626349E-009  0.7994157E+02  0.7561462E-02  0.1329217E+00
         -4   -1    0    0    0  501 -0.00000000000E+00  0.00000000000E+00  0.89154343013E+02  0.89154343013E+02  0.00000000000E+00 0.  1.
          4   -1    0    0  501    0  0.00000000000E+00 -0.00000000000E+00 -0.20840934150E+03  0.20840934150E+03  0.00000000000E+00 0. -1.
         25    2    1    2    0    0  0.68578412630E-01 -0.17992239823E+02  0.22512309716E+02  0.12836828216E+03  0.12509151202E+03 0.  0.
          5    1    3    3  502    0  0.35347103111E+01  0.32376781840E+02 -0.37491538576E+02  0.49838118384E+02  0.41800000000E+01 0.  1.
         -5    1    3    3    0  502 -0.34661318985E+01 -0.50369021662E+02  0.60003848292E+02  0.78530163781E+02  0.41800000000E+01 0.  1.
        -11    1    1    2    0    0 -0.12102097838E+01 -0.29177410615E+02 -0.12831050832E+02  0.31897049446E+02  0.00000000000E+00 0.  1.
         11    1    1    2    0    0  0.11416313712E+01  0.47169650438E+02 -0.12893625737E+03  0.13729835290E+03  0.00000000000E+00 0. -1.
</event>
<event>
 7    1  0.2626349E-009  0.9562351E+02  0.7561462E-02  0.1289778E+00
         -2   -1    0    0    0  501 -0.00000000000E+00  0.00000000000E+00  0.46737525757E+02  0.46737525757E+02  0.00000000000E+00 0.  1.
          2   -1    0    0  501    0  0.00000000000E+00 -0.00000000000E+00 -0.35419192968E+03  0.35419192968E+03  0.00000000000E+00 0. -1.
         25    2    1    2    0    0  0.94347792081E+01  0.59221154559E+02 -0.22779056335E+03  0.26670629964E+03  0.12509016474E+03 0.  0.
          5    1    3    3  502    0  0.23826061220E+02  0.87459480048E+02 -0.10024772202E+03  0.13521804618E+03  0.41800000000E+01 0.  1.
         -5    1    3    3    0  502 -0.14391282012E+02 -0.28238325489E+02 -0.12754284133E+03  0.13148825346E+03  0.41800000000E+01 0.  1.
        -11    1    1    2    0    0 -0.19682270596E+02 -0.20249043703E+02 -0.88562434409E+02  0.92955475014E+02  0.00000000000E+00 0. -1.
         11    1    1    2    0    0  0.10247491388E+02 -0.38972110857E+02  0.88985938337E+01  0.41267680776E+02  0.00000000000E+00 0.  1.
</event>
<event>
 7    1  0.2626349E-009  0.1571899E+03  0.7561462E-02  0.1191906E+00
         -1   -1    0    0    0  501 -0.00000000000E+00  0.00000000000E+00  0.21076477504E+02  0.21076477504E+02  0.00000000000E+00 0.  1.
          1   -1    0    0  501    0  0.00000000000E+00 -0.00000000000E+00 -0.13701868479E+04  0.13701868479E+04  0.00000000000E+00 0. -1.
         25    2    1    2    0    0 -0.12600538885E+03 -0.55848356506E+02 -0.79154301472E+03  0.81313216343E+03  0.12508866503E+03 0.  0.
          5    1    3    3  502    0 -0.71033325654E+02 -0.84849608764E+02 -0.34687820026E+03  0.36412518133E+03  0.41800000000E+01 0. -1.
         -5    1    3    3    0  502 -0.54972063194E+02  0.29001252258E+02 -0.44466481446E+03  0.44900698211E+03  0.41800000000E+01 0. -1.
        -11    1    1    2    0    0  0.55165870056E+02  0.77106241223E+01 -0.33600780312E+03  0.34059355646E+03  0.00000000000E+00 0. -1.
         11    1    1    2    0    0  0.70839518792E+02  0.48137732384E+02 -0.22155955256E+03  0.23753760551E+03  0.00000000000E+00 0.  1.
</event>
<event>
 7    1  0.2626349E-009  0.1527052E+03  0.7561462E-02  0.1197188E+00
         -2   -1    0    0    0  501 -0.00000000000E+00  0.00000000000E+00  0.13666452463E+03  0.13666452463E+03  0.00000000000E+00 0.  1.
          2   -1    0    0  501    0  0.00000000000E+00 -0.00000000000E+00 -0.51821902582E+03  0.51821902582E+03  0.00000000000E+00 0. -1.
         25    2    1    2    0    0  0.12916066487E+03 -0.65023625073E+02 -0.43518519519E+03  0.47533580609E+03  0.12508966894E+03 0.  0.
          5    1    3    3  502    0  0.16228117461E+02  0.14869246693E+02 -0.20879385740E+03  0.20999236553E+03  0.41800000000E+01 0.  1.
         -5    1    3    3    0  502  0.11293254740E+03 -0.79892871766E+02 -0.22639133779E+03  0.26534344056E+03  0.41800000000E+01 0.  1.
        -11    1    1    2    0    0 -0.84939512085E+02  0.43315641059E+02  0.79286465361E+02  0.12400527837E+03  0.00000000000E+00 0.  1.
         11    1    1    2    0    0 -0.44221152780E+02  0.21707984014E+02 -0.25655771361E+02  0.55542465982E+02  0.00000000000E+00 0. -1.
</event>
<event>
 7    1  0.2626349E-009  0.1131556E+03  0.7561462E-02  0.1254835E+00
          1   -1    0    0  501    0  0.00000000000E+00  0.00000000000E+00  0.15214952102E+03  0.15214952102E+03  0.00000000000E+00 0. -1.
         -1   -1    0    0    0  501 -0.00000000000E+00 -0.00000000000E+00 -0.86851111531E+02  0.86851111531E+02  0.00000000000E+00 0.  1.
         25    2    1    2    0    0 -0.31661345896E+02  0.22119225734E+02  0.19158297910E+02  0.13232094176E+03  0.12510032086E+03 0.  0.
          5    1    3    3  502    0 -0.72648515824E+02 -0.15850833154E+02  0.56599736009E+01  0.74689781525E+02  0.41800000000E+01 0.  1.
         -5    1    3    3    0  502  0.40987169929E+02  0.37970058888E+02  0.13498324309E+02  0.57631160233E+02  0.41800000000E+01 0.  1.
        -11    1    1    2    0    0 -0.23437056563E+02 -0.32168363041E+02  0.14545031852E+02  0.42375195016E+02  0.00000000000E+00 0. -1.
         11    1    1    2    0    0  0.55098402459E+02  0.10049137307E+02  0.31595079726E+02  0.64304495776E+02  0.00000000000E+00 0.  1.
</event>
<event>
 7    1  0.2626349E-009  0.1211072E+03  0.7561462E-02  0.1241282E+00
          2   -1    0    0  501    0  0.00000000000E+00  0.00000000000E+00  0.91673044053E+03  0.91673044053E+03  0.00000000000E+00 0. -1.
         -2   -1    0    0    0  501 -0.00000000000E+00 -0.00000000000E+00 -0.28057067108E+02  0.28057067108E+02  0.00000000000E+00 0.  1.
         25    2    1    2    0    0  0.87832195259E+02 -0.30982022840E+02  0.68503558670E+03  0.70256397078E+03  0.12509195708E+03 0.  0.
          5    1    3    3  502    0  0.77665634676E+01  0.19136795088E+02  0.43081152123E+03  0.43132653020E+03  0.41800000000E+01 0.  1.
         -5    1    3    3    0  502  0.80065631792E+02 -0.50118817928E+02  0.25422406548E+03  0.27123744058E+03  0.41800000000E+01 0.  1.
        -11    1    1    2    0    0 -0.47587567786E+02 -0.27980714599E+02  0.12114787135E+03  0.13313265463E+03  0.00000000000E+00 0.  1.
         11    1    1    2    0    0 -0.40244627473E+02  0.58962737439E+02  0.82489915369E+02  0.10909088222E+03  0.00000000000E+00 0. -1.
</event>
<event>
 7    1  0.2626349E-009  0.1090861E+03  0.7561462E-02  0.1262272E+00
          1   -1    0    0  501    0  0.00000000000E+00  0.00000000000E+00  0.11845620473E+03  0.11845620473E+03  0.00000000000E+00 0. -1.
         -1   -1    0    0    0  501 -0.00000000000E+00 -0.00000000000E+00 -0.12756567247E+03  0.12756567247E+03  0.00000000000E+00 0.  1.
         25    2    1    2    0    0  0.49194488634E+02  0.47627519113E+01  0.27607787313E+02  0.13730064558E+03  0.12508595380E+03 0.  0.
          5    1    3    3  502    0  0.40705506169E+02  0.55827156537E+02 -0.14164499073E+02  0.70652070553E+02  0.41800000000E+01 0.  1.
         -5    1    3    3    0  502  0.84889824649E+01 -0.51064404626E+02  0.41772286386E+02  0.66648575026E+02  0.41800000000E+01 0.  1.
        -11    1    1    2    0    0 -0.45739444663E+02  0.34696744317E+02 -0.43621754651E+01  0.57575944969E+02  0.00000000000E+00 0.  1.
         11    1    1    2    0    0 -0.34550439707E+01 -0.39459496228E+02 -0.32355079589E+02  0.51145286651E+02  0.00000000000E+00 0. -1.
</event>
<event>
 7    1  0.2626349E-009  0.2483751E+03  0.7561462E-02  0.1114336E+00
          2   -1    0    0  501    0  0.00000000000E+00  0.00000000000E+00  0.92137823487E+03  0.92137823487E+03  0.00000000000E+00 0. -1.
         -2   -1    0    0    0  501 -0.00000000000E+00 -0.00000000000E+00 -0.75495032173E+02  0.75495032173E+02  0.00000000000E+00 0.  1.
         25    2    1    2    0    0 -0.20142008957E+03 -0.10354764692E+03  0.28361441253E+03  0.38389745086E+03  0.12509176677E+03 0.  0.
          5    1    3    3  502    0 -0.83321387222E+02  0.18735021550E+02  0.12435212745E+03  0.15091182393E+03  0.41800000000E+01 0. -1.
         -5    1    3    3    0  502 -0.11809870235E+03 -0.12228266847E+03  0.15926228508E+03  0.23298562692E+03  0.41800000000E+01 0. -1.
        -11    1    1    2    0    0  0.66234596043E+02 -0.69452624329E+01  0.20065818444E+03  0.21142129828E+03  0.00000000000E+00 0. -1.
         11    1    1    2    0    0  0.13518549353E+03  0.11049290935E+03  0.36161060573E+03  0.40155451791E+03  0.00000000000E+00 0.  1.
</event>
<event>
 7    1  0.2626349E-009  0.9726000E+02  0.7561462E-02  0.1286166E+00
          2   -1    0    0  501    0  0.00000000000E+00  0.00000000000E+00  0.15636355553E+03  0.15636355553E+03  0.00000000000E+00 0. -1.
         -2   -1    0    0    0  501 -0.00000000000E+00 -0.00000000000E+00 -0.11333118458E+03  0.11333118458E+03  0.00000000000E+00 0.  1.
         25    2    1    2    0    0 -0.32031849788E+02 -0.35854057134E+02 -0.21085148717E+02  0.13565981037E+03  0.12508975913E+03 0.  0.
          5    1    3    3  502    0 -0.35079876699E+02 -0.76518426364E+02 -0.36527716743E+02  0.91855396211E+02  0.41800000000E+01 0. -1.
         -5    1    3    3    0  502  0.30480269109E+01  0.40664369230E+02  0.15442568026E+02  0.43804414163E+02  0.41800000000E+01 0. -1.
        -11    1    1    2    0    0  0.45140601917E+02  0.22145044526E+02 -0.15163294281E+02  0.52516687176E+02  0.00000000000E+00 0.  1.
         11    1    1    2    0    0 -0.13108752129E+02  0.13709012608E+02  0.79280813951E+02  0.81518242559E+02  0.00000000000E+00 0. -1.
</event>
<event>
 7    1  0.2626349E-009  0.1534350E+03  0.7561462E-02  0.1196315E+00
          2   -1    0    0  501    0  0.00000000000E+00  0.00000000000E+00  0.24276615388E+03  0.24276615388E+03  0.00000000000E+00 0. -1.
         -2   -1    0    0    0  501 -0.00000000000E+00 -0.00000000000E+00 -0.11548964243E+03  0.11548964243E+03  0.00000000000E+00 0.  1.
         25    2    1    2    0    0  0.69127638341E+02 -0.10801232817E+03  0.74675065367E+02  0.19408448106E+03  0.12508847661E+03 0.  0.
          5    1    3    3  502    0 -0.20504988205E+02 -0.32406694295E+02 -0.19874623374E+02  0.43394947064E+02  0.41800000000E+01 0. -1.
         -5    1    3    3    0  502  0.89632626547E+02 -0.75605633874E+02  0.94549688740E+02  0.15068953400E+03  0.41800000000E+01 0. -1.
        -11    1    1    2    0    0 -0.47518921774E+02  0.74489478650E+01 -0.11534757644E+01  0.48113046642E+02  0.00000000000E+00 0.  1.
         11    1    1    2    0    0 -0.21608716567E+02  0.10056338030E+03  0.53754921848E+02  0.11605826861E+03  0.00000000000E+00 0. -1.
</event>
<event>
 7    1  0.2626349E-009  0.1088093E+03  0.7561462E-02  0.1262791E+00
         -2   -1    0    0    0  501 -0.00000000000E+00  0.00000000000E+00  0.29890104174E+03  0.29890104174E+03  0.00000000000E+00 0. -1.
          2   -1    0    0  501    0  0.00000000000E+00 -0.00000000000E+00 -0.50223612996E+02  0.50223612996E+02  0.00000000000E+00 0.  1.
         25    2    1    2    0    0  0.13924140664E+02  0.55550789848E+02  0.13201971237E+03  0.19067830093E+03  0.12509691460E+03 0.  0.
          5    1    3    3  502    0 -0.36219290969E+02 -0.18297071341E+02  0.15051530945E+02  0.43481499994E+02  0.41800000000E+01 0.  1.
         -5    1    3    3    0  502  0.50143431632E+02  0.73847861189E+02  0.11696818143E+03  0.14719680093E+03  0.41800000000E+01 0.  1.
        -11    1    1    2    0    0 -0.20226302562E+02 -0.69379432143E+02  0.12244818733E+03  0.14218356973E+03  0.00000000000E+00 0. -1.
         11    1    1    2    0    0  0.63021618983E+01  0.13828642295E+02 -0.57904709566E+01  0.16262784086E+02  0.00000000000E+00 0.  1.
</event>
<event>
 7    1  0.2626349E-009  0.1095767E+03  0.7561462E-02  0.1261356E+00
          1   -1    0    0  501    0  0.00000000000E+00  0.00000000000E+00  0.83263115421E+03  0.83263115421E+03  0.00000000000E+00 0. -1.
         -1   -1    0    0    0  501 -0.00000000000E+00 -0.00000000000E+00 -0.16761839122E+02  0.16761839122E+02  0.00000000000E+00 0.  1.
         25    2    1    2    0    0  0.19161043354E+02 -0.18280953612E+02  0.60884605877E+03  0.62212738129E+03  0.12509043299E+03 0.  0.
          5    1    3    3  502    0  0.61850458970E+02  0.23832027870E+02  0.27446128024E+03  0.28238256246E+03  0.41800000000E+01 0. -1.
         -5    1    3    3    0  502 -0.42689415616E+02 -0.42112981482E+02  0.33438477852E+03  0.33974481883E+03  0.41800000000E+01 0. -1.
        -11    1    1    2    0    0 -0.24446467485E+02 -0.33003497212E+02  0.74574972255E+02  0.85136872667E+02  0.00000000000E+00 0.  1.
         11    1    1    2    0    0  0.52854241312E+01  0.51284450824E+02  0.13244828406E+03  0.14212873937E+03  0.00000000000E+00 0. -1.
</event>
<event>
 7    1  0.2626349E-009  0.1009470E+03  0.7561462E-02  0.1278317E+00
         -3   -1    0    0    0  501 -0.00000000000E+00  0.00000000000E+00  0.29402870662E+03  0.29402870662E+03  0.00000000000E+00 0.  1.
          3   -1    0    0  501    0  0.00000000000E+00 -0.00000000000E+00 -0.40510738850E+02  0.40510738850E+02  0.00000000000E+00 0. -1.
         25    2    1    2    0    0  0.13824419118E+01 -0.11032585272E+02  0.15192782100E+03  0.19710406643E+03  0.12507726063E+03 0.  0.
          5    1    3    3  502    0  0.59874993079E+02 -0.56807622161E+01  0.45719418993E+02  0.75663885234E+02  0.41800000000E+01 0.  1.
         -5    1    3    3    0  502 -0.58492551167E+02 -0.53518230563E+01  0.10620840201E+03  0.12144018120E+03  0.41800000000E+01 0.  1.
        -11    1    1    2    0    0 -0.14585796453E+02 -0.33357844655E+02  0.76597530599E+02  0.84809627709E+02  0.00000000000E+00 0.  1.
         11    1    1    2    0    0  0.13203354541E+02  0.44390429927E+02  0.24992616170E+02  0.52625751332E+02  0.00000000000E+00 0. -1.
</event>
<event>
 7    1  0.2626349E-009  0.1071504E+03  0.7561462E-02  0.1265940E+00
          1   -1    0    0  501    0  0.00000000000E+00  0.00000000000E+00  0.37395205694E+03  0.37395205694E+03  0.00000000000E+00 0. -1.
         -1   -1    0    0    0  501 -0.00000000000E+00 -0.00000000000E+00 -0.51729550296E+02  0.51729550296E+02  0.00000000000E+00 0.  1.
         25    2    1    2    0    0  0.63962676429E+02  0.54879718072E+02  0.22633582608E+03  0.27198916372E+03  0.12508873483E+03 0.  0.
          5    1    3    3  502    0  0.35321193619E+02  0.58141415314E+02  0.31670270529E+02  0.75156432385E+02  0.41800000000E+01 0. -1.
         -5    1    3    3    0  502  0.28641482810E+02 -0.32616972425E+01  0.19466555555E+03  0.19683273133E+03  0.41800000000E+01 0. -1.
        -11    1    1    2    0    0 -0.94104623154E+01 -0.61361548659E+02  0.68030920430E+02  0.92097788189E+02  0.00000000000E+00 0. -1.
         11    1    1    2    0    0 -0.54552214113E+02  0.64818305871E+01  0.27855760134E+02  0.61594655329E+02  0.00000000000E+00 0.  1.
</event>
<event>
 7    1  0.2626349E-009  0.1307530E+03  0.7561462E-02  0.1226343E+00
         -2   -1    0    0    0  501 -0.00000000000E+00  0.00000000000E+00  0.14983355555E+03  0.14983355555E+03  0.00000000000E+00 0.  1.
          2   -1    0    0  501    0  0.00000000000E+00 -0.00000000000E+00 -0.21910850525E+03  0.21910850525E+03  0.00000000000E+00 0. -1.
         25    2    1    2    0    0  0.20729448909E+02 -0.11736807285E+03 -0.12192125088E+03  0.21146662274E+03  0.12509343125E+03 0.  0.
          5    1    3    3  502    0  0.85609594101E+01 -0.12554075963E+03 -0.13969079619E+03  0.18805521342E+03  0.41800000000E+01 0. -1.
         -5    1    3    3    0  502  0.12168489499E+02  0.81726867860E+01  0.17769545305E+02  0.23411409320E+02  0.41800000000E+01 0. -1.
        -11    1    1    2    0    0 -0.16558772159E+02  0.46311597042E+02  0.68717642274E+02  0.84504859716E+02  0.00000000000E+00 0.  1.
         11    1    1    2    0    0 -0.41706767507E+01  0.71056475806E+02 -0.16071341095E+02  0.72970578339E+02  0.00000000000E+00 0. -1.
</event>
<event>
 7    1  0.2626349E-009  0.1138852E+03  0.7561462E-02  0.1253540E+00
         -1   -1    0    0    0  501 -0.00000000000E+00  0.00000000000E+00  0.34006387072E+03  0.34006387072E+03  0.00000000000E+00 0.  1.
          1   -1    0    0  501    0  0.00000000000E+00 -0.00000000000E+00 -0.48012468457E+02  0.48012468457E+02  0.00000000000E+00 0. -1.
         25    2    1    2    0    0  0.56555178288E+02 -0.22440067996E+02  0.12288353870E+03  0.18560737977E+03  0.12509072907E+03 0.  0.
          5    1    3    3  502    0  0.93301421316E+02  0.19672313017E+01  0.70731749752E+02  0.11717285540E+03  0.41800000000E+01 0. -1.
         -5    1    3    3    0  502 -0.36746243027E+02 -0.24407299297E+02  0.52151788951E+02  0.68434524375E+02  0.41800000000E+01 0. -1.
        -11    1    1    2    0    0 -0.14770620582E+02  0.41549352928E+02  0.24003056278E+02  0.50206241363E+02  0.00000000000E+00 0. -1.
         11    1    1    2    0    0 -0.41784557706E+02 -0.19109284932E+02  0.14516480728E+03  0.15226271804E+03  0.00000000000E+00 0.  1.
</event>
<event>
 7    1  0.2626349E-009  0.8910007E+02  0.7561462E-02  0.1305046E+00
         -1   -1    0    0    0  501 -0.00000000000E+00  0.00000000000E+00  0.22437126725E+03  0.22437126725E+03  0.00000000000E+00 0.  1.
          1   -1    0    0  501    0  0.00000000000E+00 -0.00000000000E+00 -0.71417844176E+02  0.71417844176E+02  0.00000000000E+00 0. -1.
         25    2    1    2    0    0 -0.30104966452E+02  0.10950059240E+02  0.15918857960E+03  0.20497685995E+03  0.12509315104E+03 0.  0.
          5    1    3    3  502    0 -0.43193760282E+02  0.52332226300E+02  0.41932761467E+02  0.79876102315E+02  0.41800000000E+01 0.  1.
         -5    1    3    3    0  502  0.13088793830E+02 -0.41382167061E+02  0.11725581813E+03  0.12510075763E+03  0.41800000000E+01 0.  1.
        -11    1    1    2    0    0 -0.14118900397E+02  0.10369717903E+02 -0.31164757875E+02  0.35750755674E+02  0.00000000000E+00 0. -1.
         11    1    1    2    0    0  0.44223866849E+02 -0.21319777143E+02  0.24929601346E+02  0.55061495800E+02  0.00000000000E+00 0.  1.
</event>
<event>
 7    1  0.2626349E-009  0.1068012E+03  0.7561462E-02  0.1266611E+00
         -1   -1    0    0    0  501 -0.00000000000E+00  0.00000000000E+00  0.69672591159E+02  0.69672591159E+02  0.00000000000E+00 0.  1.
          1   -1    0    0  501    0  0.00000000000E+00 -0.00000000000E+00 -0.21510198207E+03  0.21510198207E+03  0.00000000000E+00 0. -1.
         25    2    1    2    0    0  0.16880876519E+02 -0.54207132435E+02 -0.79206309096E+02  0.15856970436E+03  0.12508930626E+03 0.  0.
          5    1    3    3  502    0 -0.43507038700E+02 -0.14069002403E+01 -0.62898566536E+02  0.76606421774E+02  0.41800000000E+01 0.  1.
         -5    1    3    3    0  502  0.60387915219E+02 -0.52800232195E+02 -0.16307742559E+02  0.81963282582E+02  0.41800000000E+01 0.  1.
        -11    1    1    2    0    0 -0.43737244318E+02  0.39469527411E+02 -0.67412514592E+01  0.59297846552E+02  0.00000000000E+00 0.  1.
         11    1    1    2    0    0  0.26856367799E+02  0.14737605025E+02 -0.59481830355E+02  0.66907022319E+02  0.00000000000E+00 0. -1.
</event>
<event>
 7    1  0.2626349E-009  0.9337196E+02  0.7561462E-02  0.1294886E+00
          1   -1    0    0  501    0  0.00000000000E+00  0.00000000000E+00  0.12132057774E+04  0.12132057774E+04  0.00000000000E+00 0. -1.
         -1   -1    0    0    0  501 -0.00000000000E+00 -0.00000000000E+00 -0.20310801959E+02  0.20310801959E+02  0.00000000000E+00 0.  1.
         25    2    1    2    0    0 -0.39298986770E+02 -0.83590382333E+02  0.90035611695E+03  0.91368512479E+03  0.12509039750E+03 0.  0.
          5    1    3    3  502    0 -0.20864294219E+02 -0.28981964852E+02  0.51191476024E+02  0.62556475904E+02  0.41800000000E+01 0. -1.
         -5    1    3    3    0  502 -0.18434692551E+02 -0.54608417481E+02  0.84916464093E+03  0.85112864888E+03  0.41800000000E+01 0. -1.
        -11    1    1    2    0    0  0.31467555419E+02  0.55078370970E+02  0.28103400964E+03  0.28810405857E+03  0.00000000000E+00 0. -1.
         11    1    1    2    0    0  0.78314313511E+01  0.28512011363E+02  0.11504848830E+02  0.31727395978E+02  0.00000000000E+00 0.  1.
</event>
<event>
 7    1  0.2626349E-009  0.1160678E+03  0.7561462E-02  0.1249729E+00
          1   -1    0    0  501    0  0.00000000000E+00  0.00000000000E+00  0.46560291489E+02  0.46560291489E+02  0.00000000000E+00 0. -1.
         -1   -1    0    0    0  501 -0.00000000000E+00 -0.00000000000E+00 -0.47285634421E+03  0.47285634421E+03  0.00000000000E+00 0.  1.
         25    2    1    2    0    0  0.36861719850E+02  0.60362622633E+02 -0.10296402034E+03  0.17677778507E+03  0.12508542364E+03 0.  0.
          5    1    3    3  502    0  0.10310208673E+02  0.84563995408E+02 -0.21972790214E+02  0.88077497875E+02  0.41800000000E+01 0. -1.
         -5    1    3    3    0  502  0.26551511176E+02 -0.24201372775E+02 -0.80991230131E+02  0.88700287193E+02  0.41800000000E+01 0. -1.
        -11    1    1    2    0    0 -0.42029367648E+01 -0.74834740971E+02 -0.25123932137E+03  0.26218142523E+03  0.00000000000E+00 0. -1.
         11    1    1    2    0    0 -0.32658783085E+02  0.14472118338E+02 -0.72092711000E+02  0.80457425394E+02  0.00000000000E+00 0.  1.
</event>
<event>
 7    1  0.2626349E-009  0.1429696E+03  0.7561462E-02  0.1209388E+00
         -1   -1    0    0    0  501 -0.00000000000E+00  0.00000000000E+00  0.66436049516E+03  0.66436049516E+03  0.00000000000E+00 0.  1.
          1   -1    0    0  501    0  0.00000000000E+00 -0.00000000000E+00 -0.40898226358E+02  0.40898226358E+02  0.00000000000E+00 0. -1.
         25    2    1    2    0    0  0.33857082376E+02 -0.10406354355E+03  0.21176355424E+03  0.26919524955E+03  0.12508699514E+03 0.  0.
          5    1    3    3  502    0  0.77212689590E+02 -0.49840890272E+02  0.15111525994E+03  0.17691582169E+03  0.41800000000E+01 0. -1.
         -5    1    3    3    0  502 -0.43355607214E+02 -0.54222653279E+02  0.60648294307E+02  0.92279427869E+02  0.41800000000E+01 0. -1.
        -11    1    1    2    0    0 -0.48876107880E+02  0.57499260633E+02  0.13141838918E+03  0.15154481815E+03  0.00000000000E+00 0. -1.
         11    1    1    2    0    0  0.15019025503E+02  0.46564282918E+02  0.28028032538E+03  0.28451865381E+03  0.00000000000E+00 0.  1.
</event>
<event>
 7    1  0.2626349E-009  0.1179047E+03  0.7561462E-02  0.1246594E+00
         -2   -1    0    0    0  501 -0.00000000000E+00  0.00000000000E+00  0.12298811455E+03  0.12298811455E+03  0.00000000000E+00 0.  1.
          2   -1    0    0  501    0  0.00000000000E+00 -0.00000000000E+00 -0.12222639599E+03  0.12222639599E+03  0.00000000000E+00 0. -1.
         25    2    1    2    0    0  0.46356082349E+02 -0.29783085781E+02  0.72163876373E+01  0.13687553852E+03  0.12508764218E+03 0.  0.
          5    1    3    3  502    0 -0.15269956960E+02  0.38914670849E+02 -0.92969971127E+01  0.43028243610E+02  0.41800000000E+01 0.  1.
         -5    1    3    3    0  502  0.61626039309E+02 -0.68697756630E+02  0.16513384750E+02  0.93847294915E+02  0.41800000000E+01 0.  1.
        -11    1    1    2    0    0  0.71606385701E-01  0.50552818904E+02 -0.22032051360E+02  0.55145298201E+02  0.00000000000E+00 0. -1.
         11    1    1    2    0    0 -0.46427688735E+02 -0.20769733123E+02  0.15577382284E+02  0.53193673817E+02  0.00000000000E+00 0.  1.
</event>
<event>
 7    1  0.2626349E-009  0.1749236E+03  0.7561462E-02  0.1172808E+00
          2   -1    0    0  501    0  0.00000000000E+00  0.00000000000E+00  0.12945290285E+04  0.12945290285E+04  0.00000000000E+00 0. -1.
         -2   -1    0    0    0  501 -0.00000000000E+00 -0.00000000000E+00 -0.28165774863E+02  0.28165774863E+02  0.00000000000E+00 0.  1.
         25    2    1    2    0    0 -0.13797417640E+03  0.68395402604E+02  0.73817573910E+03  0.76437269265E+03  0.12508951603E+03 0.  0.
          5    1    3    3  502    0  0.79731056427E+01  0.18855293737E+02  0.28344420733E+03  0.28421327131E+03  0.41800000000E+01 0. -1.
         -5    1    3    3    0  502 -0.14594728204E+03  0.49540108867E+02  0.45473153177E+03  0.48015942134E+03  0.41800000000E+01 0. -1.
        -11    1    1    2    0    0  0.39797135102E+02 -0.65388685043E+02  0.16174710733E+03  0.17894585445E+03  0.00000000000E+00 0.  1.
         11    1    1    2    0    0  0.98177041293E+02 -0.30067175612E+01  0.36644040724E+03  0.37937625631E+03  0.00000000000E+00 0. -1.
</event>
<event>
 7    1  0.2626349E-009  0.1064574E+03  0.7561462E-02  0.1267274E+00
          1   -1    0    0  501    0  0.00000000000E+00  0.00000000000E+00  0.19533221344E+03  0.19533221344E+03  0.00000000000E+00 0. -1.
         -1   -1    0    0    0  501 -0.00000000000E+00 -0.00000000000E+00 -0.83553175602E+02  0.83553175602E+02  0.00000000000E+00 0.  1.
         25    2    1    2    0    0 -0.78706333328E+01 -0.58620871284E+02  0.89207334312E+02  0.16463350718E+03  0.12509152558E+03 0.  0.
          5    1    3    3  502    0  0.10409820396E+02 -0.75288205185E+02  0.10881172163E+03  0.13279360438E+03  0.41800000000E+01 0.  1.
         -5    1    3    3    0  502 -0.18280453729E+02  0.16667333901E+02 -0.19604387318E+02  0.31839902795E+02  0.41800000000E+01 0.  1.
        -11    1    1    2    0    0 -0.27855146283E+02 -0.13700852812E+02  0.25949963103E+01  0.31150546514E+02  0.00000000000E+00 0.  1.
         11    1    1    2    0    0  0.35725779616E+02  0.72321724096E+02  0.19976707212E+02  0.83101335347E+02  0.00000000000E+00 0. -1.
</event>
<event>
 7    1  0.2626349E-009  0.1093488E+03  0.7561462E-02  0.1261781E+00
          1   -1    0    0  501    0  0.00000000000E+00  0.00000000000E+00  0.36488084862E+03  0.36488084862E+03  0.00000000000E+00 0. -1.
         -1   -1    0    0    0  501 -0.00000000000E+00 -0.00000000000E+00 -0.51538931490E+02  0.51538931490E+02  0.00000000000E+00 0.  1.
         25    2    1    2    0    0 -0.23800187038E+02  0.52163974716E+02  0.79870128833E+02  0.15910239624E+03  0.12508719299E+03 0.  0.
          5    1    3    3  502    0 -0.49657393162E+02  0.76582562927E+02  0.82624450722E+02  0.12318692259E+03  0.41800000000E+01 0.  1.
         -5    1    3    3    0  502  0.25857206124E+02 -0.24418588210E+02 -0.27543218883E+01  0.35915473654E+02  0.41800000000E+01 0.  1.
        -11    1    1    2    0    0  0.32518408732E+02  0.56897531461E+01  0.26792481850E+02  0.42516553024E+02  0.00000000000E+00 0.  1.
         11    1    1    2    0    0 -0.87182216945E+01 -0.57853727862E+02  0.20667930644E+03  0.21480083084E+03  0.00000000000E+00 0. -1.
</event>
<event>
 7    1  0.2626349E-009  0.1146547E+03  0.7561462E-02  0.1252185E+00
         -2   -1    0    0    0  501 -0.00000000000E+00  0.00000000000E+00  0.62692724654E+01  0.62692724654E+01  0.00000000000E+00 0.  1.
          2   -1    0    0  501    0  0.00000000000E+00 -0.00000000000E+00 -0.41280583279E+04  0.41280583279E+04  0.00000000000E+00 0. -1.
         25    2    1    2    0    0 -0.36315442080E+02 -0.10535722810E+02 -0.36010345013E+04  0.36034050285E+04  0.12509399372E+03 0.  0.
          5    1    3    3  502    0 -0.74797329622E+02  0.18974814727E+02 -0.17116769959E+04  0.17134206415E+04  0.41800000000E+01 0. -1.
         -5    1    3    3    0  502  0.38481887542E+02 -0.29510537537E+02 -0.18893575054E+04  0.18899843870E+04  0.41800000000E+01 0. -1.
        -11    1    1    2    0    0  0.10695557479E+02  0.52832492662E+02 -0.26300954294E+03  0.26847660402E+03  0.00000000000E+00 0.  1.
         11    1    1    2    0    0  0.25619884601E+02 -0.42296769852E+02 -0.25774501119E+03  0.26244596781E+03  0.00000000000E+00 0. -1.
</event>
<event>
 7    1  0.2626349E-009  0.1232471E+03  0.7561462E-02  0.1237835E+00
          1   -1    0    0  501    0  0.00000000000E+00  0.00000000000E+00  0.69351350686E+02  0.69351350686E+02  0.00000000000E+00 0. -1.
         -1   -1    0    0    0  501 -0.00000000000E+00 -0.00000000000E+00 -0.24651890920E+03  0.24651890920E+03  0.00000000000E+00 0.  1.
         25    2    1    2    0    0  0.28472918093E+02 -0.58300112298E+02 -0.14142988308E+03  0.19964499070E+03  0.12508437283E+03 0.  0.
          5    1    3    3  502    0  0.66674402719E+02  0.44179176891E+01 -0.74953654730E+02  0.10050132702E+03  0.41800000000E+01 0. -1.
         -5    1    3    3    0  502 -0.38201484626E+02 -0.62718029987E+02 -0.66476228347E+02  0.99143663683E+02  0.41800000000E+01 0. -1.
        -11    1    1    2    0    0  0.29941781665E+02  0.22768273315E+02 -0.29049305850E+02  0.47526484505E+02  0.00000000000E+00 0.  1.
         11    1    1    2    0    0 -0.58414699758E+02  0.35531838983E+02 -0.66883695882E+01  0.68698784685E+02  0.00000000000E+00 0. -1.
</event>
<event>
 7    1  0.2626349E-009  0.3638277E+03  0.7561462E-02  0.1057078E+00
          1   -1    0    0  501    0  0.00000000000E+00  0.00000000000E+00  0.87060193792E+03  0.87060193792E+03  0.00000000000E+00 0. -1.
         -1   -1    0    0    0  501 -0.00000000000E+00 -0.00000000000E+00 -0.15565700653E+03  0.15565700653E+03  0.00000000000E+00 0.  1.
         25    2    1    2    0    0 -0.34679275714E+03 -0.43689930420E+02  0.42173393355E+03  0.56185445424E+03  0.12508753184E+03 0.  0.
          5    1    3    3  502    0 -0.13998816458E+03 -0.79843133250E+02  0.18767241434E+03  0.24740658773E+03  0.41800000000E+01 0.  1.
         -5    1    3    3    0  502 -0.20680459256E+03  0.36153202830E+02  0.23406151921E+03  0.31444786651E+03  0.41800000000E+01 0.  1.
        -11    1    1    2    0    0  0.19078443186E+03 -0.11112083836E+02  0.12397625618E+03  0.22779879267E+03  0.00000000000E+00 0.  1.
         11    1    1    2    0    0  0.15600832528E+03  0.54802014256E+02  0.16923474167E+03  0.23660569755E+03  0.00000000000E+00 0. -1.
</event>
<event>
 7    1  0.2626349E-009  0.1101375E+03  0.7561462E-02  0.1260316E+00
          2   -1    0    0  501    0  0.00000000000E+00  0.00000000000E+00  0.13883763567E+03  0.13883763567E+03  0.00000000000E+00 0. -1.
         -2   -1    0    0    0  501 -0.00000000000E+00 -0.00000000000E+00 -0.17448255179E+03  0.17448255179E+03  0.00000000000E+00 0.  1.
         25    2    1    2    0    0 -0.31828255798E+02  0.78598167581E+02 -0.93552403639E+02  0.17773712596E+03  0.12509086260E+03 0.  0.
          5    1    3    3  502    0  0.38943111181E+02  0.32402281704E+02  0.10103251472E+01  0.50842570008E+02  0.41800000000E+01 0.  1.
         -5    1    3    3    0  502 -0.70771366979E+02  0.46195885877E+02 -0.94562728786E+02  0.12689455596E+03  0.41800000000E+01 0.  1.
        -11    1    1    2    0    0  0.66045309480E+01 -0.14106995561E+02 -0.23821283775E+02  0.28461916898E+02  0.00000000000E+00 0.  1.
         11    1    1    2    0    0  0.25223724850E+02 -0.64491172020E+02  0.81728771292E+02  0.10712114460E+03  0.00000000000E+00 0. -1.
</event>
<event>
 7    1  0.2626349E-009  0.1262025E+03  0.7561462E-02  0.1233202E+00
         -2   -1    0    0    0  501 -0.00000000000E+00  0.00000000000E+00  0.10461788300E+03  0.10461788300E+03  0.00000000000E+00 0.  1.
          2   -1    0    0  501    0  0.00000000000E+00 -0.00000000000E+00 -0.26920889979E+03  0.26920889979E+03  0.00000000000E+00 0. -1.
         25    2    1    2    0    0 -0.12073991571E+03 -0.33647253673E+02 -0.11069848673E+03  0.20882966973E+03  0.12508161763E+03 0.  0.
          5    1    3    3  502    0 -0.53014321033E+02 -0.16602695345E+02  0.21133017968E+02  0.59583928838E+02  0.41800000000E+01 0. -1.
         -5    1    3    3    0  502 -0.67725594680E+02 -0.17044558328E+02 -0.13183150470E+03  0.14924574089E+03  0.41800000000E+01 0. -1.
        -11    1    1    2    0    0  0.92779373166E+01  0.82452139501E+01  0.23754073223E+02  0.26801486314E+02  0.00000000000E+00 0.  1.
         11    1    1    2    0    0  0.11146197840E+03  0.25402039723E+02 -0.77646603287E+02  0.13819562675E+03  0.00000000000E+00 0. -1.
</event>
<event>
 7    1  0.2626349E-009  0.1693583E+03  0.7561462E-02  0.1178519E+00
         -2   -1    0    0    0  501 -0.00000000000E+00  0.00000000000E+00  0.33470841028E+02  0.33470841028E+02  0.00000000000E+00 0.  1.
          2   -1    0    0  501    0  0.00000000000E+00 -0.00000000000E+00 -0.11285073485E+04  0.11285073485E+04  0.00000000000E+00 0. -1.
         25    2    1    2    0    0 -0.13947266555E+02 -0.15967504666E+03 -0.64572853293E+03  0.67698087362E+03  0.12508844164E+03 0.  0.
          5    1    3    3  502    0  0.39262457062E+01 -0.28031589445E+02 -0.14818751962E+02  0.32221936967E+02  0.41800000000E+01 0.  1.
         -5    1    3    3    0  502 -0.17873512261E+02 -0.13164345721E+03 -0.63090978097E+03  0.64475893665E+03  0.41800000000E+01 0.  1.
        -11    1    1    2    0    0  0.36330667116E+02  0.34753686961E+02 -0.18639011691E+03  0.19305183711E+03  0.00000000000E+00 0. -1.
         11    1    1    2    0    0 -0.22383400561E+02  0.12492135970E+03 -0.26291785762E+03  0.29194547878E+03  0.00000000000E+00 0.  1.
</event>
<event>
 7    1  0.2626349E-009  0.1344655E+03  0.7561462E-02  0.1220976E+00
          1   -1    0    0  501    0  0.00000000000E+00  0.00000000000E+00  0.70415096420E+03  0.70415096420E+03  0.00000000000E+00 0. -1.
         -1   -1    0    0    0  501 -0.00000000000E+00 -0.00000000000E+00 -0.28948829916E+02  0.28948829916E+02  0.00000000000E+00 0.  1.
         25    2    1    2    0    0  0.23185899014E+02 -0.86401136112E+02  0.43980902080E+03  0.46592148182E+03  0.12509240666E+03 0.  0.
          5    1    3    3  502    0  0.70050864410E+02 -0.30980403683E+02  0.28065176870E+03  0.29094638112E+03  0.41800000000E+01 0.  1.
         -5    1    3    3    0  502 -0.46864965396E+02 -0.55420732429E+02  0.15915725211E+03  0.17497510069E+03  0.41800000000E+01 0.  1.
        -11    1    1    2    0    0  0.26757026808E+02  0.53200131364E+02  0.73887921266E+02  0.94897931325E+02  0.00000000000E+00 0. -1.
         11    1    1    2    0    0 -0.49942925822E+02  0.33201004748E+02  0.16150519221E+03  0.17228038097E+03  0.00000000000E+00 0.  1.
</event>
<event>
 7    1  0.2626349E-009  0.9774143E+02  0.7561462E-02  0.1285118E+00
         -1   -1    0    0    0  501 -0.00000000000E+00  0.00000000000E+00  0.92096412233E+02  0.92096412233E+02  0.00000000000E+00 0.  1.
          1   -1    0    0  501    0  0.00000000000E+00 -0.00000000000E+00 -0.22865912825E+03  0.22865912825E+03  0.00000000000E+00 0. -1.
         25    2    1    2    0    0 -0.16171767638E+01  0.51893398369E+02  0.17987862865E+01  0.13545065902E+03  0.12509238723E+03 0.  0.
          5    1    3    3  502    0 -0.13085478035E+02 -0.15631968742E+02 -0.46897945282E+02  0.51307678312E+02  0.41800000000E+01 0.  1.
         -5    1    3    3    0  502  0.11468301271E+02  0.67525367111E+02  0.48696731568E+02  0.84142980711E+02  0.41800000000E+01 0.  1.
        -11    1    1    2    0    0  0.30286138053E+02  0.14615470121E+02 -0.56251822502E+01  0.34095524638E+02  0.00000000000E+00 0.  1.
         11    1    1    2    0    0 -0.28668961289E+02 -0.66508868490E+02 -0.13273632006E+03  0.15120935682E+03  0.00000000000E+00 0. -1.
</event>
<event>
 7    1  0.2626349E-009  0.1041688E+03  0.7561462E-02  0.1271766E+00
          1   -1    0    0  501    0  0.00000000000E+00  0.00000000000E+00  0.95664985830E+03  0.95664985830E+03  0.00000000000E+00 0. -1.
         -1   -1    0    0    0  501 -0.00000000000E+00 -0.00000000000E+00 -0.13624891759E+02  0.13624891759E+02  0.00000000000E+00 0.  1.
         25    2    1    2    0    0  0.24686654160E+02  0.16152233048E+02  0.60000236214E+03  0.61361634833E+03  0.12510740522E+03 0.  0.
          5    1    3    3  502    0 -0.12226257898E+01  0.60148427188E+02  0.47050473109E+03  0.47435377356E+03  0.41800000000E+01 0.  1.
         -5    1    3    3    0  502  0.25909279950E+02 -0.43996194140E+02  0.12949763105E+03  0.13926257478E+03  0.41800000000E+01 0.  1.
        -11    1    1    2    0    0  0.21764796043E+02 -0.39283954069E+02  0.13562058513E+03  0.14286314607E+03  0.00000000000E+00 0.  1.
         11    1    1    2    0    0 -0.46451450203E+02  0.23131721021E+02  0.20740201927E+03  0.21379525565E+03  0.00000000000E+00 0. -1.
</event>
<event>
 7    1  0.2626349E-009  0.8885847E+02  0.7561462E-02  0.1305640E+00
          4   -1    0    0  501    0  0.00000000000E+00  0.00000000000E+00  0.56255019897E+02  0.56255019897E+02  0.00000000000E+00 0. -1.
         -4   -1    0    0    0  501 -0.00000000000E+00 -0.00000000000E+00 -0.26040807153E+03  0.26040807153E+03  0.00000000000E+00 0.  1.
         25    2    1    2    0    0  0.23381879696E+02  0.24544796792E+02 -0.15738402973E+03  0.20387812209E+03  0.12508955394E+03 0.  0.
          5    1    3    3  502    0 -0.15860601356E+02 -0.43430494770E+02 -0.33836201857E+02  0.57446736265E+02  0.41800000000E+01 0.  1.
         -5    1    3    3    0  502  0.39242481052E+02  0.67975291563E+02 -0.12354782788E+03  0.14643138583E+03  0.41800000000E+01 0.  1.
        -11    1    1    2    0    0  0.91569605760E+01 -0.16969694859E+02  0.26200278648E+02  0.32531140032E+02  0.00000000000E+00 0. -1.
         11    1    1    2    0    0 -0.32538840272E+02 -0.75751019334E+01 -0.72969300548E+02  0.80253829305E+02  0.00000000000E+00 0.  1.
</event>
<event>
 7    1  0.2626349E-009  0.1077403E+03  0.7561462E-02  0.1264813E+00
         -2   -1    0    0    0  501 -0.00000000000E+00  0.00000000000E+00  0.48668060499E+02  0.48668060499E+02  0.00000000000E+00 0.  1.
          2   -1    0    0  501    0  0.00000000000E+00 -0.00000000000E+00 -0.33689947100E+03  0.33689947100E+03  0.00000000000E+00 0. -1.
         25    2    1    2    0    0  0.64961622379E+02  0.74811574482E+01 -0.18531021806E+03  0.23294488484E+03  0.12508981717E+03 0.  0.
          5    1    3    3  502    0 -0.24175955273E+02  0.35148636511E+02 -0.88895742827E+02  0.98690571762E+02  0.41800000000E+01 0.  1.
         -5    1    3    3    0  502  0.89137577652E+02 -0.27667479063E+02 -0.96414475229E+02  0.13425431308E+03  0.41800000000E+01 0.  1.
        -11    1    1    2    0    0 -0.37243273267E+02  0.18155880063E+02 -0.10690800752E+03  0.11465609211E+03  0.00000000000E+00 0. -1.
         11    1    1    2    0    0 -0.27718349111E+02 -0.25637037511E+02  0.39868150786E+01  0.37966554549E+02  0.00000000000E+00 0.  1.
</event>
<event>
 7    1  0.2626349E-009  0.2377349E+03  0.7561462E-02  0.1121311E+00
         -3   -1    0    0    0  501 -0.00000000000E+00  0.00000000000E+00  0.10694722438E+03  0.10694722438E+03  0.00000000000E+00 0.  1.
          3   -1    0    0  501    0  0.00000000000E+00 -0.00000000000E+00 -0.65073510175E+03  0.65073510175E+03  0.00000000000E+00 0. -1.
         25    2    1    2    0    0  0.17260396051E+03  0.15089199704E+03 -0.17598518185E+03  0.31492818011E+03  0.12509377459E+03 0.  0.
          5    1    3    3  502    0  0.53448623496E+02  0.23605178174E+02  0.10593368730E+02  0.59528578442E+02  0.41800000000E+01 0. -1.
         -5    1    3    3    0  502  0.11915533702E+03  0.12728681887E+03 -0.18657855058E+03  0.25539960167E+03  0.41800000000E+01 0. -1.
        -11    1    1    2    0    0 -0.38930828973E+02 -0.84921335315E+02 -0.10438734851E+03  0.14008554945E+03  0.00000000000E+00 0.  1.
         11    1    1    2    0    0 -0.13367313154E+03 -0.65970661729E+02 -0.26341534702E+03  0.30266859657E+03  0.00000000000E+00 0. -1.
</event>
<event>
 7    1  0.2626349E-009  0.1065707E+03  0.7561462E-02  0.1267056E+00
         -2   -1    0    0    0  501 -0.00000000000E+00  0.00000000000E+00  0.18308156799E+02  0.18308156799E+02  0.00000000000E+00 0.  1.
          2   -1    0    0  501    0  0.00000000000E+00 -0.00000000000E+00 -0.79871967992E+03  0.79871967992E+03  0.00000000000E+00 0. -1.
         25    2    1    2    0    0 -0.74777171715E+01  0.28761098583E+02 -0.58698901256E+03  0.60090389746E+03  0.12508507532E+03 0.  0.
          5    1    3    3  502    0 -0.42944446442E+02  0.60265411680E+02 -0.25625015800E+03  0.26675412124E+03  0.41800000000E+01 0.  1.
         -5    1    3    3    0  502  0.35466729270E+02 -0.31504313098E+02 -0.33073885456E+03  0.33414977622E+03  0.41800000000E+01 0.  1.
        -11    1    1    2    0    0 -0.24213480398E+02 -0.48398798330E+02 -0.78825523901E+02  0.95614849950E+02  0.00000000000E+00 0. -1.
         11    1    1    2    0    0  0.31691197569E+02  0.19637699747E+02 -0.11459698666E+03  0.12050908931E+03  0.00000000000E+00 0.  1.
</event>
<event>
 7    1  0.2626349E-009  0.1030661E+03  0.7561462E-02  0.1273977E+00
          2   -1    0    0  501    0  0.00000000000E+00  0.00000000000E+00  0.13518190751E+03  0.13518190751E+03  0.00000000000E+00 0. -1.
         -2   -1    0    0    0  501 -0.00000000000E+00 -0.00000000000E+00 -0.13640578994E+03  0.13640578994E+03  0.00000000000E+00 0.  1.
         25    2    1    2    0    0 -0.82906926032E+01  0.78012197398E+02 -0.23587556099E+02  0.14953347446E+03  0.12509695702E+03 0.  0.
          5    1    3    3  502    0 -0.33620695903E+02 -0.79104940872E+01 -0.45443890985E+02  0.57232392380E+02  0.41800000000E+01 0.  1.
         -5    1    3    3    0  502  0.25330003300E+02  0.85922691485E+02  0.21856334885E+02  0.92301082084E+02  0.41800000000E+01 0.  1.
        -11    1    1    2    0    0  0.10330714495E+02 -0.12925135005E+02  0.48984778643E+02  0.51703881049E+02  0.00000000000E+00 0. -1.
         11    1    1    2    0    0 -0.20400218921E+01 -0.65087062393E+02 -0.26621104970E+02  0.70350341933E+02  0.00000000000E+00 0.  1.
</event>
<event>
 7    1  0.2626349E-009  0.1070422E+03  0.7561462E-02  0.1266147E+00
         -1   -1    0    0    0  501 -0.00000000000E+00  0.00000000000E+00  0.21223069455E+03  0.21223069455E+03  0.00000000000E+00 0.  1.
          1   -1    0    0  501    0  0.00000000000E+00 -0.00000000000E+00 -0.63577472174E+02  0.63577472174E+02  0.00000000000E+00 0. -1.
         25    2    1    2    0    0  0.19813567052E+02  0.35173247973E+02  0.85648885360E+02  0.15688228370E+03  0.12508630845E+03 0.  0.
          5    1    3    3  502    0  0.11849919837E+02 -0.38446244093E+02  0.70357760624E+02  0.81155536873E+02  0.41800000000E+01 0. -1.
         -5    1    3    3    0  502  0.79636472154E+01  0.73619492066E+02  0.15291124736E+02  0.75726746825E+02  0.41800000000E+01 0. -1.
        -11    1    1    2    0    0 -0.37855918145E+02  0.19010513443E+02  0.36710889287E+02  0.56054969023E+02  0.00000000000E+00 0.  1.
         11    1    1    2    0    0  0.18042351092E+02 -0.54183761415E+02  0.26293447728E+02  0.62870914002E+02  0.00000000000E+00 0. -1.
</event>
<event>
 7    1  0.2626349E-009  0.1218531E+03  0.7561462E-02  0.1240071E+00
         -2   -1    0    0    0  501 -0.00000000000E+00  0.00000000000E+00  0.22531243455E+02  0.22531243455E+02  0.00000000000E+00 0.  1.
          2   -1    0    0  501    0  0.00000000000E+00 -0.00000000000E+00 -0.87685851888E+03  0.87685851888E+03  0.00000000000E+00 0. -1.
         25    2    1    2    0    0  0.80172023444E+02  0.35341135531E+02 -0.52504032702E+03  0.54680188778E+03  0.12509360605E+03 0.  0.
          5    1    3    3  502    0  0.43150107325E+02 -0.25230931219E+02 -0.69308214728E+02  0.85554851886E+02  0.41800000000E+01 0. -1.
         -5    1    3    3    0  502  0.37021916119E+02  0.60572066750E+02 -0.45573211229E+03  0.46124703589E+03  0.41800000000E+01 0. -1.
        -11    1    1    2    0    0 -0.10930769402E+02 -0.50401393312E+02 -0.98745647508E+02  0.11140235666E+03  0.00000000000E+00 0.  1.
         11    1    1    2    0    0 -0.69241254042E+02  0.15060257781E+02 -0.23054130090E+03  0.24118551790E+03  0.00000000000E+00 0. -1.
</event>
<event>
 7    1  0.2626349E-009  0.1295415E+03  0.7561462E-02  0.1228138E+00
         -1   -1    0    0    0  501 -0.00000000000E+00  0.00000000000E+00  0.76481547609E+02  0.76481547609E+02  0.00000000000E+00 0.  1.
          1   -1    0    0  501    0  0.00000000000E+00 -0.00000000000E+00 -0.23995144678E+03  0.23995144678E+03  0.00000000000E+00 0. -1.
         25    2    1    2    0    0 -0.78398880710E+02  0.20254399977E+02 -0.10610072306E+03  0.18292271289E+03  0.12508689077E+03 0.  0.
          5    1    3    3  502    0  0.28472024736E+02  0.27255951173E+02 -0.43282840294E+02  0.58689178992E+02  0.41800000000E+01 0. -1.
         -5    1    3    3    0  502 -0.10687090545E+03 -0.70015511959E+01 -0.62817882768E+02  0.12423353390E+03  0.41800000000E+01 0. -1.
        -11    1    1    2    0    0  0.82843691626E+02 -0.40021789253E+02 -0.25030019847E+02  0.95348428151E+02  0.00000000000E+00 0.  1.
         11    1    1    2    0    0 -0.44448109159E+01  0.19767389276E+02 -0.32339156261E+02  0.38161853342E+02  0.00000000000E+00 0. -1.
</event>
<event>
 7    1  0.2626349E-009  0.1560734E+03  0.7561462E-02  0.1193203E+00
          3   -1    0    0  501    0  0.00000000000E+00  0.00000000000E+00  0.35398371237E+03  0.35398371237E+03  0.00000000000E+00 0. -1.
         -3   -1    0    0    0  501 -0.00000000000E+00 -0.00000000000E+00 -0.84621401854E+02  0.84621401854E+02  0.00000000000E+00 0.  1.
         25    2    1    2    0    0  0.10123722384E+03  0.34746591076E+02  0.47793335690E+02  0.17143885250E+03  0.12510306203E+03 0.  0.
          5    1    3    3  502    0  0.32150194464E+02  0.76313033615E+02  0.14815247444E+02  0.84227537423E+02  0.41800000000E+01 0.  1.
         -5    1    3    3    0  502  0.69087029374E+02 -0.41566442539E+02  0.32978088246E+02  0.87211315076E+02  0.41800000000E+01 0.  1.
        -11    1    1    2    0    0 -0.65243984432E+02 -0.71679073233E+02  0.13123229988E+03  0.16314589660E+03  0.00000000000E+00 0.  1.
         11    1    1    2    0    0 -0.35993239406E+02  0.36932482157E+02  0.90336674938E+02  0.10402036512E+03  0.00000000000E+00 0. -1.
</event>
<event>
 7    1  0.2626349E-009  0.1531179E+03  0.7561462E-02  0.1196693E+00
          1   -1    0    0  501    0  0.00000000000E+00  0.00000000000E+00  0.59749375102E+03  0.59749375102E+03  0.00000000000E+00 0. -1.
         -1   -1    0    0    0  501 -0.00000000000E+00 -0.00000000000E+00 -0.45759020548E+02  0.45759020548E+02  0.00000000000E+00 0.  1.
         25    2    1    2    0    0  0.73711517203E+02 -0.10046252155E+03  0.28323771028E+03  0.33376366163E+03  0.12509386594E+03 0.  0.
          5    1    3    3  502    0  0.58164652841E+02 -0.12904549503E+03  0.24826866194E+03  0.28581579300E+03  0.41800000000E+01 0.  1.
         -5    1    3    3    0  502  0.15546864362E+02  0.28582973478E+02  0.34969048348E+02  0.47947868635E+02  0.41800000000E+01 0.  1.
        -11    1    1    2    0    0 -0.15586126778E+02  0.57409422197E+02  0.45035324128E+02  0.74611993166E+02  0.00000000000E+00 0.  1.
         11    1    1    2    0    0 -0.58125390425E+02  0.43053099352E+02  0.22346169606E+03  0.23487711677E+03  0.00000000000E+00 0. -1.
</event>
<event>
 7    1  0.2626349E-009  0.2764701E+03  0.7561462E-02  0.1097633E+00
         -2   -1    0    0    0  501 -0.00000000000E+00  0.00000000000E+00  0.11965888093E+04  0.11965888093E+04  0.00000000000E+00 0.  1.
          2   -1    0    0  501    0  0.00000000000E+00 -0.00000000000E+00 -0.81614448354E+02  0.81614448354E+02  0.00000000000E+00 0. -1.
         25    2    1    2    0    0  0.25588466020E+03  0.21227231181E+02  0.85421037800E+03  0.90069451069E+03  0.12509067528E+03 0.  0.
          5    1    3    3  502    0  0.22367986793E+03 -0.23257372303E+02  0.60468245264E+03  0.64516039061E+03  0.41800000000E+01 0.  1.
         -5    1    3    3    0  502  0.32204792275E+02  0.44484603484E+02  0.24952792536E+03  0.25553412009E+03  0.41800000000E+01 0.  1.
        -11    1    1    2    0    0 -0.68704359027E+02 -0.48058850571E+02  0.77290644423E+02  0.11403414306E+03  0.00000000000E+00 0.  1.
         11    1    1    2    0    0 -0.18718030117E+03  0.26831619391E+02  0.18347333849E+03  0.26347460387E+03  0.00000000000E+00 0. -1.
</event>
<event>
 7    1  0.2626349E-009  0.1030506E+03  0.7561462E-02  0.1274009E+00
          1   -1    0    0  501    0  0.00000000000E+00  0.00000000000E+00  0.64308070714E+02  0.64308070714E+02  0.00000000000E+00 0. -1.
         -1   -1    0    0    0  501 -0.00000000000E+00 -0.00000000000E+00 -0.26115526531E+03  0.26115526531E+03  0.00000000000E+00 0.  1.
         25    2    1    2    0    0  0.15559066042E+02 -0.30149098386E+02 -0.35715456159E+02  0.13444043381E+03  0.12509030244E+03 0.  0.
          5    1    3    3  502    0  0.35857797954E+02  0.25496605827E+02  0.23944854780E+02  0.50266162110E+02  0.41800000000E+01 0.  1.
         -5    1    3    3    0  502 -0.20298731912E+02 -0.55645704213E+02 -0.59660310939E+02  0.84174271698E+02  0.41800000000E+01 0.  1.
        -11    1    1    2    0    0  0.96001821789E+01 -0.33095507666E+02 -0.50795139688E+02  0.61380960741E+02  0.00000000000E+00 0.  1.
         11    1    1    2    0    0 -0.25159248221E+02  0.63244606052E+02 -0.11033659875E+03  0.12964194147E+03  0.00000000000E+00 0. -1.
</event>
<event>
 7    1  0.2626349E-009  0.4994797E+02  0.7561462E-02  0.1445622E+00
          1   -1    0    0  501    0  0.00000000000E+00  0.00000000000E+00  0.68606672030E+02  0.68606672030E+02  0.00000000000E+00 0. -1.
         -1   -1    0    0    0  501 -0.00000000000E+00 -0.00000000000E+00 -0.17125499507E+03  0.17125499507E+03  0.00000000000E+00 0.  1.
         25    2    1    2    0    0 -0.11662741140E+02 -0.19811217998E+01 -0.56446166066E+02  0.13774389206E+03  0.12508903134E+03 0.  0.
          5    1    3    3  502    0  0.37528533143E+00 -0.28240023018E+02 -0.89326208410E+02  0.93777841989E+02  0.41800000000E+01 0. -1.
         -5    1    3    3    0  502 -0.12038026471E+02  0.26258901218E+02  0.32880042344E+02  0.43966050073E+02  0.41800000000E+01 0. -1.
        -11    1    1    2    0    0  0.20857424067E+02 -0.13002451522E+02 -0.69047411652E+02  0.73291479314E+02  0.00000000000E+00 0.  1.
         11    1    1    2    0    0 -0.91946829272E+01  0.14983573321E+02  0.22845254680E+02  0.28826295721E+02  0.00000000000E+00 0. -1.
</event>
<event>
 7    1  0.2626349E-009  0.1157083E+03  0.7561462E-02  0.1250350E+00
          1   -1    0    0  501    0  0.00000000000E+00  0.00000000000E+00  0.67459967397E+02  0.67459967397E+02  0.00000000000E+00 0. -1.
         -1   -1    0    0    0  501 -0.00000000000E+00 -0.00000000000E+00 -0.24417921493E+03  0.24417921493E+03  0.00000000000E+00 0.  1.
         25    2    1    2    0    0 -0.42910842208E+01  0.60151388230E+02 -0.57102952245E+02  0.15014118884E+03  0.12508008043E+03 0.  0.
          5    1    3    3  502    0 -0.51226369271E+02  0.63106214096E+02 -0.76142417143E+01  0.81743404890E+02  0.41800000000E+01 0.  1.
         -5    1    3    3    0  502  0.46935285050E+02 -0.29548258660E+01 -0.49488710531E+02  0.68397783945E+02  0.41800000000E+01 0.  1.
        -11    1    1    2    0    0 -0.24675334749E+02 -0.68385462867E+02 -0.58314223812E+02  0.93198671531E+02  0.00000000000E+00 0. -1.
         11    1    1    2    0    0  0.28966418970E+02  0.82340746368E+01 -0.61302071479E+02  0.68299321963E+02  0.00000000000E+00 0.  1.
</event>
<event>
 7    1  0.2626349E-009  0.1564103E+03  0.7561462E-02  0.1192810E+00
         -2   -1    0    0    0  501 -0.00000000000E+00  0.00000000000E+00  0.66140233980E+03  0.66140233980E+03  0.00000000000E+00 0.  1.
          2   -1    0    0  501    0  0.00000000000E+00 -0.00000000000E+00 -0.42032603675E+02  0.42032603675E+02  0.00000000000E+00 0. -1.
         25    2    1    2    0    0 -0.10867655033E+03 -0.63154753183E+02  0.30874255082E+03  0.35604921760E+03  0.12509982903E+03 0.  0.
          5    1    3    3  502    0 -0.12768921012E+02  0.24986557772E+02  0.99377166653E+01  0.30060007080E+02  0.41800000000E+01 0.  1.
         -5    1    3    3    0  502 -0.95907629319E+02 -0.88141310956E+02  0.29880483416E+03  0.32598921052E+03  0.41800000000E+01 0.  1.
        -11    1    1    2    0    0  0.29107425035E+02 -0.22815910544E+02  0.95895526032E+02  0.10278015314E+03  0.00000000000E+00 0.  1.
         11    1    1    2    0    0  0.79569125296E+02  0.85970663727E+02  0.21473165927E+03  0.24460557274E+03  0.00000000000E+00 0. -1.
</event>
<event>
 7    1  0.2626349E-009  0.2158457E+03  0.7561462E-02  0.1137019E+00
         -3   -1    0    0    0  501 -0.00000000000E+00  0.00000000000E+00  0.48153642309E+03  0.48153642309E+03  0.00000000000E+00 0.  1.
          3   -1    0    0  501    0  0.00000000000E+00 -0.00000000000E+00 -0.14312307425E+03  0.14312307425E+03  0.00000000000E+00 0. -1.
         25    2    1    2    0    0  0.38410733866E+02 -0.18806785453E+03  0.34265081053E+03  0.41219186993E+03  0.12509059634E+03 0.  0.
          5    1    3    3  502    0  0.22309263294E+02  0.71440133663E+01  0.86452859675E+02  0.89667772927E+02  0.41800000000E+01 0.  1.
         -5    1    3    3    0  502  0.16101470572E+02 -0.19521186789E+03  0.25619795086E+03  0.32252409700E+03  0.41800000000E+01 0.  1.
        -11    1    1    2    0    0 -0.61172229214E+02  0.75700828238E+02  0.49311930395E+01  0.97452417557E+02  0.00000000000E+00 0.  1.
         11    1    1    2    0    0  0.22761495348E+02  0.11236702629E+03 -0.91686547274E+01  0.11501520985E+03  0.00000000000E+00 0. -1.
</event>
<event>
 7    1  0.2626349E-009  0.1113197E+03  0.7561462E-02  0.1258145E+00
         -1   -1    0    0    0  501 -0.00000000000E+00  0.00000000000E+00  0.43039324970E+02  0.43039324970E+02  0.00000000000E+00 0.  1.
          1   -1    0    0  501    0  0.00000000000E+00 -0.00000000000E+00 -0.41707221991E+03  0.41707221991E+03  0.00000000000E+00 0. -1.
         25    2    1    2    0    0  0.21707195877E+02 -0.46528979359E+02 -0.31121991012E+03  0.33932347600E+03  0.12508573315E+03 0.  0.
          5    1    3    3  502    0 -0.14399942132E+02 -0.79461287627E+02 -0.23650946035E+03  0.24995129885E+03  0.41800000000E+01 0. -1.
         -5    1    3    3    0  502  0.36107138009E+02  0.32932308268E+02 -0.74710449772E+02  0.89372177148E+02  0.41800000000E+01 0. -1.
        -11    1    1    2    0    0  0.94324896200E+01  0.58582077518E+02 -0.12878615143E+02  0.60718122457E+02  0.00000000000E+00 0.  1.
         11    1    1    2    0    0 -0.31139685497E+02 -0.12053098158E+02 -0.49934369678E+02  0.60069946423E+02  0.00000000000E+00 0. -1.
</event>
<event>
 7    1  0.2626349E-009  0.1219804E+03  0.7561462E-02  0.1239865E+00
          2   -1    0    0  501    0  0.00000000000E+00  0.00000000000E+00  0.62825469294E+03  0.62825469294E+03  0.00000000000E+00 0.  1.
         -2   -1    0    0    0  501 -0.00000000000E+00 -0.00000000000E+00 -0.23913145657E+02  0.23913145657E+02  0.00000000000E+00 0. -1.
         25    2    1    2    0    0 -0.57108823139E+02  0.64331652127E+01  0.35781960477E+03  0.38338678145E+03  0.12509097225E+03 0.  0.
          5    1    3    3  502    0 -0.33070430431E+02 -0.58956922932E+02  0.18485241247E+03  0.19686914163E+03  0.41800000000E+01 0.  1.
         -5    1    3    3    0  502 -0.24038392708E+02  0.65390088144E+02  0.17296719230E+03  0.18651763982E+03  0.41800000000E+01 0.  1.
        -11    1    1    2    0    0  0.56733018935E+02 -0.42177077427E+02  0.17731353986E+03  0.19088643931E+03  0.00000000000E+00 0.  1.
         11    1    1    2    0    0  0.37580420414E+00  0.35743912214E+02  0.69208402658E+02  0.77894617835E+02  0.00000000000E+00 0. -1.
</event>
<event>
 7    1  0.2626349E-009  0.1410392E+03  0.7561462E-02  0.1211938E+00
         -2   -1    0    0    0  501 -0.00000000000E+00  0.00000000000E+00  0.23751718117E+02  0.23751718117E+02  0.00000000000E+00 0.  1.
          2   -1    0    0  501    0  0.00000000000E+00 -0.00000000000E+00 -0.12603019939E+04  0.12603019939E+04  0.00000000000E+00 0. -1.
         25    2    1    2    0    0  0.77479022761E+02 -0.48818980981E+02 -0.10216095734E+04  0.10333052047E+04  0.12508890324E+03 0.  0.
          5    1    3    3  502    0  0.59494501173E+02 -0.89969022890E+02 -0.63991000694E+03  0.64895015997E+03  0.41800000000E+01 0. -1.
         -5    1    3    3    0  502  0.17984521587E+02  0.41150041910E+02 -0.38169956643E+03  0.38435504469E+03  0.41800000000E+01 0. -1.
        -11    1    1    2    0    0 -0.87900818925E+02  0.95649112940E+01 -0.14266083439E+03  0.16783967101E+03  0.00000000000E+00 0.  1.
         11    1    1    2    0    0  0.10421796165E+02  0.39254069687E+02 -0.72279868030E+02  0.82908836349E+02  0.00000000000E+00 0. -1.
</event>
<event>
 7    1  0.2626349E-009  0.1005719E+03  0.7561462E-02  0.1279098E+00
         -1   -1    0    0    0  501 -0.00000000000E+00  0.00000000000E+00  0.46516034411E+02  0.46516034411E+02  0.00000000000E+00 0.  1.
          1   -1    0    0  501    0  0.00000000000E+00 -0.00000000000E+00 -0.35292188031E+03  0.35292188031E+03  0.00000000000E+00 0. -1.
         25    2    1    2    0    0  0.19161738575E+02  0.45818514401E+02 -0.10562619065E+03  0.17108946003E+03  0.12509277635E+03 0.  0.
          5    1    3    3  502    0  0.27276735724E+02 -0.22295383529E+02 -0.95180765203E+02  0.10157733459E+03  0.41800000000E+01 0. -1.
         -5    1    3    3    0  502 -0.81149971486E+01  0.68113897930E+02 -0.10445425450E+02  0.69512125437E+02  0.41800000000E+01 0. -1.
        -11    1    1    2    0    0 -0.12079895264E+02 -0.70366290474E+02 -0.18505097728E+03  0.19834616935E+03  0.00000000000E+00 0. -1.
         11    1    1    2    0    0 -0.70818433108E+01  0.24547776073E+02 -0.15728677962E+02  0.30002285334E+02  0.00000000000E+00 0.  1.
</event>
<event>
 7    1  0.2626349E-009  0.1223638E+03  0.7561462E-02  0.1239248E+00
         -1   -1    0    0    0  501 -0.00000000000E+00  0.00000000000E+00  0.66486940737E+02  0.66486940737E+02  0.00000000000E+00 0.  1.
          1   -1    0    0  501    0  0.00000000000E+00 -0.00000000000E+00 -0.23766728792E+03  0.23766728792E+03  0.00000000000E+00 0. -1.
         25    2    1    2    0    0 -0.60539023153E+02  0.32610714149E+01 -0.11550248537E+03  0.18073457576E+03  0.12509418387E+03 0.  0.
          5    1    3    3  502    0  0.20153274677E+02 -0.41240694370E+02 -0.47060256326E+02  0.65871765406E+02  0.41800000000E+01 0.  1.
         -5    1    3    3    0  502 -0.80692297830E+02  0.44501765785E+02 -0.68442229042E+02  0.11486281036E+03  0.41800000000E+01 0.  1.
        -11    1    1    2    0    0  0.69339335225E+02  0.27351505712E+02 -0.23531165315E+02  0.78164979468E+02  0.00000000000E+00 0.  1.
         11    1    1    2    0    0 -0.88003120717E+01 -0.30612577127E+02 -0.32146696503E+02  0.45254673427E+02  0.00000000000E+00 0. -1.
</event>
<event>
 7    1  0.2626349E-009  0.1436554E+03  0.7561462E-02  0.1208493E+00
         -2   -1    0    0    0  501 -0.00000000000E+00  0.00000000000E+00  0.34047082523E+02  0.34047082523E+02  0.00000000000E+00 0.  1.
          2   -1    0    0  501    0  0.00000000000E+00 -0.00000000000E+00 -0.72310877694E+03  0.72310877694E+03  0.00000000000E+00 0. -1.
         25    2    1    2    0    0  0.83334365750E+02 -0.71509705522E+02 -0.43379760323E+03  0.46463380993E+03  0.12508382096E+03 0.  0.
          5    1    3    3  502    0  0.58084823220E+02 -0.99775187663E+02 -0.38906658513E+03  0.40585615041E+03  0.41800000000E+01 0.  1.
         -5    1    3    3    0  502  0.25249542530E+02  0.28265482141E+02 -0.44731018097E+02  0.58777659520E+02  0.41800000000E+01 0.  1.
        -11    1    1    2    0    0 -0.89558493510E+02  0.82018103484E+02 -0.25222273074E+03  0.27993570505E+03  0.00000000000E+00 0. -1.
         11    1    1    2    0    0  0.62241277601E+01 -0.10508397962E+02 -0.30413604507E+01  0.12586344485E+02  0.00000000000E+00 0.  1.
</event>
<event>
 7    1  0.2626349E-009  0.1361855E+03  0.7561462E-02  0.1218556E+00
          1   -1    0    0  501    0  0.00000000000E+00  0.00000000000E+00  0.10560722807E+03  0.10560722807E+03  0.00000000000E+00 0. -1.
         -1   -1    0    0    0  501 -0.00000000000E+00 -0.00000000000E+00 -0.21118286211E+03  0.21118286211E+03  0.00000000000E+00 0.  1.
         25    2    1    2    0    0 -0.51608861105E+02 -0.66170341845E+02 -0.11804377011E+03  0.19137465287E+03  0.12509171601E+03 0.  0.
          5    1    3    3  502    0 -0.67005167693E+02 -0.95334317703E+02 -0.83369854653E+02  0.14333990964E+03  0.41800000000E+01 0. -1.
         -5    1    3    3    0  502  0.15396306588E+02  0.29163975858E+02 -0.34673915452E+02  0.48034743230E+02  0.41800000000E+01 0. -1.
        -11    1    1    2    0    0  0.69293412643E+02  0.18555536669E+02 -0.44669526815E+01  0.71873768810E+02  0.00000000000E+00 0.  1.
         11    1    1    2    0    0 -0.17684551538E+02  0.47614805176E+02  0.16935088754E+02  0.53541668504E+02  0.00000000000E+00 0. -1.
</event>
<event>
 7    1  0.2626349E-009  0.9114436E+02  0.7561462E-02  0.1300104E+00
         -1   -1    0    0    0  501 -0.00000000000E+00  0.00000000000E+00  0.54271529721E+02  0.54271529721E+02  0.00000000000E+00 0.  1.
          1   -1    0    0  501    0  0.00000000000E+00 -0.00000000000E+00 -0.47492444271E+03  0.47492444271E+03  0.00000000000E+00 0. -1.
         25    2    1    2    0    0  0.75058036559E+02 -0.67882309497E+01 -0.75794317784E+02  0.16453898470E+03  0.12509400443E+03 0.  0.
          5    1    3    3  502    0  0.59951538358E+02  0.99326205038E+01 -0.10860256555E+03  0.12451840646E+03  0.41800000000E+01 0.  1.
         -5    1    3    3    0  502  0.15106498201E+02 -0.16720851454E+02  0.32808247769E+02  0.40020578243E+02  0.41800000000E+01 0.  1.
        -11    1    1    2    0    0 -0.59589276406E+02  0.32929502110E+02 -0.31422815944E+03  0.32151915985E+03  0.00000000000E+00 0. -1.
         11    1    1    2    0    0 -0.15468760154E+02 -0.26141271161E+02 -0.30630435770E+02  0.43137827878E+02  0.00000000000E+00 0.  1.
</event>
<event>
 7    1  0.2626349E-009  0.9586160E+02  0.7561462E-02  0.1289247E+00
         -4   -1    0    0    0  501 -0.00000000000E+00  0.00000000000E+00  0.25016450420E+02  0.25016450420E+02  0.00000000000E+00 0.  1.
          4   -1    0    0  501    0  0.00000000000E+00 -0.00000000000E+00 -0.58006657905E+03  0.58006657905E+03  0.00000000000E+00 0. -1.
         25    2    1    2    0    0  0.18910621080E+02  0.27306892564E+02 -0.47533720748E+03  0.49264282481E+03  0.12509282173E+03 0.  0.
          5    1    3    3  502    0  0.58016916530E+02 -0.11302039376E+02 -0.12913176329E+03  0.14207808905E+03  0.41800000000E+01 0. -1.
         -5    1    3    3    0  502 -0.39106295451E+02  0.38608931941E+02 -0.34620544419E+03  0.35056473575E+03  0.41800000000E+01 0. -1.
        -11    1    1    2    0    0  0.25448976803E+02 -0.20066628015E+02 -0.21487695133E+02  0.38884971678E+02  0.00000000000E+00 0.  1.
         11    1    1    2    0    0 -0.44359597883E+02 -0.72402645488E+01 -0.58225226020E+02  0.73555232990E+02  0.00000000000E+00 0. -1.
</event>
<event>
 7    1  0.2626349E-009  0.9460949E+02  0.7561462E-02  0.1292058E+00
          2   -1    0    0  501    0  0.00000000000E+00  0.00000000000E+00  0.11676604022E+04  0.11676604022E+04  0.00000000000E+00 0. -1.
         -2   -1    0    0    0  501 -0.00000000000E+00 -0.00000000000E+00 -0.23834350815E+02  0.23834350815E+02  0.00000000000E+00 0.  1.
         25    2    1    2    0    0 -0.27032795166E+02 -0.55940239353E+02  0.10014598288E+04  0.10111524435E+04  0.12508953975E+03 0.  0.
          5    1    3    3  502    0  0.42939648865E+02 -0.22014647120E+02  0.19435235961E+03  0.20029670546E+03  0.41800000000E+01 0. -1.
         -5    1    3    3    0  502 -0.69972444030E+02 -0.33925592233E+02  0.80710746915E+03  0.81085573802E+03  0.41800000000E+01 0. -1.
        -11    1    1    2    0    0  0.14231817775E+02  0.40052261044E+02  0.15196234172E+03  0.15779506188E+03  0.00000000000E+00 0. -1.
         11    1    1    2    0    0  0.12800977391E+02  0.15887978309E+02 -0.95961190646E+01  0.22547247681E+02  0.00000000000E+00 0.  1.
</event>
<event>
 7    1  0.2626349E-009  0.9777654E+02  0.7561462E-02  0.1285042E+00
          2   -1    0    0  501    0  0.00000000000E+00  0.00000000000E+00  0.44526620637E+02  0.44526620637E+02  0.00000000000E+00 0. -1.
         -2   -1    0    0    0  501 -0.00000000000E+00 -0.00000000000E+00 -0.29445076497E+03  0.29445076497E+03  0.00000000000E+00 0.  1.
         25    2    1    2    0    0  0.92709798330E+01 -0.13188148858E+02 -0.19022024989E+03  0.22823292672E+03  0.12508655816E+03 0.  0.
          5    1    3    3  502    0  0.21794292257E+02 -0.61819911783E+02 -0.15002612190E+03  0.16377424193E+03  0.41800000000E+01 0. -1.
         -5    1    3    3    0  502 -0.12523312424E+02  0.48631762925E+02 -0.40194127994E+02  0.64458684787E+02  0.41800000000E+01 0. -1.
        -11    1    1    2    0    0  0.21585414317E+02 -0.23253787938E+02  0.30664812349E+01  0.31875885429E+02  0.00000000000E+00 0. -1.
         11    1    1    2    0    0 -0.30856394150E+02  0.36441936796E+02 -0.62770375674E+02  0.78868573460E+02  0.00000000000E+00 0.  1.
</event>
<event>
 7    1  0.2626349E-009  0.8833533E+02  0.7561462E-02  0.1306934E+00
          2   -1    0    0  501    0  0.00000000000E+00  0.00000000000E+00  0.15586942798E+03  0.15586942798E+03  0.00000000000E+00 0. -1.
         -2   -1    0    0    0  501 -0.00000000000E+00 -0.00000000000E+00 -0.91778757678E+02  0.91778757678E+02  0.00000000000E+00 0.  1.
         25    2    1    2    0    0 -0.32757384229E+02 -0.26412911779E+01 -0.17304366565E+01  0.12934784384E+03  0.12509135724E+03 0.  0.
          5    1    3    3  502    0 -0.53690442627E+02  0.81746304510E+01  0.48993796552E+02  0.73262218866E+02  0.41800000000E+01 0.  1.
         -5    1    3    3    0  502  0.20933058398E+02 -0.10815921629E+02 -0.50724233209E+02  0.56085624978E+02  0.41800000000E+01 0.  1.
        -11    1    1    2    0    0 -0.32691795115E+02  0.29096765982E+01  0.20668980794E+02  0.38786936625E+02  0.00000000000E+00 0.  1.
         11    1    1    2    0    0  0.65449179344E+02 -0.26838542033E+00  0.45152126165E+02  0.79513405189E+02  0.00000000000E+00 0. -1.
</event>
<event>
 7    1  0.2626349E-009  0.1420726E+03  0.7561462E-02  0.1210567E+00
          1   -1    0    0  501    0  0.00000000000E+00  0.00000000000E+00  0.10493912339E+03  0.10493912339E+03  0.00000000000E+00 0. -1.
         -1   -1    0    0    0  501 -0.00000000000E+00 -0.00000000000E+00 -0.21210815446E+03  0.21210815446E+03  0.00000000000E+00 0.  1.
         25    2    1    2    0    0 -0.10014163656E+03  0.25187031125E+02 -0.49380167552E+02  0.16956201942E+03  0.12510053386E+03 0.  0.
          5    1    3    3  502    0 -0.12503328888E+02 -0.38460070888E+02  0.15181666220E+02  0.43398913295E+02  0.41800000000E+01 0.  1.
         -5    1    3    3    0  502 -0.87638307677E+02  0.63647102013E+02 -0.64561833772E+02  0.12616310612E+03  0.41800000000E+01 0.  1.
        -11    1    1    2    0    0  0.70786470506E+02  0.26557686411E+02 -0.25454606637E+02  0.79774507916E+02  0.00000000000E+00 0.  1.
         11    1    1    2    0    0  0.29355166058E+02 -0.51744717535E+02 -0.32334256875E+02  0.67710750511E+02  0.00000000000E+00 0. -1.
</event>
<event>
 7    1  0.2626349E-009  0.1785999E+03  0.7561462E-02  0.1169165E+00
          1   -1    0    0  501    0  0.00000000000E+00  0.00000000000E+00  0.21365066648E+03  0.21365066648E+03  0.00000000000E+00 0. -1.
         -1   -1    0    0    0  501 -0.00000000000E+00 -0.00000000000E+00 -0.24217183603E+03  0.24217183603E+03  0.00000000000E+00 0.  1.
         25    2    1    2    0    0 -0.11361083446E+03 -0.10629693031E+03  0.10967619743E+03  0.22777994296E+03  0.12509346518E+03 0.  0.
          5    1    3    3  502    0  0.43405105221E+01 -0.60213034420E+02  0.48095874475E+00  0.60515727435E+02  0.41800000000E+01 0. -1.
         -5    1    3    3    0  502 -0.11795134498E+03 -0.46083895890E+02  0.10919523869E+03  0.16726421552E+03  0.41800000000E+01 0. -1.
        -11    1    1    2    0    0  0.65599332452E+02  0.15702441045E+02 -0.95633852407E+02  0.11702851276E+03  0.00000000000E+00 0.  1.
         11    1    1    2    0    0  0.48011502007E+02  0.90594489265E+02 -0.42563514575E+02  0.11101404678E+03  0.00000000000E+00 0. -1.
</event>
<event>
 7    1  0.2626349E-009  0.1169708E+03  0.7561462E-02  0.1248180E+00
         -2   -1    0    0    0  501 -0.00000000000E+00  0.00000000000E+00  0.12606239415E+02  0.12606239415E+02  0.00000000000E+00 0. -1.
          2   -1    0    0  501    0  0.00000000000E+00 -0.00000000000E+00 -0.13709134477E+04  0.13709134477E+04  0.00000000000E+00 0.  1.
         25    2    1    2    0    0  0.71920349015E+02  0.13774702236E+02 -0.79319884561E+03  0.80633371681E+03  0.12508946860E+03 0.  0.
          5    1    3    3  502    0 -0.11168971003E+02  0.29979678814E+02 -0.50239038070E+03  0.50342536097E+03  0.41800000000E+01 0. -1.
         -5    1    3    3    0  502  0.83089320018E+02 -0.16204976578E+02 -0.29080846492E+03  0.30290835583E+03  0.41800000000E+01 0. -1.
        -11    1    1    2    0    0 -0.47809658602E+02 -0.52685165071E+02 -0.37024184952E+03  0.37701527450E+03  0.00000000000E+00 0. -1.
         11    1    1    2    0    0 -0.24110690413E+02  0.38910462836E+02 -0.19486651320E+03  0.20017069585E+03  0.00000000000E+00 0.  1.
</event>
<event>
 7    1  0.2626349E-009  0.5834019E+02  0.7561462E-02  0.1404932E+00
          2   -1    0    0  501    0  0.00000000000E+00  0.00000000000E+00  0.23481039148E+03  0.23481039148E+03  0.00000000000E+00 0. -1.
         -2   -1    0    0    0  501 -0.00000000000E+00 -0.00000000000E+00 -0.65631504716E+02  0.65631504716E+02  0.00000000000E+00 0.  1.
         25    2    1    2    0    0  0.45136515136E+02  0.35270991157E+02  0.67117613041E+02  0.15308418983E+03  0.12509455376E+03 0.  0.
          5    1    3    3  502    0  0.12824324866E+02  0.69348736647E+01 -0.37205485873E+02  0.40178058192E+02  0.41800000000E+01 0. -1.
         -5    1    3    3    0  502  0.32312190269E+02  0.28336117493E+02  0.10432309891E+03  0.11290613164E+03  0.41800000000E+01 0. -1.
        -11    1    1    2    0    0 -0.26931610147E+02 -0.27649786484E+02  0.11661450245E+03  0.12283633216E+03  0.00000000000E+00 0. -1.
         11    1    1    2    0    0 -0.18204904988E+02 -0.76212046731E+01 -0.14553228727E+02  0.24521374201E+02  0.00000000000E+00 0.  1.
</event>
<event>
 7    1  0.2626349E-009  0.2389962E+03  0.7561462E-02  0.1120463E+00
         -2   -1    0    0    0  501 -0.00000000000E+00  0.00000000000E+00  0.22317282472E+03  0.22317282472E+03  0.00000000000E+00 0.  1.
          2   -1    0    0  501    0  0.00000000000E+00 -0.00000000000E+00 -0.34473054285E+03  0.34473054285E+03  0.00000000000E+00 0. -1.
         25    2    1    2    0    0 -0.12646164654E+03 -0.18696692865E+03 -0.18304373384E+03  0.31638777829E+03  0.12508811815E+03 0.  0.
          5    1    3    3  502    0 -0.14002639592E+03 -0.14052074244E+03 -0.17971095490E+03  0.26770687388E+03  0.41800000000E+01 0.  1.
         -5    1    3    3    0  502  0.13564749387E+02 -0.46446186208E+02 -0.33327789448E+01  0.48680904415E+02  0.41800000000E+01 0.  1.
        -11    1    1    2    0    0  0.90502194842E+02  0.16681406977E+03  0.80462997617E+02  0.20613557463E+03  0.00000000000E+00 0.  1.
         11    1    1    2    0    0  0.35959451694E+02  0.20152858878E+02 -0.18976981904E+02  0.45380014646E+02  0.00000000000E+00 0. -1.
</event>
<event>
 7    1  0.2626349E-009  0.1605279E+03  0.7561462E-02  0.1188102E+00
          2   -1    0    0  501    0  0.00000000000E+00  0.00000000000E+00  0.19488392121E+03  0.19488392121E+03  0.00000000000E+00 0. -1.
         -2   -1    0    0    0  501 -0.00000000000E+00 -0.00000000000E+00 -0.17879759313E+03  0.17879759313E+03  0.00000000000E+00 0.  1.
         25    2    1    2    0    0 -0.96255840985E+02  0.69750562582E+02 -0.80353757237E+02  0.19035339551E+03  0.12508941192E+03 0.  0.
          5    1    3    3  502    0 -0.99302877069E+02  0.10035248099E+03 -0.61588333390E+02  0.15408529146E+03  0.41800000000E+01 0.  1.
         -5    1    3    3    0  502  0.30470360840E+01 -0.30601918405E+02 -0.18765423846E+02  0.36268104046E+02  0.41800000000E+01 0.  1.
        -11    1    1    2    0    0 -0.90262268513E+01 -0.37641726290E+02  0.27895243062E+01  0.38809197043E+02  0.00000000000E+00 0.  1.
         11    1    1    2    0    0  0.10528206784E+03 -0.32108836292E+02  0.93650561015E+02  0.14451892179E+03  0.00000000000E+00 0. -1.
</event>
<event>
 7    1  0.2626349E-009  0.1141835E+03  0.7561462E-02  0.1253013E+00
          2   -1    0    0  501    0  0.00000000000E+00  0.00000000000E+00  0.18436485238E+03  0.18436485238E+03  0.00000000000E+00 0. -1.
         -2   -1    0    0    0  501 -0.00000000000E+00 -0.00000000000E+00 -0.77910376053E+02  0.77910376053E+02  0.00000000000E+00 0.  1.
         25    2    1    2    0    0 -0.32458823637E+02 -0.33999892921E+02  0.28345167822E+02  0.13659674986E+03  0.12508259504E+03 0.  0.
          5    1    3    3  502    0 -0.24240069309E+02  0.44536326883E+02 -0.42752735623E+01  0.51056985186E+02  0.41800000000E+01 0. -1.
         -5    1    3    3    0  502 -0.82187543281E+01 -0.78536219803E+02  0.32620441385E+02  0.85539764670E+02  0.41800000000E+01 0. -1.
        -11    1    1    2    0    0 -0.13270854240E+02  0.48624069499E+02  0.38114007311E+02  0.63190927040E+02  0.00000000000E+00 0.  1.
         11    1    1    2    0    0  0.45729677877E+02 -0.14624176579E+02  0.39995301194E+02  0.62487551536E+02  0.00000000000E+00 0. -1.
</event>
<event>
 7    1  0.2626349E-009  0.9405718E+02  0.7561462E-02  0.1293314E+00
          2   -1    0    0  501    0  0.00000000000E+00  0.00000000000E+00  0.75707712196E+03  0.75707712196E+03  0.00000000000E+00 0. -1.
         -2   -1    0    0    0  501 -0.00000000000E+00 -0.00000000000E+00 -0.26737344509E+02  0.26737344509E+02  0.00000000000E+00 0.  1.
         25    2    1    2    0    0 -0.71491029353E+00 -0.85464444044E+02  0.31130322235E+03  0.34621057085E+03  0.12508949130E+03 0.  0.
          5    1    3    3  502    0 -0.82705535663E+01 -0.25614993627E+02 -0.18214859660E+01  0.27300552484E+02  0.41800000000E+01 0. -1.
         -5    1    3    3    0  502  0.75556432727E+01 -0.59849450417E+02  0.31312470831E+03  0.31891001837E+03  0.41800000000E+01 0. -1.
        -11    1    1    2    0    0  0.24320696962E+02  0.22386700326E+02  0.36746119408E+02  0.49426085661E+02  0.00000000000E+00 0.  1.
         11    1    1    2    0    0 -0.23605786669E+02  0.63077743718E+02  0.38229043570E+03  0.38817780996E+03  0.00000000000E+00 0. -1.
</event>
<event>
 7    1  0.2626349E-009  0.1933655E+03  0.7561462E-02  0.1155460E+00
         -2   -1    0    0    0  501 -0.00000000000E+00  0.00000000000E+00  0.25504674544E+03  0.25504674544E+03  0.00000000000E+00 0. -1.
          2   -1    0    0  501    0  0.00000000000E+00 -0.00000000000E+00 -0.15973832886E+03  0.15973832886E+03  0.00000000000E+00 0.  1.
         25    2    1    2    0    0 -0.95080731008E+02 -0.14105979378E+03  0.55409235204E+02  0.21830157431E+03  0.12508870120E+03 0.  0.
          5    1    3    3  502    0 -0.11206069367E+03 -0.15300493280E+03  0.53151791647E+02  0.19700429914E+03  0.41800000000E+01 0.  1.
         -5    1    3    3    0  502  0.16979962661E+02  0.11945139012E+02  0.22574435572E+01  0.21297275163E+02  0.41800000000E+01 0.  1.
        -11    1    1    2    0    0  0.80769470753E+02  0.82048551298E+02  0.63325630521E+02  0.13139942031E+03  0.00000000000E+00 0. -1.
         11    1    1    2    0    0  0.14311260255E+02  0.59011242487E+02 -0.23426449140E+02  0.65084079692E+02  0.00000000000E+00 0.  1.
</event>
<event>
 7    1  0.2626349E-009  0.1169403E+03  0.7561462E-02  0.1248232E+00
          1   -1    0    0  501    0  0.00000000000E+00  0.00000000000E+00  0.84637480879E+03  0.84637480879E+03  0.00000000000E+00 0. -1.
         -1   -1    0    0    0  501 -0.00000000000E+00 -0.00000000000E+00 -0.21274877704E+02  0.21274877704E+02  0.00000000000E+00 0.  1.
         25    2    1    2    0    0  0.43747398384E+02  0.60607095798E+02  0.49947489583E+03  0.52029824742E+03  0.12509212516E+03 0.  0.
          5    1    3    3  502    0 -0.22017400714E+02  0.37092527110E+02  0.37508966546E+03  0.37758489249E+03  0.41800000000E+01 0.  1.
         -5    1    3    3    0  502  0.65764799098E+02  0.23514568688E+02  0.12438523037E+03  0.14271335493E+03  0.41800000000E+01 0.  1.
        -11    1    1    2    0    0  0.19796240180E+02 -0.53003094668E+02  0.16589123149E+03  0.17527441301E+03  0.00000000000E+00 0.  1.
         11    1    1    2    0    0 -0.63543638564E+02 -0.76040011299E+01  0.15973380376E+03  0.17207702606E+03  0.00000000000E+00 0. -1.
</event>
<event>
 7    1  0.2626349E-009  0.9010351E+02  0.7561462E-02  0.1302601E+00
          2   -1    0    0  501    0  0.00000000000E+00  0.00000000000E+00  0.89471472830E+03  0.89471472830E+03  0.00000000000E+00 0. -1.
         -2   -1    0    0    0  501 -0.00000000000E+00 -0.00000000000E+00 -0.17151333995E+02  0.17151333995E+02  0.00000000000E+00 0.  1.
         25    2    1    2    0    0  0.16490820007E+02 -0.52649098711E+02  0.60194426703E+03  0.61727509560E+03  0.12509104004E+03 0.  0.
          5    1    3    3  502    0  0.27000534565E+02 -0.58028926058E+02  0.60132401797E+03  0.60473500983E+03  0.41800000000E+01 0.  1.
         -5    1    3    3    0  502 -0.10509714558E+02  0.53798273463E+01  0.62024906493E+00  0.12540085776E+02  0.41800000000E+01 0.  1.
        -11    1    1    2    0    0  0.24115996231E+02 -0.12202379557E+02  0.84788024570E+02  0.88991507749E+02  0.00000000000E+00 0. -1.
         11    1    1    2    0    0 -0.40606816239E+02  0.64851478268E+02  0.19083110270E+03  0.20559945894E+03  0.00000000000E+00 0.  1.
</event>
<event>
 7    1  0.2626349E-009  0.1086005E+03  0.7561462E-02  0.1263184E+00
          1   -1    0    0  501    0  0.00000000000E+00  0.00000000000E+00  0.38530732651E+02  0.38530732651E+02  0.00000000000E+00 0. -1.
         -1   -1    0    0    0  501 -0.00000000000E+00 -0.00000000000E+00 -0.32977235704E+03  0.32977235704E+03  0.00000000000E+00 0.  1.
         25    2    1    2    0    0 -0.15506341964E+02 -0.24010591670E+02 -0.16737743734E+03  0.21090201556E+03  0.12508996157E+03 0.  0.
          5    1    3    3  502    0  0.54799529731E+02 -0.15015913012E+02 -0.82173783865E+02  0.99992345992E+02  0.41800000000E+01 0. -1.
         -5    1    3    3    0  502 -0.70305871694E+02 -0.89946786581E+01 -0.85203653471E+02  0.11090966957E+03  0.41800000000E+01 0. -1.
        -11    1    1    2    0    0 -0.71139182467E+01  0.52425913172E+02 -0.41021611921E+02  0.66946671682E+02  0.00000000000E+00 0. -1.
         11    1    1    2    0    0  0.22620260210E+02 -0.28415321502E+02 -0.82842575132E+02  0.90454402450E+02  0.00000000000E+00 0.  1.
</event>
<event>
 7    1  0.2626349E-009  0.9998153E+02  0.7561462E-02  0.1280335E+00
         -1   -1    0    0    0  501 -0.00000000000E+00  0.00000000000E+00  0.20229129039E+03  0.20229129039E+03  0.00000000000E+00 0.  1.
          1   -1    0    0  501    0  0.00000000000E+00 -0.00000000000E+00 -0.91487139362E+02  0.91487139362E+02  0.00000000000E+00 0. -1.
         25    2    1    2    0    0  0.29001803672E+02  0.17712116403E+02 -0.20381036934E+02  0.13121150187E+03  0.12508496262E+03 0.  0.
          5    1    3    3  502    0  0.65476749773E+02  0.64235219860E+01 -0.49973332925E+02  0.82724076297E+02  0.41800000000E+01 0.  1.
         -5    1    3    3    0  502 -0.36474946102E+02  0.11288594417E+02  0.29592295991E+02  0.48487425576E+02  0.41800000000E+01 0.  1.
        -11    1    1    2    0    0 -0.59662180245E+02 -0.24038976836E+02  0.81243941387E+02  0.10362444775E+03  0.00000000000E+00 0.  1.
         11    1    1    2    0    0  0.30660376574E+02  0.63268604327E+01  0.49941246577E+02  0.58942480133E+02  0.00000000000E+00 0. -1.
</event>
<event>
 7    1  0.2626349E-009  0.1330509E+03  0.7561462E-02  0.1222998E+00
         -1   -1    0    0    0  501 -0.00000000000E+00  0.00000000000E+00  0.12669664718E+03  0.12669664718E+03  0.00000000000E+00 0.  1.
          1   -1    0    0  501    0  0.00000000000E+00 -0.00000000000E+00 -0.20805900501E+03  0.20805900501E+03  0.00000000000E+00 0. -1.
         25    2    1    2    0    0 -0.10640775945E+03  0.55932873921E+02 -0.52283209183E+02  0.18119458845E+03  0.12508735854E+03 0.  0.
          5    1    3    3  502    0 -0.10348511146E+03  0.29093104839E+02 -0.86050263284E+02  0.13775956320E+03  0.41800000000E+01 0.  1.
         -5    1    3    3    0  502 -0.29226479875E+01  0.26839769082E+02  0.33767054101E+02  0.43435025248E+02  0.41800000000E+01 0.  1.
        -11    1    1    2    0    0  0.61435298172E+02 -0.26692856475E+01  0.23930026198E+02  0.65985355203E+02  0.00000000000E+00 0.  1.
         11    1    1    2    0    0  0.44972461276E+02 -0.53263588273E+02 -0.53009174843E+02  0.87575708541E+02  0.00000000000E+00 0. -1.
</event>
<event>
 7    1  0.2626349E-009  0.1330765E+03  0.7561462E-02  0.1222961E+00
         -3   -1    0    0    0  501 -0.00000000000E+00  0.00000000000E+00  0.36002133613E+03  0.36002133613E+03  0.00000000000E+00 0.  1.
          3   -1    0    0  501    0  0.00000000000E+00 -0.00000000000E+00 -0.62936079722E+02  0.62936079722E+02  0.00000000000E+00 0. -1.
         25    2    1    2    0    0 -0.12831815725E+02 -0.93409351181E+02  0.98608301467E+02  0.18509612815E+03  0.12508803761E+03 0.  0.
          5    1    3    3  502    0 -0.66470640916E+02 -0.36599769036E+02  0.32456570481E+02  0.82636496566E+02  0.41800000000E+01 0. -1.
         -5    1    3    3    0  502  0.53638825191E+02 -0.56809582145E+02  0.66151730986E+02  0.10245963158E+03  0.41800000000E+01 0. -1.
        -11    1    1    2    0    0 -0.24074624406E+02  0.29102434447E+02  0.16229835038E+02  0.41108962239E+02  0.00000000000E+00 0.  1.
         11    1    1    2    0    0  0.36906440131E+02  0.64306916734E+02  0.18224711991E+03  0.19675232547E+03  0.00000000000E+00 0. -1.
</event>
<event>
 7    1  0.2626349E-009  0.1277923E+03  0.7561462E-02  0.1230769E+00
          2   -1    0    0  501    0  0.00000000000E+00  0.00000000000E+00  0.42397503896E+03  0.42397503896E+03  0.00000000000E+00 0. -1.
         -2   -1    0    0    0  501 -0.00000000000E+00 -0.00000000000E+00 -0.49812900252E+02  0.49812900252E+02  0.00000000000E+00 0.  1.
         25    2    1    2    0    0 -0.89137752958E+02  0.26316251512E+01  0.26336786253E+03  0.30489870048E+03  0.12509245416E+03 0.  0.
          5    1    3    3  502    0 -0.36153794955E+02  0.57691759799E+02  0.73948668780E+02  0.10060474170E+03  0.41800000000E+01 0.  1.
         -5    1    3    3    0  502 -0.52983958003E+02 -0.55060134648E+02  0.18941919375E+03  0.20429395878E+03  0.41800000000E+01 0.  1.
        -11    1    1    2    0    0 -0.82197255763E+01  0.96950372079E+01 -0.78342596835E+01  0.14930949729E+02  0.00000000000E+00 0.  1.
         11    1    1    2    0    0  0.97357478534E+02 -0.12326662359E+02  0.11862853586E+03  0.15395828900E+03  0.00000000000E+00 0. -1.
</event>
<event>
 7    1  0.2626349E-009  0.1436314E+03  0.7561462E-02  0.1208525E+00
          1   -1    0    0  501    0  0.00000000000E+00  0.00000000000E+00  0.78100193005E+02  0.78100193005E+02  0.00000000000E+00 0. -1.
         -1   -1    0    0    0  501 -0.00000000000E+00 -0.00000000000E+00 -0.34892268006E+03  0.34892268006E+03  0.00000000000E+00 0.  1.
         25    2    1    2    0    0  0.17962987380E+01 -0.12409603373E+03 -0.16141745335E+03  0.23896784023E+03  0.12508789766E+03 0.  0.
          5    1    3    3  502    0 -0.37877222050E+02 -0.11769625599E+02 -0.93794698074E+02  0.10192215571E+03  0.41800000000E+01 0. -1.
         -5    1    3    3    0  502  0.39673520788E+02 -0.11232640813E+03 -0.67622755278E+02  0.13704568452E+03  0.41800000000E+01 0. -1.
        -11    1    1    2    0    0  0.15017792242E+02  0.50426380374E+02  0.28999336640E+01  0.52695004855E+02  0.00000000000E+00 0.  1.
         11    1    1    2    0    0 -0.16814090980E+02  0.73669653351E+02 -0.11230496736E+03  0.13536002798E+03  0.00000000000E+00 0. -1.
</event>
<event>
 7    1  0.2626349E-009  0.1105798E+03  0.7561462E-02  0.1259500E+00
         -2   -1    0    0    0  501 -0.00000000000E+00  0.00000000000E+00  0.47009084464E+02  0.47009084464E+02  0.00000000000E+00 0.  1.
          2   -1    0    0  501    0  0.00000000000E+00 -0.00000000000E+00 -0.34022668967E+03  0.34022668967E+03  0.00000000000E+00 0. -1.
         25    2    1    2    0    0 -0.54894845886E+02  0.20563391487E+02 -0.20110138156E+03  0.24397930757E+03  0.12509132536E+03 0.  0.
          5    1    3    3  502    0 -0.49024321151E+02 -0.42807566203E+02 -0.57876231365E+02  0.87195196803E+02  0.41800000000E+01 0.  1.
         -5    1    3    3    0  502 -0.58705247348E+01  0.63370957690E+02 -0.14322515020E+03  0.15678411076E+03  0.41800000000E+01 0.  1.
        -11    1    1    2    0    0  0.69912021881E+02 -0.28115077677E+02 -0.33837711073E+02  0.82602294684E+02  0.00000000000E+00 0.  1.
         11    1    1    2    0    0 -0.15017175995E+02  0.75516861900E+01 -0.58278512574E+02  0.60654171885E+02  0.00000000000E+00 0. -1.
</event>
<event>
 7    1  0.2626349E-009  0.1007181E+03  0.7561462E-02  0.1278793E+00
         -2   -1    0    0    0  501 -0.00000000000E+00  0.00000000000E+00  0.15998493520E+03  0.15998493520E+03  0.00000000000E+00 0. -1.
          2   -1    0    0  501    0  0.00000000000E+00 -0.00000000000E+00 -0.12174951838E+03  0.12174951838E+03  0.00000000000E+00 0.  1.
         25    2    1    2    0    0 -0.38064286436E+01 -0.47520559735E+02  0.97410446682E+02  0.16555720012E+03  0.12509076261E+03 0.  0.
          5    1    3    3  502    0  0.41011966390E+02 -0.70777140636E+02  0.71125169265E+02  0.10847878653E+03  0.41800000000E+01 0. -1.
         -5    1    3    3    0  502 -0.44818395034E+02  0.23256580901E+02  0.26285277416E+02  0.57078413586E+02  0.41800000000E+01 0. -1.
        -11    1    1    2    0    0 -0.22162080399E+02  0.30918116852E+02 -0.73061359408E+02  0.82371414919E+02  0.00000000000E+00 0.  1.
         11    1    1    2    0    0  0.25968509043E+02  0.16602442883E+02  0.13886329548E+02  0.33805838548E+02  0.00000000000E+00 0. -1.
</event>
<event>
 7    1  0.2626349E-009  0.1010678E+03  0.7561462E-02  0.1278066E+00
         -2   -1    0    0    0  501 -0.00000000000E+00  0.00000000000E+00  0.86359454380E+02  0.86359454380E+02  0.00000000000E+00 0. -1.
          2   -1    0    0  501    0  0.00000000000E+00 -0.00000000000E+00 -0.14429535714E+03  0.14429535714E+03  0.00000000000E+00 0.  1.
         25    2    1    2    0    0  0.19047310422E+02  0.10841781932E+02 -0.10838079744E+02  0.12746218481E+03  0.12509516503E+03 0.  0.
          5    1    3    3  502    0  0.26718750170E+02 -0.53059270178E+02 -0.18862211441E+02  0.62469458001E+02  0.41800000000E+01 0.  1.
         -5    1    3    3    0  502 -0.76714397481E+01  0.63901052110E+02  0.80241316968E+01  0.64992726809E+02  0.41800000000E+01 0.  1.
        -11    1    1    2    0    0 -0.22586448537E+02 -0.41487345093E+02 -0.53830203515E+02  0.71617304270E+02  0.00000000000E+00 0.  1.
         11    1    1    2    0    0  0.35391381145E+01  0.30645563161E+02  0.67323804987E+01  0.31575322440E+02  0.00000000000E+00 0. -1.
</event>
<event>
 7    1  0.2626349E-009  0.1018559E+03  0.7561462E-02  0.1276441E+00
          2   -1    0    0  501    0  0.00000000000E+00  0.00000000000E+00  0.53905424450E+02  0.53905424450E+02  0.00000000000E+00 0. -1.
         -2   -1    0    0    0  501 -0.00000000000E+00 -0.00000000000E+00 -0.23500566274E+03  0.23500566274E+03  0.00000000000E+00 0.  1.
         25    2    1    2    0    0  0.26224364767E+01  0.27985057797E+02 -0.11066150112E+03  0.16935773799E+03  0.12508411151E+03 0.  0.
          5    1    3    3  502    0  0.11483343712E+02 -0.48467367723E+02 -0.32722150927E+02  0.59742484700E+02  0.41800000000E+01 0. -1.
         -5    1    3    3    0  502 -0.88609072351E+01  0.76452425521E+02 -0.77939350189E+02  0.10961525329E+03  0.41800000000E+01 0. -1.
        -11    1    1    2    0    0  0.30565208770E+02 -0.30738161104E+02 -0.19435558877E+01  0.43391749731E+02  0.00000000000E+00 0. -1.
         11    1    1    2    0    0 -0.33187645247E+02  0.27531033071E+01 -0.68495181290E+02  0.76161599476E+02  0.00000000000E+00 0.  1.
</event>
<event>
 7    1  0.2626349E-009  0.1381588E+03  0.7561462E-02  0.1215828E+00
          2   -1    0    0  501    0  0.00000000000E+00  0.00000000000E+00  0.58743172464E+03  0.58743172464E+03  0.00000000000E+00 0. -1.
         -2   -1    0    0    0  501 -0.00000000000E+00 -0.00000000000E+00 -0.48744905634E+02  0.48744905634E+02  0.00000000000E+00 0.  1.
         25    2    1    2    0    0 -0.85797611070E+02 -0.73173450793E+02  0.16619363959E+03  0.23660736582E+03  0.12508851168E+03 0.  0.
          5    1    3    3  502    0 -0.97049729095E+02 -0.61380899365E+02  0.18086677614E+03  0.21428142205E+03  0.41800000000E+01 0.  1.
         -5    1    3    3    0  502  0.11252118025E+02 -0.11792551428E+02 -0.14673136547E+02  0.22325943773E+02  0.41800000000E+01 0.  1.
        -11    1    1    2    0    0  0.19373750058E+02 -0.21494126466E+02  0.74954971418E+02  0.80346670149E+02  0.00000000000E+00 0.  1.
         11    1    1    2    0    0  0.66423861012E+02  0.94667577259E+02  0.29753820800E+03  0.31922259431E+03  0.00000000000E+00 0. -1.
</event>
<event>
 7    1  0.2626349E-009  0.2065633E+03  0.7561462E-02  0.1144317E+00
          2   -1    0    0  501    0  0.00000000000E+00  0.00000000000E+00  0.52674874439E+03  0.52674874439E+03  0.00000000000E+00 0. -1.
         -2   -1    0    0    0  501 -0.00000000000E+00 -0.00000000000E+00 -0.95598564236E+02  0.95598564236E+02  0.00000000000E+00 0.  1.
         25    2    1    2    0    0 -0.18522401644E+03  0.38762391337E+02  0.15513853670E+03  0.27482514960E+03  0.12510171077E+03 0.  0.
          5    1    3    3  502    0 -0.19752635074E+03  0.52587038817E+02  0.15373602282E+03  0.25580127638E+03  0.41800000000E+01 0. -1.
         -5    1    3    3    0  502  0.12302334297E+02 -0.13824647479E+02  0.14025138791E+01  0.19023873219E+02  0.41800000000E+01 0. -1.
        -11    1    1    2    0    0  0.10528032293E+03 -0.28761850774E+02  0.79167254347E+02  0.13482820409E+03  0.00000000000E+00 0.  1.
         11    1    1    2    0    0  0.79943693505E+02 -0.10000540563E+02  0.19684438911E+03  0.21269395493E+03  0.00000000000E+00 0. -1.
</event>
<event>
 7    1  0.2626349E-009  0.6870140E+02  0.7561462E-02  0.1364566E+00
          2   -1    0    0  501    0  0.00000000000E+00  0.00000000000E+00  0.29873255649E+03  0.29873255649E+03  0.00000000000E+00 0. -1.
         -2   -1    0    0    0  501 -0.00000000000E+00 -0.00000000000E+00 -0.47728222371E+02  0.47728222371E+02  0.00000000000E+00 0.  1.
         25    2    1    2    0    0 -0.27027313485E+02 -0.40416672435E+02  0.15505033724E+03  0.20506656125E+03  0.12509078456E+03 0.  0.
          5    1    3    3  502    0  0.13438339461E+02 -0.40316569920E+02 -0.20824795572E+01  0.42753057185E+02  0.41800000000E+01 0. -1.
         -5    1    3    3    0  502 -0.40465652946E+02 -0.10010251520E+00  0.15713281680E+03  0.16231350407E+03  0.41800000000E+01 0. -1.
        -11    1    1    2    0    0  0.28969684301E+02  0.24373549448E+02  0.11223878619E+03  0.11845192125E+03  0.00000000000E+00 0. -1.
         11    1    1    2    0    0 -0.19423708158E+01  0.16043122987E+02 -0.16284789309E+02  0.22942296363E+02  0.00000000000E+00 0.  1.
</event>
<event>
 7    1  0.2626349E-009  0.9137853E+02  0.7561462E-02  0.1299547E+00
         -1   -1    0    0    0  501 -0.00000000000E+00  0.00000000000E+00  0.55851297454E+02  0.55851297454E+02  0.00000000000E+00 0.  1.
          1   -1    0    0  501    0  0.00000000000E+00 -0.00000000000E+00 -0.21146851786E+03  0.21146851786E+03  0.00000000000E+00 0. -1.
         25    2    1    2    0    0  0.12330029042E+01 -0.12522784216E+01 -0.74752667533E+02  0.14573102362E+03  0.12508589627E+03 0.  0.
          5    1    3    3  502    0 -0.82373018146E+01 -0.50832484137E+02  0.43009879962E+01  0.51843663861E+02  0.41800000000E+01 0. -1.
         -5    1    3    3    0  502  0.94703047188E+01  0.49580205716E+02 -0.79053655529E+02  0.93887359761E+02  0.41800000000E+01 0. -1.
        -11    1    1    2    0    0 -0.75587520105E+01  0.40240731837E+02 -0.12808459654E+02  0.42901140655E+02  0.00000000000E+00 0.  1.
         11    1    1    2    0    0  0.63257491063E+01 -0.38988453416E+02 -0.68056093217E+02  0.78687651036E+02  0.00000000000E+00 0. -1.
</event>
<event>
 7    1  0.2626349E-009  0.1318590E+03  0.7561462E-02  0.1224723E+00
         -2   -1    0    0    0  501 -0.00000000000E+00  0.00000000000E+00  0.42067960260E+02  0.42067960260E+02  0.00000000000E+00 0.  1.
          2   -1    0    0  501    0  0.00000000000E+00 -0.00000000000E+00 -0.54775615718E+03  0.54775615718E+03  0.00000000000E+00 0. -1.
         25    2    1    2    0    0 -0.64874908593E+01 -0.86247810138E+02 -0.39369020230E+03  0.42204309950E+03  0.12509048786E+03 0.  0.
          5    1    3    3  502    0 -0.52998760684E+02 -0.70963372260E+01 -0.90178462546E+02  0.10492308680E+03  0.41800000000E+01 0.  1.
         -5    1    3    3    0  502  0.46511269825E+02 -0.79151472912E+02 -0.30351173975E+03  0.31712001270E+03  0.41800000000E+01 0.  1.
        -11    1    1    2    0    0 -0.33159738794E+02  0.14463063983E+02 -0.61862136557E+02  0.71663606078E+02  0.00000000000E+00 0.  1.
         11    1    1    2    0    0  0.39647229653E+02  0.71784746155E+02 -0.50135858059E+02  0.96117411862E+02  0.00000000000E+00 0. -1.
</event>
<event>
 7    1  0.2626349E-009  0.1279022E+03  0.7561462E-02  0.1230602E+00
          2   -1    0    0  501    0  0.00000000000E+00  0.00000000000E+00  0.11543333446E+03  0.11543333446E+03  0.00000000000E+00 0.  1.
         -2   -1    0    0    0  501 -0.00000000000E+00 -0.00000000000E+00 -0.22045996839E+03  0.22045996839E+03  0.00000000000E+00 0. -1.
         25    2    1    2    0    0  0.66213087166E+02  0.75078568257E+02  0.10251476626E+02  0.16054048981E+03  0.12508873559E+03 0.  0.
          5    1    3    3  502    0  0.95853536625E+02  0.67436940694E+02 -0.18036012505E+02  0.11865248249E+03  0.41800000000E+01 0.  1.
         -5    1    3    3    0  502 -0.29640449459E+02  0.76416275633E+01  0.28287489132E+02  0.41888007321E+02  0.41800000000E+01 0.  1.
        -11    1    1    2    0    0 -0.86654655049E+01 -0.38465772296E+02 -0.97046793713E+02  0.10475106730E+03  0.00000000000E+00 0. -1.
         11    1    1    2    0    0 -0.57547621661E+02 -0.36612795961E+02 -0.18231316845E+02  0.70601745735E+02  0.00000000000E+00 0.  1.
</event>
<event>
 7    1  0.2626349E-009  0.1053802E+03  0.7561462E-02  0.1269372E+00
          1   -1    0    0  501    0  0.00000000000E+00  0.00000000000E+00  0.10504027533E+03  0.10504027533E+03  0.00000000000E+00 0. -1.
         -1   -1    0    0    0  501 -0.00000000000E+00 -0.00000000000E+00 -0.15681746113E+03  0.15681746113E+03  0.00000000000E+00 0.  1.
         25    2    1    2    0    0 -0.21521532835E+02  0.58619047381E+02 -0.61096013473E+02  0.15257477651E+03  0.12508785102E+03 0.  0.
          5    1    3    3  502    0  0.43553090922E+02 -0.44568309180E+01 -0.14560219257E+01  0.44003721099E+02  0.41800000000E+01 0.  1.
         -5    1    3    3    0  502 -0.65074623757E+02  0.63075878299E+02 -0.59639991547E+02  0.10857105541E+03  0.41800000000E+01 0.  1.
        -11    1    1    2    0    0 -0.13418878559E+02 -0.18532515500E+02 -0.33803528766E+02  0.40819100793E+02  0.00000000000E+00 0.  1.
         11    1    1    2    0    0  0.34940411394E+02 -0.40086531881E+02  0.43122356442E+02  0.68463859165E+02  0.00000000000E+00 0. -1.
</event>
<event>
 7    1  0.2626349E-009  0.1323682E+03  0.7561462E-02  0.1223983E+00
          1   -1    0    0  501    0  0.00000000000E+00  0.00000000000E+00  0.64463702980E+03  0.64463702980E+03  0.00000000000E+00 0. -1.
         -1   -1    0    0    0  501 -0.00000000000E+00 -0.00000000000E+00 -0.31416356603E+02  0.31416356603E+02  0.00000000000E+00 0.  1.
         25    2    1    2    0    0 -0.35021235711E+02  0.79779512708E+02  0.33334710012E+03  0.36654997457E+03  0.12508931648E+03 0.  0.
          5    1    3    3  502    0 -0.79579864134E+02  0.29134762705E+02  0.18739881467E+03  0.20571236548E+03  0.41800000000E+01 0. -1.
         -5    1    3    3    0  502  0.44558628423E+02  0.50644750004E+02  0.14594828546E+03  0.16083760909E+03  0.41800000000E+01 0. -1.
        -11    1    1    2    0    0  0.28643917357E+01  0.13414206083E+02  0.10414736833E+01  0.13756101638E+02  0.00000000000E+00 0.  1.
         11    1    1    2    0    0  0.32156843975E+02 -0.93193718791E+02  0.27883209939E+03  0.29574731019E+03  0.00000000000E+00 0. -1.
</event>
<event>
 7    1  0.2626349E-009  0.1136202E+03  0.7561462E-02  0.1254009E+00
          2   -1    0    0  501    0  0.00000000000E+00  0.00000000000E+00  0.66002632678E+03  0.66002632678E+03  0.00000000000E+00 0. -1.
         -2   -1    0    0    0  501 -0.00000000000E+00 -0.00000000000E+00 -0.22149754774E+02  0.22149754774E+02  0.00000000000E+00 0.  1.
         25    2    1    2    0    0 -0.11347683339E+02  0.54417178519E+02  0.39325358702E+03  0.41639577598E+03  0.12508820616E+03 0.  0.
          5    1    3    3  502    0 -0.65530781945E+02  0.48030346701E+02  0.21247902496E+03  0.22752144082E+03  0.41800000000E+01 0.  1.
         -5    1    3    3    0  502  0.54183098606E+02  0.63868318187E+01  0.18077456206E+03  0.18887433516E+03  0.41800000000E+01 0.  1.
        -11    1    1    2    0    0 -0.29240755649E+02 -0.97738093022E+01  0.30691182171E+02  0.43502848208E+02  0.00000000000E+00 0.  1.
         11    1    1    2    0    0  0.40588438988E+02 -0.44643369217E+02  0.21393180282E+03  0.22227745736E+03  0.00000000000E+00 0. -1.
</event>
<event>
 7    1  0.2626349E-009  0.1196094E+03  0.7561462E-02  0.1243743E+00
          2   -1    0    0  501    0  0.00000000000E+00  0.00000000000E+00  0.19258356149E+03  0.19258356149E+03  0.00000000000E+00 0. -1.
         -2   -1    0    0    0  501 -0.00000000000E+00 -0.00000000000E+00 -0.85274855895E+02  0.85274855895E+02  0.00000000000E+00 0.  1.
         25    2    1    2    0    0  0.55677386930E+02 -0.44497494112E+02  0.51939820394E+02  0.15304277164E+03  0.12507736250E+03 0.  0.
          5    1    3    3  502    0  0.55950261620E+02 -0.80853677479E+02  0.60414223383E+02  0.11547770228E+03  0.41800000000E+01 0.  1.
         -5    1    3    3    0  502 -0.27287468990E+00  0.36356183367E+02 -0.84744029889E+01  0.37565069355E+02  0.41800000000E+01 0.  1.
        -11    1    1    2    0    0 -0.70462712603E+02  0.16229897547E+02  0.15844139615E+02  0.74023240958E+02  0.00000000000E+00 0.  1.
         11    1    1    2    0    0  0.14785325673E+02  0.28267596564E+02  0.39524745585E+02  0.50792404790E+02  0.00000000000E+00 0. -1.
</event>
<event>
 7    1  0.2626349E-009  0.1337395E+03  0.7561462E-02  0.1222010E+00
         -1   -1    0    0    0  501 -0.00000000000E+00  0.00000000000E+00  0.46005992630E+03  0.46005992630E+03  0.00000000000E+00 0.  1.
          1   -1    0    0  501    0  0.00000000000E+00 -0.00000000000E+00 -0.49682841469E+02  0.49682841469E+02  0.00000000000E+00 0. -1.
         25    2    1    2    0    0  0.78181988858E+00  0.98924618015E+02  0.20320990106E+03  0.25832086045E+03  0.12509481111E+03 0.  0.
          5    1    3    3  502    0  0.26918412076E+02 -0.74366353564E+00  0.12752612248E+03  0.13040528463E+03  0.41800000000E+01 0.  1.
         -5    1    3    3    0  502 -0.26136592188E+02  0.99668281550E+02  0.75683778571E+02  0.12791557582E+03  0.41800000000E+01 0.  1.
        -11    1    1    2    0    0  0.79770861274E+01  0.18085856970E+02  0.60182961417E+02  0.63346041474E+02  0.00000000000E+00 0. -1.
         11    1    1    2    0    0 -0.87589060160E+01 -0.11701047498E+03  0.14698422236E+03  0.18807586585E+03  0.00000000000E+00 0.  1.
</event>
<event>
 7    1  0.2626349E-009  0.1235071E+03  0.7561462E-02  0.1237421E+00
         -1   -1    0    0    0  501 -0.00000000000E+00  0.00000000000E+00  0.98733498161E+02  0.98733498161E+02  0.00000000000E+00 0.  1.
          1   -1    0    0  501    0  0.00000000000E+00 -0.00000000000E+00 -0.25751376234E+03  0.25751376234E+03  0.00000000000E+00 0. -1.
         25    2    1    2    0    0  0.45941463861E+02  0.94388733480E+02 -0.14275310473E+03  0.21690396910E+03  0.12509609023E+03 0.  0.
          5    1    3    3  502    0 -0.90108993387E+01  0.11261043336E+02  0.20610807416E+02  0.25500689917E+02  0.41800000000E+01 0.  1.
         -5    1    3    3    0  502  0.54952363200E+02  0.83127690145E+02 -0.16336391215E+03  0.19140327918E+03  0.41800000000E+01 0.  1.
        -11    1    1    2    0    0 -0.31291530117E+02  0.50959777835E+01  0.13621188344E+02  0.34506022932E+02  0.00000000000E+00 0.  1.
         11    1    1    2    0    0 -0.14649933744E+02 -0.99484711264E+02 -0.29648347796E+02  0.10483726847E+03  0.00000000000E+00 0. -1.
</event>
<event>
 7    1  0.2626349E-009  0.2094037E+03  0.7561462E-02  0.1142039E+00
         -1   -1    0    0    0  501 -0.00000000000E+00  0.00000000000E+00  0.74315118367E+02  0.74315118367E+02  0.00000000000E+00 0.  1.
          1   -1    0    0  501    0  0.00000000000E+00 -0.00000000000E+00 -0.73026709566E+03  0.73026709566E+03  0.00000000000E+00 0. -1.
         25    2    1    2    0    0  0.20679467482E+03 -0.71378075308E+01 -0.33950226509E+03  0.41680235591E+03  0.12508968809E+03 0.  0.
          5    1    3    3  502    0  0.18695365217E+03  0.61156485934E+01 -0.19484789500E+03  0.27013375169E+03  0.41800000000E+01 0. -1.
         -5    1    3    3    0  502  0.19841022650E+02 -0.13253456124E+02 -0.14465437009E+03  0.14666860422E+03  0.41800000000E+01 0. -1.
        -11    1    1    2    0    0 -0.74631447327E+02  0.99384223514E+01 -0.50117945727E+02  0.90445749778E+02  0.00000000000E+00 0. -1.
         11    1    1    2    0    0 -0.13216322749E+03 -0.28006148206E+01 -0.26633176647E+03  0.29733410833E+03  0.00000000000E+00 0.  1.
</event>
<event>
 7    1  0.2626349E-009  0.9996199E+02  0.7561462E-02  0.1280376E+00
          2   -1    0    0  501    0  0.00000000000E+00  0.00000000000E+00  0.30663083627E+03  0.30663083627E+03  0.00000000000E+00 0.  1.
         -2   -1    0    0    0  501 -0.00000000000E+00 -0.00000000000E+00 -0.50487541537E+02  0.50487541537E+02  0.00000000000E+00 0. -1.
         25    2    1    2    0    0 -0.32307319429E+02  0.51387057750E+02  0.13635852355E+03  0.19474395355E+03  0.12508864020E+03 0.  0.
          5    1    3    3  502    0 -0.42610792868E+02  0.64497943910E+02  0.23959994317E+02  0.81038374646E+02  0.41800000000E+01 0. -1.
         -5    1    3    3    0  502  0.10303473439E+02 -0.13110886160E+02  0.11239852923E+03  0.11370557891E+03  0.41800000000E+01 0. -1.
        -11    1    1    2    0    0 -0.53849147482E+01 -0.65014851399E+02  0.95023928863E+02  0.11526263604E+03  0.00000000000E+00 0.  1.
         11    1    1    2    0    0  0.37692234177E+02  0.13627793649E+02  0.24760842321E+02  0.47111788222E+02  0.00000000000E+00 0. -1.
</event>
<event>
 7    1  0.2626349E-009  0.1622945E+03  0.7561462E-02  0.1186130E+00
         -2   -1    0    0    0  501 -0.00000000000E+00  0.00000000000E+00  0.13192208674E+03  0.13192208674E+03  0.00000000000E+00 0.  1.
          2   -1    0    0  501    0  0.00000000000E+00 -0.00000000000E+00 -0.28030097419E+03  0.28030097419E+03  0.00000000000E+00 0. -1.
         25    2    1    2    0    0  0.18275631946E+02 -0.14616494278E+03 -0.13476231584E+02  0.19372025871E+03  0.12509092931E+03 0.  0.
          5    1    3    3  502    0 -0.36092873463E+02 -0.86884741051E+02  0.34116103699E+02  0.10016503718E+03  0.41800000000E+01 0. -1.
         -5    1    3    3    0  502  0.54368505409E+02 -0.59280201731E+02 -0.47592335283E+02  0.93555221529E+02  0.41800000000E+01 0. -1.
        -11    1    1    2    0    0  0.72100284550E+01  0.43067837320E+02  0.37767701681E+01  0.43830207787E+02  0.00000000000E+00 0.  1.
         11    1    1    2    0    0 -0.25485660401E+02  0.10309710546E+03 -0.13867942603E+03  0.17467259443E+03  0.00000000000E+00 0. -1.
</event>
<event>
 7    1  0.2626349E-009  0.9704663E+02  0.7561462E-02  0.1286632E+00
         -1   -1    0    0    0  501 -0.00000000000E+00  0.00000000000E+00  0.79276354612E+02  0.79276354612E+02  0.00000000000E+00 0.  1.
          1   -1    0    0  501    0  0.00000000000E+00 -0.00000000000E+00 -0.24465972068E+03  0.24465972068E+03  0.00000000000E+00 0. -1.
         25    2    1    2    0    0 -0.31964729388E+02  0.71517722142E+02 -0.13527609988E+03  0.20021318470E+03  0.12509663314E+03 0.  0.
          5    1    3    3  502    0  0.16685940152E+02 -0.84621496215E+01  0.14155517626E+02  0.23830225644E+02  0.41800000000E+01 0. -1.
         -5    1    3    3    0  502 -0.48650669541E+02  0.79979871763E+02 -0.14943161751E+03  0.17638295906E+03  0.41800000000E+01 0. -1.
        -11    1    1    2    0    0  0.18390534699E+02 -0.17038494278E+02  0.31573064240E+02  0.40316007234E+02  0.00000000000E+00 0.  1.
         11    1    1    2    0    0  0.13574194689E+02 -0.54479227865E+02 -0.61680330426E+02  0.83406883359E+02  0.00000000000E+00 0. -1.
</event>
<event>
 7    1  0.2626349E-009  0.8807316E+02  0.7561462E-02  0.1307586E+00
          1   -1    0    0  501    0  0.00000000000E+00  0.00000000000E+00  0.35459259606E+03  0.35459259606E+03  0.00000000000E+00 0. -1.
         -1   -1    0    0    0  501 -0.00000000000E+00 -0.00000000000E+00 -0.81200141365E+02  0.81200141365E+02  0.00000000000E+00 0.  1.
         25    2    1    2    0    0  0.60123930790E+02  0.60209064021E+02  0.27185639525E+03  0.31111684140E+03  0.12509105053E+03 0.  0.
          5    1    3    3  502    0  0.19877888509E+02  0.40100428957E+02  0.26073897258E+03  0.26458544759E+03  0.41800000000E+01 0. -1.
         -5    1    3    3    0  502  0.40246042280E+02  0.20108635064E+02  0.11117422667E+02  0.46531393812E+02  0.41800000000E+01 0. -1.
        -11    1    1    2    0    0 -0.40587454480E+02 -0.31939668855E+02 -0.43847723998E+02  0.67750326992E+02  0.00000000000E+00 0.  1.
         11    1    1    2    0    0 -0.19536476309E+02 -0.28269395166E+02  0.45383783446E+02  0.56925569031E+02  0.00000000000E+00 0. -1.
</event>
<event>
 7    1  0.2626349E-009  0.1889546E+03  0.7561462E-02  0.1159408E+00
          2   -1    0    0  501    0  0.00000000000E+00  0.00000000000E+00  0.14022935016E+04  0.14022935016E+04  0.00000000000E+00 0. -1.
         -2   -1    0    0    0  501 -0.00000000000E+00 -0.00000000000E+00 -0.29239646251E+02  0.29239646251E+02  0.00000000000E+00 0.  1.
         25    2    1    2    0    0  0.38914113816E+02 -0.16675259916E+03  0.72274755810E+03  0.75321472369E+03  0.12509056581E+03 0.  0.
          5    1    3    3  502    0  0.14389500703E+02 -0.16672191758E+03  0.46395523546E+03  0.49322934670E+03  0.41800000000E+01 0.  1.
         -5    1    3    3    0  502  0.24524613113E+02 -0.30681574915E-01  0.25879232264E+03  0.25998537699E+03  0.41800000000E+01 0.  1.
        -11    1    1    2    0    0  0.11294762872E+02  0.10698119462E+03  0.28180554728E+03  0.30164037221E+03  0.00000000000E+00 0. -1.
         11    1    1    2    0    0 -0.50208876688E+02  0.59771404538E+02  0.36850075001E+03  0.37667805200E+03  0.00000000000E+00 0.  1.
</event>
<event>
 7    1  0.2626349E-009  0.1421260E+03  0.7561462E-02  0.1210497E+00
          1   -1    0    0  501    0  0.00000000000E+00  0.00000000000E+00  0.25341122153E+03  0.25341122153E+03  0.00000000000E+00 0. -1.
         -1   -1    0    0    0  501 -0.00000000000E+00 -0.00000000000E+00 -0.10005669744E+03  0.10005669744E+03  0.00000000000E+00 0.  1.
         25    2    1    2    0    0 -0.15989240117E+02  0.11102780044E+03  0.49494484906E+02  0.17515207824E+03  0.12508284536E+03 0.  0.
          5    1    3    3  502    0  0.44524731154E+02  0.43690039993E+01  0.81057585283E+01  0.45658685938E+02  0.41800000000E+01 0.  1.
         -5    1    3    3    0  502 -0.60513971270E+02  0.10665879645E+03  0.41388726377E+02  0.12949339230E+03  0.41800000000E+01 0.  1.
        -11    1    1    2    0    0  0.15126998903E+02 -0.17689367529E+02 -0.14618219886E+02  0.27485126378E+02  0.00000000000E+00 0.  1.
         11    1    1    2    0    0  0.86224121350E+00 -0.93338432916E+02  0.11847825907E+03  0.15083071435E+03  0.00000000000E+00 0. -1.
</event>
<event>
 7    1  0.2626349E-009  0.1173245E+03  0.7561462E-02  0.1247577E+00
         -2   -1    0    0    0  501 -0.00000000000E+00  0.00000000000E+00  0.48137073171E+02  0.48137073171E+02  0.00000000000E+00 0. -1.
          2   -1    0    0  501    0  0.00000000000E+00 -0.00000000000E+00 -0.45454706690E+03  0.45454706690E+03  0.00000000000E+00 0.  1.
         25    2    1    2    0    0  0.52021370374E+02  0.26109808008E+02 -0.80060016162E+02  0.15951563046E+03  0.12509070758E+03 0.  0.
          5    1    3    3  502    0  0.77457205939E+02 -0.20426294505E+02 -0.27673560968E+02  0.84853701367E+02  0.41800000000E+01 0.  1.
         -5    1    3    3    0  502 -0.25435835565E+02  0.46536102513E+02 -0.52386455194E+02  0.74661929092E+02  0.41800000000E+01 0.  1.
        -11    1    1    2    0    0  0.22398076136E+02 -0.12277745919E+02 -0.13492140638E+03  0.13731788943E+03  0.00000000000E+00 0.  1.
         11    1    1    2    0    0 -0.74419446510E+02 -0.13832062089E+02 -0.19142857119E+03  0.20585062018E+03  0.00000000000E+00 0. -1.
</event>
<event>
 7    1  0.2626349E-009  0.7920707E+02  0.7561462E-02  0.1331317E+00
          2   -1    0    0  501    0  0.00000000000E+00  0.00000000000E+00  0.43046922057E+02  0.43046922057E+02  0.00000000000E+00 0. -1.
         -2   -1    0    0    0  501 -0.00000000000E+00 -0.00000000000E+00 -0.39413739011E+03  0.39413739011E+03  0.00000000000E+00 0.  1.
         25    2    1    2    0    0  0.22823457306E+02 -0.41396216042E+02 -0.29123115842E+03  0.32046488036E+03  0.12509034736E+03 0.  0.
          5    1    3    3  502    0  0.55631671082E+02 -0.45346064721E+02 -0.83960751526E+02  0.11053519173E+03  0.41800000000E+01 0. -1.
         -5    1    3    3    0  502 -0.32808213775E+02  0.39498486790E+01 -0.20727040689E+03  0.20992968863E+03  0.41800000000E+01 0. -1.
        -11    1    1    2    0    0 -0.16862684822E+02  0.69241215214E+01  0.21482142471E+02  0.28174031366E+02  0.00000000000E+00 0.  1.
         11    1    1    2    0    0 -0.59607724848E+01  0.34472094520E+02 -0.81341452106E+02  0.88545400445E+02  0.00000000000E+00 0. -1.
</event>
<event>
 7    1  0.2626349E-009  0.1195416E+03  0.7561462E-02  0.1243855E+00
          2   -1    0    0  501    0  0.00000000000E+00  0.00000000000E+00  0.30736398424E+03  0.30736398424E+03  0.00000000000E+00 0. -1.
         -2   -1    0    0    0  501 -0.00000000000E+00 -0.00000000000E+00 -0.57929711173E+02  0.57929711173E+02  0.00000000000E+00 0.  1.
         25    2    1    2    0    0 -0.16913933991E+02  0.60664421567E+02  0.18929015318E+03  0.23546645335E+03  0.12508970924E+03 0.  0.
          5    1    3    3  502    0 -0.67142752073E+01 -0.35379427715E+02  0.22449480781E+02  0.42640790147E+02  0.41800000000E+01 0.  1.
         -5    1    3    3    0  502 -0.10199658784E+02  0.96043849282E+02  0.16684067240E+03  0.19282566321E+03  0.41800000000E+01 0.  1.
        -11    1    1    2    0    0  0.50325778244E+02 -0.21636472558E+02  0.55914955318E+02  0.78277091980E+02  0.00000000000E+00 0. -1.
         11    1    1    2    0    0 -0.33411844252E+02 -0.39027949009E+02  0.42291645666E+01  0.51550150078E+02  0.00000000000E+00 0.  1.
</event>
<event>
 7    1  0.2626349E-009  0.1901781E+03  0.7561462E-02  0.1158301E+00
         -2   -1    0    0    0  501 -0.00000000000E+00  0.00000000000E+00  0.69747928138E+02  0.69747928138E+02  0.00000000000E+00 0.  1.
          2   -1    0    0  501    0  0.00000000000E+00 -0.00000000000E+00 -0.69338383832E+03  0.69338383832E+03  0.00000000000E+00 0. -1.
         25    2    1    2    0    0  0.14090637138E+03 -0.12467100895E+03 -0.27049719547E+03  0.35243858725E+03  0.12508700595E+03 0.  0.
          5    1    3    3  502    0  0.71280128291E+02 -0.59073363214E+02 -0.36485427616E+02  0.99595068949E+02  0.41800000000E+01 0. -1.
         -5    1    3    3    0  502  0.69626243085E+02 -0.65597645741E+02 -0.23401176785E+03  0.25284351830E+03  0.41800000000E+01 0. -1.
        -11    1    1    2    0    0 -0.82880672510E+02  0.47988923732E+02 -0.93607948682E+02  0.13392009085E+03  0.00000000000E+00 0.  1.
         11    1    1    2    0    0 -0.58025698867E+02  0.76682085223E+02 -0.25953076604E+03  0.27677308836E+03  0.00000000000E+00 0. -1.
</event>
<event>
 7    1  0.2626349E-009  0.8646936E+02  0.7561462E-02  0.1311634E+00
         -1   -1    0    0    0  501 -0.00000000000E+00  0.00000000000E+00  0.29844250218E+03  0.29844250218E+03  0.00000000000E+00 0.  1.
          1   -1    0    0  501    0  0.00000000000E+00 -0.00000000000E+00 -0.42766126145E+02  0.42766126145E+02  0.00000000000E+00 0. -1.
         25    2    1    2    0    0  0.51706785622E+01 -0.31581549921E+02  0.11029824290E+03  0.16981607241E+03  0.12509063054E+03 0.  0.
          5    1    3    3  502    0  0.33216355180E+02 -0.40404765437E+02 -0.31292908910E+01  0.52565541783E+02  0.41800000000E+01 0.  1.
         -5    1    3    3    0  502 -0.28045676618E+02  0.88232155152E+01  0.11342753379E+03  0.11725053062E+03  0.41800000000E+01 0.  1.
        -11    1    1    2    0    0 -0.44968730318E+02  0.20743471387E+02  0.78190697528E+02  0.92554111154E+02  0.00000000000E+00 0.  1.
         11    1    1    2    0    0  0.39798051756E+02  0.10838078534E+02  0.67187435606E+02  0.78838444767E+02  0.00000000000E+00 0. -1.
</event>
<event>
 7    1  0.2626349E-009  0.2466365E+03  0.7561462E-02  0.1115449E+00
         -1   -1    0    0    0  501 -0.00000000000E+00  0.00000000000E+00  0.94329387715E+02  0.94329387715E+02  0.00000000000E+00 0.  1.
          1   -1    0    0  501    0  0.00000000000E+00 -0.00000000000E+00 -0.13165119366E+04  0.13165119366E+04  0.00000000000E+00 0. -1.
         25    2    1    2    0    0 -0.19922933342E+03 -0.12512286084E+03 -0.10971150191E+04  0.11290089243E+04  0.12510686789E+03 0.  0.
          5    1    3    3  502    0 -0.65496209542E+02  0.10463854802E+02 -0.17003487244E+03  0.18256115679E+03  0.41800000000E+01 0. -1.
         -5    1    3    3    0  502 -0.13373312388E+03 -0.13558671564E+03 -0.92708014671E+03  0.94644776755E+03  0.41800000000E+01 0. -1.
        -11    1    1    2    0    0  0.17683876358E+03  0.10203497412E+03 -0.65983775158E+02  0.21456221204E+03  0.00000000000E+00 0.  1.
         11    1    1    2    0    0  0.22390569840E+02  0.23087886716E+02 -0.59083754598E+02  0.67270187960E+02  0.00000000000E+00 0. -1.
</event>
<event>
 7    1  0.2626349E-009  0.2256712E+03  0.7561462E-02  0.1129724E+00
         -2   -1    0    0    0  501 -0.00000000000E+00  0.00000000000E+00  0.21085315937E+03  0.21085315937E+03  0.00000000000E+00 0.  1.
          2   -1    0    0  501    0  0.00000000000E+00 -0.00000000000E+00 -0.26412628276E+03  0.26412628276E+03  0.00000000000E+00 0. -1.
         25    2    1    2    0    0  0.82173091842E+01  0.20566824696E+03 -0.65347430190E+02  0.24956940385E+03  0.12509056210E+03 0.  0.
          5    1    3    3  502    0 -0.29326292889E+02  0.19515611559E+03 -0.36132181590E+02  0.20067124321E+03  0.41800000000E+01 0. -1.
         -5    1    3    3    0  502  0.37543602073E+02  0.10512131372E+02 -0.29215248601E+02  0.48898160634E+02  0.41800000000E+01 0. -1.
        -11    1    1    2    0    0 -0.32092096927E+02 -0.70249054162E+02 -0.28049231274E+02  0.82168069655E+02  0.00000000000E+00 0.  1.
         11    1    1    2    0    0  0.23874787742E+02 -0.13541919280E+03  0.40123538078E+02  0.14324196863E+03  0.00000000000E+00 0. -1.
</event>
<event>
 7    1  0.2626349E-009  0.8749330E+02  0.7561462E-02  0.1309038E+00
         -1   -1    0    0    0  501 -0.00000000000E+00  0.00000000000E+00  0.24337765928E+02  0.24337765928E+02  0.00000000000E+00 0.  1.
          1   -1    0    0  501    0  0.00000000000E+00 -0.00000000000E+00 -0.70013872793E+03  0.70013872793E+03  0.00000000000E+00 0. -1.
         25    2    1    2    0    0  0.66946538946E+02 -0.44601533595E+01 -0.29577355854E+03  0.32807238871E+03  0.12509101591E+03 0.  0.
          5    1    3    3  502    0  0.44853646776E+02 -0.63375996277E+01 -0.30140371069E+03  0.30481746016E+03  0.41800000000E+01 0. -1.
         -5    1    3    3    0  502  0.22092892169E+02  0.18774462682E+01  0.56301521549E+01  0.23254928557E+02  0.41800000000E+01 0. -1.
        -11    1    1    2    0    0  0.10988423241E+02 -0.22029609355E+02 -0.43768376133E+02  0.50216729115E+02  0.00000000000E+00 0.  1.
         11    1    1    2    0    0 -0.77934962186E+02  0.26489762714E+02 -0.33625902733E+03  0.34618737603E+03  0.00000000000E+00 0. -1.
</event>
<event>
 7    1  0.2626349E-009  0.2985310E+03  0.7561462E-02  0.1085977E+00
         -1   -1    0    0    0  501 -0.00000000000E+00  0.00000000000E+00  0.66760994169E+02  0.66760994169E+02  0.00000000000E+00 0.  1.
          1   -1    0    0  501    0  0.00000000000E+00 -0.00000000000E+00 -0.14052955570E+04  0.14052955570E+04  0.00000000000E+00 0. -1.
         25    2    1    2    0    0 -0.26723768626E+03 -0.10220704976E+03 -0.66496883298E+03  0.73463831575E+03  0.12509054382E+03 0.  0.
          5    1    3    3  502    0 -0.15918863214E+03 -0.11943671993E+03 -0.48082911246E+03  0.52040393778E+03  0.41800000000E+01 0. -1.
         -5    1    3    3    0  502 -0.10804905412E+03  0.17229670166E+02 -0.18413972052E+03  0.21423437797E+03  0.41800000000E+01 0. -1.
        -11    1    1    2    0    0  0.22195711474E+03  0.69258191962E+02 -0.44488147546E+03  0.50197727553E+03  0.00000000000E+00 0.  1.
         11    1    1    2    0    0  0.45280571520E+02  0.32948857802E+02 -0.22868425437E+03  0.23544095987E+03  0.00000000000E+00 0. -1.
</event>
<event>
 7    1  0.2626349E-009  0.2553462E+03  0.7561462E-02  0.1109972E+00
          2   -1    0    0  501    0  0.00000000000E+00  0.00000000000E+00  0.24701622928E+03  0.24701622928E+03  0.00000000000E+00 0. -1.
         -2   -1    0    0    0  501 -0.00000000000E+00 -0.00000000000E+00 -0.28154622989E+03  0.28154622989E+03  0.00000000000E+00 0.  1.
         25    2    1    2    0    0  0.15215759819E+03  0.18147336647E+03 -0.57174236667E+02  0.27386264127E+03  0.12508931017E+03 0.  0.
          5    1    3    3  502    0  0.41097690211E+02  0.14360745885E+03 -0.20343185031E+02  0.15080928339E+03  0.41800000000E+01 0.  1.
         -5    1    3    3    0  502  0.11105990798E+03  0.37865907618E+02 -0.36831051637E+02  0.12305335788E+03  0.41800000000E+01 0.  1.
        -11    1    1    2    0    0 -0.96231013340E+02 -0.69557591747E+02 -0.24067467714E+02  0.12115242259E+03  0.00000000000E+00 0.  1.
         11    1    1    2    0    0 -0.55926584854E+02 -0.11191577472E+03  0.46711703766E+02  0.13354739531E+03  0.00000000000E+00 0. -1.
</event>
<event>
 7    1  0.2626349E-009  0.1206571E+03  0.7561462E-02  0.1242017E+00
         -2   -1    0    0    0  501 -0.00000000000E+00  0.00000000000E+00  0.71599758953E+02  0.71599758953E+02  0.00000000000E+00 0.  1.
          2   -1    0    0  501    0  0.00000000000E+00 -0.00000000000E+00 -0.22746428933E+03  0.22746428933E+03  0.00000000000E+00 0. -1.
         25    2    1    2    0    0 -0.51744173743E+02  0.42337009199E+02 -0.89305604817E+02  0.16760996654E+03  0.12509087884E+03 0.  0.
          5    1    3    3  502    0  0.29142220869E+02 -0.14192715223E+02  0.24783737942E+01  0.32776774387E+02  0.41800000000E+01 0.  1.
         -5    1    3    3    0  502 -0.80886394612E+02  0.56529724422E+02 -0.91783978611E+02  0.13483319215E+03  0.41800000000E+01 0.  1.
        -11    1    1    2    0    0  0.13504471997E+02 -0.64340196390E+02 -0.23527813851E+02  0.69825422734E+02  0.00000000000E+00 0. -1.
         11    1    1    2    0    0  0.38239701745E+02  0.22003187190E+02 -0.43031111708E+02  0.61628659006E+02  0.00000000000E+00 0.  1.
</event>
<event>
 7    1  0.2626349E-009  0.1008291E+03  0.7561462E-02  0.1278562E+00
          2   -1    0    0  501    0  0.00000000000E+00  0.00000000000E+00  0.53047232124E+02  0.53047232124E+02  0.00000000000E+00 0. -1.
         -2   -1    0    0    0  501 -0.00000000000E+00 -0.00000000000E+00 -0.37115839057E+03  0.37115839057E+03  0.00000000000E+00 0.  1.
         25    2    1    2    0    0 -0.83644482019E+02 -0.28802467742E+02 -0.17390626870E+03  0.23176909524E+03  0.12509013428E+03 0.  0.
          5    1    3    3  502    0 -0.35515174480E+02  0.12175314730E+02  0.84612242371E+01  0.38712150841E+02  0.41800000000E+01 0. -1.
         -5    1    3    3    0  502 -0.48129307539E+02 -0.40977782473E+02 -0.18236749294E+03  0.19305694440E+03  0.41800000000E+01 0. -1.
        -11    1    1    2    0    0  0.72575386755E+02  0.32065028092E+01 -0.14743714230E+03  0.16436295006E+03  0.00000000000E+00 0.  1.
         11    1    1    2    0    0  0.11069095264E+02  0.25595964933E+02  0.32322525596E+01  0.28073577389E+02  0.00000000000E+00 0. -1.
</event>
<event>
 7    1  0.2626349E-009  0.9641053E+02  0.7561462E-02  0.1288030E+00
         -2   -1    0    0    0  501 -0.00000000000E+00  0.00000000000E+00  0.11592400204E+02  0.11592400204E+02  0.00000000000E+00 0.  1.
          2   -1    0    0  501    0  0.00000000000E+00 -0.00000000000E+00 -0.17238369830E+04  0.17238369830E+04  0.00000000000E+00 0. -1.
         25    2    1    2    0    0 -0.52276067068E+01  0.59884314605E+02 -0.13156744999E+04  0.13229736707E+04  0.12508590873E+03 0.  0.
          5    1    3    3  502    0  0.75771869295E+00 -0.91331489098E+01 -0.65595762860E+01  0.12020357219E+02  0.41800000000E+01 0. -1.
         -5    1    3    3    0  502 -0.59853253998E+01  0.69017463515E+02 -0.13091149236E+04  0.13109533135E+04  0.41800000000E+01 0. -1.
        -11    1    1    2    0    0  0.49917851795E+02 -0.41901937696E+02 -0.23188061563E+03  0.24086548988E+03  0.00000000000E+00 0.  1.
         11    1    1    2    0    0 -0.44690245088E+02 -0.17982376909E+02 -0.16468946723E+03  0.17159022263E+03  0.00000000000E+00 0. -1.
</event>
<event>
 7    1  0.2626349E-009  0.1109934E+03  0.7561462E-02  0.1258741E+00
          2   -1    0    0  501    0  0.00000000000E+00  0.00000000000E+00  0.11836593192E+03  0.11836593192E+03  0.00000000000E+00 0. -1.
         -2   -1    0    0    0  501 -0.00000000000E+00 -0.00000000000E+00 -0.15201516177E+03  0.15201516177E+03  0.00000000000E+00 0.  1.
         25    2    1    2    0    0 -0.80255479375E+02 -0.69451405234E+01  0.21160022204E+01  0.14879677684E+03  0.12508727508E+03 0.  0.
          5    1    3    3  502    0 -0.48603294188E+02  0.35092756521E+02 -0.47309920171E+02  0.76481911016E+02  0.41800000000E+01 0.  1.
         -5    1    3    3    0  502 -0.31652185188E+02 -0.42037897044E+02  0.49425922391E+02  0.72314865825E+02  0.41800000000E+01 0.  1.
        -11    1    1    2    0    0  0.10071769575E+02  0.32799571138E+02 -0.31645640064E+02  0.46676535264E+02  0.00000000000E+00 0.  1.
         11    1    1    2    0    0  0.70183709801E+02 -0.25854430615E+02 -0.41195920034E+01  0.74907781586E+02  0.00000000000E+00 0. -1.
</event>
<event>
 7    1  0.2626349E-009  0.1231774E+03  0.7561462E-02  0.1237946E+00
          2   -1    0    0  501    0  0.00000000000E+00  0.00000000000E+00  0.59806744184E+03  0.59806744184E+03  0.00000000000E+00 0. -1.
         -2   -1    0    0    0  501 -0.00000000000E+00 -0.00000000000E+00 -0.27475795936E+02  0.27475795936E+02  0.00000000000E+00 0.  1.
         25    2    1    2    0    0 -0.14674568436E+02  0.67369049134E+02  0.34147301381E+03  0.37014894389E+03  0.12510991071E+03 0.  0.
          5    1    3    3  502    0 -0.33685288682E+02  0.99392559725E+02  0.23991983250E+03  0.26190184809E+03  0.41800000000E+01 0. -1.
         -5    1    3    3    0  502  0.19010720246E+02 -0.32023510592E+02  0.10155318131E+03  0.10824709580E+03  0.41800000000E+01 0. -1.
        -11    1    1    2    0    0 -0.72298856246E+01  0.16050294678E+02  0.90033982191E+02  0.91738765822E+02  0.00000000000E+00 0. -1.
         11    1    1    2    0    0  0.21904454061E+02 -0.83419343811E+02  0.13908464990E+03  0.16365552807E+03  0.00000000000E+00 0.  1.
</event>
<event>
 7    1  0.2626349E-009  0.1120637E+03  0.7561462E-02  0.1256795E+00
         -3   -1    0    0    0  501 -0.00000000000E+00  0.00000000000E+00  0.35681671683E+03  0.35681671683E+03  0.00000000000E+00 0.  1.
          3   -1    0    0  501    0  0.00000000000E+00 -0.00000000000E+00 -0.53425230294E+02  0.53425230294E+02  0.00000000000E+00 0. -1.
         25    2    1    2    0    0  0.42368597229E+02 -0.55983899067E+02  0.24884541678E+03  0.28722979276E+03  0.12509043693E+03 0.  0.
          5    1    3    3  502    0  0.24418592090E+02 -0.83522221617E+02  0.23621409560E+03  0.25176735393E+03  0.41800000000E+01 0.  1.
         -5    1    3    3    0  502  0.17950005139E+02  0.27538322550E+02  0.12631321181E+02  0.35462438835E+02  0.41800000000E+01 0.  1.
        -11    1    1    2    0    0 -0.58398231011E+02  0.15634287443E+02  0.10863474930E+02  0.61423117933E+02  0.00000000000E+00 0. -1.
         11    1    1    2    0    0  0.16029633783E+02  0.40349611624E+02  0.43682594825E+02  0.61589036427E+02  0.00000000000E+00 0.  1.
</event>
<event>
 7    1  0.2626349E-009  0.1245269E+03  0.7561462E-02  0.1235811E+00
          2   -1    0    0  501    0  0.00000000000E+00  0.00000000000E+00  0.14520402314E+03  0.14520402314E+03  0.00000000000E+00 0. -1.
         -2   -1    0    0    0  501 -0.00000000000E+00 -0.00000000000E+00 -0.16693609691E+03  0.16693609691E+03  0.00000000000E+00 0.  1.
         25    2    1    2    0    0 -0.26931862006E+02  0.92743786615E+02  0.42698568560E+02  0.16370433681E+03  0.12509679048E+03 0.  0.
          5    1    3    3  502    0 -0.63447760042E+02  0.87072160750E+02  0.59219371333E+02  0.12301051082E+03  0.41800000000E+01 0.  1.
         -5    1    3    3    0  502  0.36515898036E+02  0.56716258642E+01 -0.16520802774E+02  0.40693825989E+02  0.41800000000E+01 0.  1.
        -11    1    1    2    0    0  0.12392119757E+02 -0.87828809492E+02 -0.84946430863E+02  0.12281433355E+03  0.00000000000E+00 0.  1.
         11    1    1    2    0    0  0.14539742249E+02 -0.49149771229E+01  0.20515788535E+02  0.25621449686E+02  0.00000000000E+00 0. -1.
</event>
<event>
 7    1  0.2626349E-009  0.9471048E+02  0.7561462E-02  0.1291829E+00
          4   -1    0    0  501    0  0.00000000000E+00  0.00000000000E+00  0.89971243200E+02  0.89971243200E+02  0.00000000000E+00 0. -1.
         -4   -1    0    0    0  501 -0.00000000000E+00 -0.00000000000E+00 -0.20135376093E+03  0.20135376093E+03  0.00000000000E+00 0.  1.
         25    2    1    2    0    0  0.45815635352E+02  0.16025982958E+02  0.10680882329E+02  0.13460334673E+03  0.12509226648E+03 0.  0.
          5    1    3    3  502    0  0.70174730626E+02  0.16842378127E+02 -0.36764547470E+02  0.81100325955E+02  0.41800000000E+01 0. -1.
         -5    1    3    3    0  502 -0.24359095274E+02 -0.81639516831E+00  0.47445429799E+02  0.53503020779E+02  0.41800000000E+01 0. -1.
        -11    1    1    2    0    0  0.45537870906E+01 -0.37407816311E+02 -0.77407443633E+02  0.86092938315E+02  0.00000000000E+00 0.  1.
         11    1    1    2    0    0 -0.50369422443E+02  0.21381833353E+02 -0.44655956430E+02  0.70628719084E+02  0.00000000000E+00 0. -1.
</event>
<event>
 7    1  0.2626349E-009  0.8958109E+02  0.7561462E-02  0.1303869E+00
         -1   -1    0    0    0  501 -0.00000000000E+00  0.00000000000E+00  0.74076214582E+02  0.74076214582E+02  0.00000000000E+00 0.  1.
          1   -1    0    0  501    0  0.00000000000E+00 -0.00000000000E+00 -0.81712387457E+03  0.81712387457E+03  0.00000000000E+00 0. -1.
         25    2    1    2    0    0  0.11157869333E+02  0.13735178378E+02 -0.78102262450E+03  0.79117445483E+03  0.12509006683E+03 0.  0.
          5    1    3    3  502    0 -0.55377063355E+02  0.13274106959E+02 -0.44067583968E+03  0.44435963941E+03  0.41800000000E+01 0. -1.
         -5    1    3    3    0  502  0.66534932689E+02  0.46107141888E+00 -0.34034678482E+03  0.34681481541E+03  0.41800000000E+01 0. -1.
        -11    1    1    2    0    0  0.21065751577E+02 -0.22469303848E+01 -0.22275014824E+02  0.30740703815E+02  0.00000000000E+00 0. -1.
         11    1    1    2    0    0 -0.32223620910E+02 -0.11488247994E+02  0.60249979332E+02  0.69284930512E+02  0.00000000000E+00 0.  1.
</event>
<event>
 7    1  0.2626349E-009  0.9636578E+02  0.7561462E-02  0.1288129E+00
         -2   -1    0    0    0  501 -0.00000000000E+00  0.00000000000E+00  0.17298247974E+02  0.17298247974E+02  0.00000000000E+00 0.  1.
          2   -1    0    0  501    0  0.00000000000E+00 -0.00000000000E+00 -0.75931654828E+03  0.75931654828E+03  0.00000000000E+00 0. -1.
         25    2    1    2    0    0  0.31268157036E+02 -0.11460935837E+01 -0.34843141495E+03  0.37152511733E+03  0.12508977060E+03 0.  0.
          5    1    3    3  502    0  0.59249797210E+02 -0.22240026130E+02 -0.86683102276E+02  0.10740851853E+03  0.41800000000E+01 0.  1.
         -5    1    3    3    0  502 -0.27981640174E+02  0.21093932546E+02 -0.26174831268E+03  0.26411659881E+03  0.41800000000E+01 0.  1.
        -11    1    1    2    0    0 -0.31108339263E+02  0.42496875259E+02 -0.18044784672E+03  0.18797643087E+03  0.00000000000E+00 0. -1.
         11    1    1    2    0    0 -0.15981777290E+00 -0.41350781676E+02 -0.21313903863E+03  0.21711324804E+03  0.00000000000E+00 0.  1.
</event>
<event>
 7    1  0.2626349E-009  0.1847884E+03  0.7561462E-02  0.1163248E+00
         -1   -1    0    0    0  501 -0.00000000000E+00  0.00000000000E+00  0.23131665506E+03  0.23131665506E+03  0.00000000000E+00 0.  1.
          1   -1    0    0  501    0  0.00000000000E+00 -0.00000000000E+00 -0.20055540463E+03  0.20055540463E+03  0.00000000000E+00 0. -1.
         25    2    1    2    0    0  0.74736890852E+02  0.13253063924E+03 -0.93163335999E+02  0.21789176182E+03  0.12508972582E+03 0.  0.
          5    1    3    3  502    0 -0.28636773889E+02  0.70807079044E+02 -0.37015461683E+02  0.84978374103E+02  0.41800000000E+01 0.  1.
         -5    1    3    3    0  502  0.10337366474E+03  0.61723560194E+02 -0.56147874315E+02  0.13291338772E+03  0.41800000000E+01 0.  1.
        -11    1    1    2    0    0 -0.88578448991E+02 -0.13173768656E+03  0.10427593633E+03  0.18993270014E+03  0.00000000000E+00 0. -1.
         11    1    1    2    0    0  0.13841558139E+02 -0.79295267514E+00  0.19648650104E+02  0.24047597730E+02  0.00000000000E+00 0.  1.
</event>
<event>
 7    1  0.2626349E-009  0.1152690E+03  0.7561462E-02  0.1251112E+00
         -1   -1    0    0    0  501 -0.00000000000E+00  0.00000000000E+00  0.27924788941E+02  0.27924788941E+02  0.00000000000E+00 0.  1.
          1   -1    0    0  501    0  0.00000000000E+00 -0.00000000000E+00 -0.61601436560E+03  0.61601436560E+03  0.00000000000E+00 0. -1.
         25    2    1    2    0    0  0.43847938180E+02 -0.27003361608E+02 -0.24427425265E+03  0.27922865359E+03  0.12508759832E+03 0.  0.
          5    1    3    3  502    0  0.66320285716E+02  0.22232171873E+02 -0.80669055282E+02  0.10685325752E+03  0.41800000000E+01 0. -1.
         -5    1    3    3    0  502 -0.22472347536E+02 -0.49235533481E+02 -0.16360519737E+03  0.17237539606E+03  0.41800000000E+01 0. -1.
        -11    1    1    2    0    0 -0.17226838182E+02  0.60781392554E+02 -0.28458585556E+03  0.29151372321E+03  0.00000000000E+00 0. -1.
         11    1    1    2    0    0 -0.26621099998E+02 -0.33778030946E+02 -0.59229468452E+02  0.73196777749E+02  0.00000000000E+00 0.  1.
</event>
<event>
 7    1  0.2626349E-009  0.8196268E+02  0.7561462E-02  0.1323572E+00
         -1   -1    0    0    0  501 -0.00000000000E+00  0.00000000000E+00  0.27357707527E+02  0.27357707527E+02  0.00000000000E+00 0.  1.
          1   -1    0    0  501    0  0.00000000000E+00 -0.00000000000E+00 -0.61762393389E+03  0.61762393389E+03  0.00000000000E+00 0. -1.
         25    2    1    2    0    0 -0.31130761012E+02 -0.98078989148E+01 -0.52413917018E+03  0.53984662647E+03  0.12508873344E+03 0.  0.
          5    1    3    3  502    0 -0.70890267521E+01  0.44240869438E+02 -0.39717160922E+03  0.39971273235E+03  0.41800000000E+01 0.  1.
         -5    1    3    3    0  502 -0.24041734260E+02 -0.54048768353E+02 -0.12696756096E+03  0.14013389412E+03  0.41800000000E+01 0.  1.
        -11    1    1    2    0    0  0.41121998826E+02  0.19670333599E+02 -0.92014816280E+01  0.46503850115E+02  0.00000000000E+00 0.  1.
         11    1    1    2    0    0 -0.99912378138E+01 -0.98624346847E+01 -0.56925574559E+02  0.58631164834E+02  0.00000000000E+00 0. -1.
</event>
<event>
 7    1  0.2626349E-009  0.1144091E+03  0.7561462E-02  0.1252616E+00
         -2   -1    0    0    0  501 -0.00000000000E+00  0.00000000000E+00  0.18010017168E+02  0.18010017168E+02  0.00000000000E+00 0. -1.
          2   -1    0    0  501    0  0.00000000000E+00 -0.00000000000E+00 -0.14517074854E+04  0.14517074854E+04  0.00000000000E+00 0.  1.
         25    2    1    2    0    0 -0.85008306020E+02  0.65633444826E+02 -0.10019922286E+04  0.10154668908E+04  0.12510163496E+03 0.  0.
          5    1    3    3  502    0 -0.85701499368E+02  0.39402785551E+02 -0.33790680831E+03  0.35085012471E+03  0.41800000000E+01 0.  1.
         -5    1    3    3    0  502  0.69319334769E+00  0.26230659276E+02 -0.66408542026E+03  0.66461676611E+03  0.41800000000E+01 0.  1.
        -11    1    1    2    0    0  0.74044287524E+01 -0.95353706103E+01 -0.20192478717E-01  0.12072666050E+02  0.00000000000E+00 0. -1.
         11    1    1    2    0    0  0.77603877268E+02 -0.56098074216E+02 -0.43168504718E+03  0.44217794569E+03  0.00000000000E+00 0.  1.
</event>
<event>
 7    1  0.2626349E-009  0.1850483E+03  0.7561462E-02  0.1163005E+00
          2   -1    0    0  501    0  0.00000000000E+00  0.00000000000E+00  0.16595961162E+02  0.16595961162E+02  0.00000000000E+00 0. -1.
         -2   -1    0    0    0  501 -0.00000000000E+00 -0.00000000000E+00 -0.22058292203E+04  0.22058292203E+04  0.00000000000E+00 0.  1.
         25    2    1    2    0    0 -0.14659112900E+03 -0.52174477105E+02 -0.12760283109E+04  0.12915521505E+04  0.12509025581E+03 0.  0.
          5    1    3    3  502    0 -0.81036395083E+02 -0.85242699315E+02 -0.59222390294E+03  0.60380447061E+03  0.41800000000E+01 0.  1.
         -5    1    3    3    0  502 -0.65554733913E+02  0.33068222209E+02 -0.68380440792E+03  0.68774767986E+03  0.41800000000E+01 0.  1.
        -11    1    1    2    0    0  0.26055551912E+02  0.52187437446E+02 -0.24196154823E+03  0.24889317233E+03  0.00000000000E+00 0.  1.
         11    1    1    2    0    0  0.12053557708E+03 -0.12960340270E-01 -0.67124340002E+03  0.68197985863E+03  0.00000000000E+00 0. -1.
</event>
<event>
 7    1  0.2626349E-009  0.8339580E+02  0.7561462E-02  0.1319682E+00
         -1   -1    0    0    0  501 -0.00000000000E+00  0.00000000000E+00  0.14477357947E+02  0.14477357947E+02  0.00000000000E+00 0.  1.
          1   -1    0    0  501    0  0.00000000000E+00 -0.00000000000E+00 -0.10189968285E+04  0.10189968285E+04  0.00000000000E+00 0. -1.
         25    2    1    2    0    0  0.26868570844E+02  0.14869836666E+02 -0.75958853153E+03  0.77043034150E+03  0.12508054097E+03 0.  0.
          5    1    3    3  502    0  0.41370279589E+02  0.34528100532E+02 -0.13595022227E+03  0.14629977818E+03  0.41800000000E+01 0.  1.
         -5    1    3    3    0  502 -0.14501708745E+02 -0.19658263866E+02 -0.62363830926E+03  0.62413056332E+03  0.41800000000E+01 0.  1.
        -11    1    1    2    0    0 -0.49404424684E+02  0.13987206466E+02 -0.19155167827E+03  0.19831410583E+03  0.00000000000E+00 0.  1.
         11    1    1    2    0    0  0.22535853840E+02 -0.28857043132E+02 -0.53379260703E+02  0.64729739068E+02  0.00000000000E+00 0. -1.
</event>
<event>
 7    1  0.2626349E-009  0.7732912E+02  0.7561462E-02  0.1336807E+00
          4   -1    0    0  501    0  0.00000000000E+00  0.00000000000E+00  0.41978428391E+02  0.41978428391E+02  0.00000000000E+00 0. -1.
         -4   -1    0    0    0  501 -0.00000000000E+00 -0.00000000000E+00 -0.42754662318E+03  0.42754662318E+03  0.00000000000E+00 0.  1.
         25    2    1    2    0    0 -0.96456752850E+01 -0.49976519139E+02 -0.11109948311E+03  0.17488431232E+03  0.12510290177E+03 0.  0.
          5    1    3    3  502    0 -0.36979794682E+01 -0.10927748170E+02  0.27815850657E+02  0.30402050589E+02  0.41800000000E+01 0.  1.
         -5    1    3    3    0  502 -0.59476958168E+01 -0.39048770969E+02 -0.13891533376E+03  0.14448226173E+03  0.41800000000E+01 0.  1.
        -11    1    1    2    0    0 -0.20138784352E+02 -0.18905659460E+02 -0.41242979597E+02  0.49638472588E+02  0.00000000000E+00 0. -1.
         11    1    1    2    0    0  0.29784459637E+02  0.68882178600E+02 -0.23322573209E+03  0.24500226667E+03  0.00000000000E+00 0.  1.
</event>
<event>
 7    1  0.2626349E-009  0.9055102E+02  0.7561462E-02  0.1301523E+00
         -2   -1    0    0    0  501 -0.00000000000E+00  0.00000000000E+00  0.30651778554E+02  0.30651778554E+02  0.00000000000E+00 0.  1.
          2   -1    0    0  501    0  0.00000000000E+00 -0.00000000000E+00 -0.46473905688E+03  0.46473905688E+03  0.00000000000E+00 0. -1.
         25    2    1    2    0    0  0.30363992274E+01  0.99463215491E+01 -0.34817480157E+03  0.37011046457E+03  0.12509162444E+03 0.  0.
          5    1    3    3  502    0  0.60187017718E+02  0.16883379406E+01 -0.23936366205E+03  0.24685575281E+03  0.41800000000E+01 0. -1.
         -5    1    3    3    0  502 -0.57150618490E+02  0.82579836084E+01 -0.10881113952E+03  0.12325471176E+03  0.41800000000E+01 0. -1.
        -11    1    1    2    0    0 -0.30334897750E+02 -0.16840013467E+02  0.18491616260E+00  0.34696199634E+02  0.00000000000E+00 0.  1.
         11    1    1    2    0    0  0.27298498522E+02  0.68936919183E+01 -0.86097392916E+02  0.90584171226E+02  0.00000000000E+00 0. -1.
</event>
<event>
 7    1  0.2626349E-009  0.2395737E+03  0.7561462E-02  0.1120077E+00
          1   -1    0    0  501    0  0.00000000000E+00  0.00000000000E+00  0.92605178340E+03  0.92605178340E+03  0.00000000000E+00 0. -1.
         -1   -1    0    0    0  501 -0.00000000000E+00 -0.00000000000E+00 -0.79233924542E+02  0.79233924542E+02  0.00000000000E+00 0.  1.
         25    2    1    2    0    0 -0.42430432151E+02 -0.21796644345E+03  0.22658273858E+03  0.34102332525E+03  0.12508980335E+03 0.  0.
          5    1    3    3  502    0 -0.76795144957E+02 -0.11604046318E+03  0.84799679194E+02  0.16300718197E+03  0.41800000000E+01 0.  1.
         -5    1    3    3    0  502  0.34364712805E+02 -0.10192598028E+03  0.14178305938E+03  0.17801614328E+03  0.41800000000E+01 0.  1.
        -11    1    1    2    0    0  0.58277297717E+02  0.12419156932E+03  0.43373569033E+03  0.45491366036E+03  0.00000000000E+00 0.  1.
         11    1    1    2    0    0 -0.15846865566E+02  0.93774874134E+02  0.18649942996E+03  0.20934872233E+03  0.00000000000E+00 0. -1.
</event>
<event>
 7    1  0.2626349E-009  0.7373542E+02  0.7561462E-02  0.1347832E+00
         -2   -1    0    0    0  501 -0.00000000000E+00  0.00000000000E+00  0.58402600996E+02  0.58402600996E+02  0.00000000000E+00 0.  1.
          2   -1    0    0  501    0  0.00000000000E+00 -0.00000000000E+00 -0.25868909826E+03  0.25868909826E+03  0.00000000000E+00 0. -1.
         25    2    1    2    0    0  0.29351649392E+02 -0.10960759865E+02 -0.17097730441E+03  0.21415681905E+03  0.12509295322E+03 0.  0.
          5    1    3    3  502    0 -0.34802133795E+02  0.19596303803E+01 -0.13473297839E+03  0.13923173681E+03  0.41800000000E+01 0.  1.
         -5    1    3    3    0  502  0.64153783187E+02 -0.12920390246E+02 -0.36244326017E+02  0.74925082247E+02  0.41800000000E+01 0.  1.
        -11    1    1    2    0    0 -0.46149258908E+01  0.19944170779E+02 -0.59476845909E+02  0.62901213727E+02  0.00000000000E+00 0. -1.
         11    1    1    2    0    0 -0.24736723501E+02 -0.89834109138E+01  0.30167653050E+02  0.40033666479E+02  0.00000000000E+00 0.  1.
</event>
<event>
 7    1  0.2626349E-009  0.1078851E+03  0.7561462E-02  0.1264537E+00
          2   -1    0    0  501    0  0.00000000000E+00  0.00000000000E+00  0.76218583525E+02  0.76218583525E+02  0.00000000000E+00 0.  1.
         -2   -1    0    0    0  501 -0.00000000000E+00 -0.00000000000E+00 -0.21980667686E+03  0.21980667686E+03  0.00000000000E+00 0. -1.
         25    2    1    2    0    0  0.68190297890E+02  0.76889406838E+01 -0.83751271873E+02  0.16545317658E+03  0.12510572156E+03 0.  0.
          5    1    3    3  502    0  0.67208437815E+02 -0.29474348431E+02  0.24039335133E+00  0.73506744711E+02  0.41800000000E+01 0. -1.
         -5    1    3    3    0  502  0.98186007422E+00  0.37163289114E+02 -0.83991665224E+02  0.91946431873E+02  0.41800000000E+01 0. -1.
        -11    1    1    2    0    0 -0.84574091815E+02 -0.16622728706E+02 -0.68404961659E+02  0.11003786119E+03  0.00000000000E+00 0. -1.
         11    1    1    2    0    0  0.16383793925E+02  0.89337880226E+01  0.85681401960E+01  0.20534222611E+02  0.00000000000E+00 0.  1.
</event>
<event>
 7    1  0.2626349E-009  0.1819110E+03  0.7561462E-02  0.1165966E+00
          2   -1    0    0  501    0  0.00000000000E+00  0.00000000000E+00  0.77751322857E+03  0.77751322857E+03  0.00000000000E+00 0.  1.
         -2   -1    0    0    0  501 -0.00000000000E+00 -0.00000000000E+00 -0.67020540188E+02  0.67020540188E+02  0.00000000000E+00 0. -1.
         25    2    1    2    0    0 -0.15493861445E+03  0.63091477949E+02  0.57083238027E+03  0.60785419938E+03  0.12510240806E+03 0.  0.
          5    1    3    3  502    0 -0.10752085664E+03  0.63965397134E+02  0.21449470526E+03  0.24835007072E+03  0.41800000000E+01 0.  1.
         -5    1    3    3    0  502 -0.47417757809E+02 -0.87391918572E+00  0.35633767501E+03  0.35950412866E+03  0.41800000000E+01 0.  1.
        -11    1    1    2    0    0  0.50361244471E+02 -0.69993511854E+02  0.65692804345E+02  0.10840152761E+03  0.00000000000E+00 0.  1.
         11    1    1    2    0    0  0.10457736998E+03  0.69020339053E+01  0.73967503762E+02  0.12827804176E+03  0.00000000000E+00 0. -1.
</event>
<event>
 7    1  0.2626349E-009  0.1363566E+03  0.7561462E-02  0.1218317E+00
         -1   -1    0    0    0  501 -0.00000000000E+00  0.00000000000E+00  0.95600248526E+02  0.95600248526E+02  0.00000000000E+00 0.  1.
          1   -1    0    0  501    0  0.00000000000E+00 -0.00000000000E+00 -0.33270165417E+03  0.33270165417E+03  0.00000000000E+00 0. -1.
         25    2    1    2    0    0  0.91963848316E+00  0.96263443696E+02 -0.25095827658E+03  0.29647480639E+03  0.12509899244E+03 0.  0.
          5    1    3    3  502    0 -0.55481850808E+02  0.33110186998E+02 -0.15753329957E+03  0.17031950307E+03  0.41800000000E+01 0.  1.
         -5    1    3    3    0  502  0.56401489291E+02  0.63153256699E+02 -0.93424977007E+02  0.12615530332E+03  0.41800000000E+01 0.  1.
        -11    1    1    2    0    0 -0.35584698893E+02 -0.73669749034E+02  0.30379661584E+02  0.87272140778E+02  0.00000000000E+00 0.  1.
         11    1    1    2    0    0  0.34665060410E+02 -0.22593694663E+02 -0.16522790651E+02  0.44554955534E+02  0.00000000000E+00 0. -1.
</event>
<event>
 7    1  0.2626349E-009  0.7341377E+02  0.7561462E-02  0.1348855E+00
          2   -1    0    0  501    0  0.00000000000E+00  0.00000000000E+00  0.83766960136E+03  0.83766960136E+03  0.00000000000E+00 0. -1.
         -2   -1    0    0    0  501 -0.00000000000E+00 -0.00000000000E+00 -0.16768995814E+02  0.16768995814E+02  0.00000000000E+00 0.  1.
         25    2    1    2    0    0 -0.39643053442E+02  0.29038804192E+02  0.40904510258E+03  0.43055831861E+03  0.12509095068E+03 0.  0.
          5    1    3    3  502    0 -0.78678499987E+01  0.83749507880E+01 -0.61005525702E+01  0.13664991986E+02  0.41800000000E+01 0. -1.
         -5    1    3    3    0  502 -0.31775203443E+02  0.20663853404E+02  0.41514565515E+03  0.41689332662E+03  0.41800000000E+01 0. -1.
        -11    1    1    2    0    0 -0.31683006185E+01 -0.49090251888E+02  0.15207479882E+03  0.15983314861E+03  0.00000000000E+00 0.  1.
         11    1    1    2    0    0  0.42811354060E+02  0.20051447696E+02  0.25978070414E+03  0.26404712995E+03  0.00000000000E+00 0. -1.
</event>
<event>
 7    1  0.2626349E-009  0.1059071E+03  0.7561462E-02  0.1268343E+00
         -2   -1    0    0    0  501 -0.00000000000E+00  0.00000000000E+00  0.11873628678E+02  0.11873628678E+02  0.00000000000E+00 0.  1.
          2   -1    0    0  501    0  0.00000000000E+00 -0.00000000000E+00 -0.11096572503E+04  0.11096572503E+04  0.00000000000E+00 0. -1.
         25    2    1    2    0    0 -0.42151881559E+01 -0.34511994768E+02 -0.71464604897E+03  0.72634334578E+03  0.12508730974E+03 0.  0.
          5    1    3    3  502    0  0.40869809976E+02  0.18707714251E+02 -0.13164082991E+03  0.13916573012E+03  0.41800000000E+01 0.  1.
         -5    1    3    3    0  502 -0.45084998132E+02 -0.53219709019E+02 -0.58300521906E+03  0.58717761566E+03  0.41800000000E+01 0.  1.
        -11    1    1    2    0    0  0.46614803381E+02  0.26586841484E+02 -0.21847053354E+03  0.22496482849E+03  0.00000000000E+00 0.  1.
         11    1    1    2    0    0 -0.42399615225E+02  0.79251532841E+01 -0.16466703907E+03  0.17022270466E+03  0.00000000000E+00 0. -1.
</event>
<event>
 7    1  0.2626349E-009  0.1495078E+03  0.7561462E-02  0.1201079E+00
         -2   -1    0    0    0  501 -0.00000000000E+00  0.00000000000E+00  0.30030479566E+02  0.30030479566E+02  0.00000000000E+00 0.  1.
          2   -1    0    0  501    0  0.00000000000E+00 -0.00000000000E+00 -0.11413402126E+04  0.11413402126E+04  0.00000000000E+00 0. -1.
         25    2    1    2    0    0  0.99973004416E+02  0.60852914550E+02 -0.88151563866E+03  0.89800604068E+03  0.12508936439E+03 0.  0.
          5    1    3    3  502    0  0.24473246655E+02 -0.34681813511E+02 -0.13394870192E+03  0.14057558514E+03  0.41800000000E+01 0.  1.
         -5    1    3    3    0  502  0.75499757761E+02  0.95534728060E+02 -0.74756693674E+03  0.75743045555E+03  0.41800000000E+01 0.  1.
        -11    1    1    2    0    0 -0.73012202155E+02 -0.74495329889E+02 -0.11769902081E+03  0.15726854529E+03  0.00000000000E+00 0.  1.
         11    1    1    2    0    0 -0.26960802261E+02  0.13642415340E+02 -0.11209507361E+03  0.11609610624E+03  0.00000000000E+00 0. -1.
</event>
<event>
 7    1  0.2626349E-009  0.9384469E+02  0.7561462E-02  0.1293800E+00
         -2   -1    0    0    0  501 -0.00000000000E+00  0.00000000000E+00  0.11696278030E+02  0.11696278030E+02  0.00000000000E+00 0.  1.
          2   -1    0    0  501    0  0.00000000000E+00 -0.00000000000E+00 -0.13941592969E+04  0.13941592969E+04  0.00000000000E+00 0. -1.
         25    2    1    2    0    0  0.32222055446E+02 -0.58878508525E+02 -0.86732709909E+03  0.87886802548E+03  0.12509104592E+03 0.  0.
          5    1    3    3  502    0  0.10293968850E+02 -0.52250278605E+02 -0.12206072931E+03  0.13323795048E+03  0.41800000000E+01 0. -1.
         -5    1    3    3    0  502  0.21928086596E+02 -0.66282299199E+01 -0.74526636978E+03  0.74563007500E+03  0.41800000000E+01 0. -1.
        -11    1    1    2    0    0 -0.43783538763E+02  0.77531067189E+02 -0.40196017485E+03  0.41170383386E+03  0.00000000000E+00 0. -1.
         11    1    1    2    0    0  0.11561483317E+02 -0.18652558664E+02 -0.11317574492E+03  0.11528371558E+03  0.00000000000E+00 0.  1.
</event>
<event>
 7    1  0.2626349E-009  0.1106278E+03  0.7561462E-02  0.1259412E+00
         -1   -1    0    0    0  501 -0.00000000000E+00  0.00000000000E+00  0.25592956279E+02  0.25592956279E+02  0.00000000000E+00 0.  1.
          1   -1    0    0  501    0  0.00000000000E+00 -0.00000000000E+00 -0.78456621592E+03  0.78456621592E+03  0.00000000000E+00 0. -1.
         25    2    1    2    0    0  0.55587867437E+02  0.57791743837E+02 -0.54141979341E+03  0.56143797334E+03  0.12508920235E+03 0.  0.
          5    1    3    3  502    0  0.70928045679E+02  0.47292273949E+02 -0.17683229327E+03  0.19635294544E+03  0.41800000000E+01 0. -1.
         -5    1    3    3    0  502 -0.15340178242E+02  0.10499469888E+02 -0.36458750014E+03  0.36508502790E+03  0.41800000000E+01 0. -1.
        -11    1    1    2    0    0 -0.48039037847E+02  0.96411661212E+01 -0.12248422445E+03  0.13192075834E+03  0.00000000000E+00 0. -1.
         11    1    1    2    0    0 -0.75488295900E+01 -0.67432909959E+02 -0.95069241776E+02  0.11680044052E+03  0.00000000000E+00 0.  1.
</event>
<event>
 7    1  0.2626349E-009  0.7112255E+02  0.7561462E-02  0.1356317E+00
          1   -1    0    0  501    0  0.00000000000E+00  0.00000000000E+00  0.37820393937E+03  0.37820393937E+03  0.00000000000E+00 0. -1.
         -1   -1    0    0    0  501 -0.00000000000E+00 -0.00000000000E+00 -0.37371820418E+02  0.37371820418E+02  0.00000000000E+00 0.  1.
         25    2    1    2    0    0  0.13010099158E+02  0.30870168495E+02  0.25388426790E+03  0.28500202808E+03  0.12508678804E+03 0.  0.
          5    1    3    3  502    0  0.41394948167E+02  0.62241350429E+01  0.17421048635E+02  0.45532921346E+02  0.41800000000E+01 0.  1.
         -5    1    3    3    0  502 -0.28384849009E+02  0.24646033452E+02  0.23646321926E+03  0.23946910674E+03  0.41800000000E+01 0.  1.
        -11    1    1    2    0    0 -0.32726798623E+02 -0.11432008694E+02 -0.45639266208E+01  0.34965176921E+02  0.00000000000E+00 0.  1.
         11    1    1    2    0    0  0.19716699465E+02 -0.19438159800E+02  0.91511777677E+02  0.95608554784E+02  0.00000000000E+00 0. -1.
</event>
<event>
 7    1  0.2626349E-009  0.8840087E+02  0.7561462E-02  0.1306771E+00
         -2   -1    0    0    0  501 -0.00000000000E+00  0.00000000000E+00  0.19998611173E+03  0.19998611173E+03  0.00000000000E+00 0.  1.
          2   -1    0    0  501    0  0.00000000000E+00 -0.00000000000E+00 -0.68251824085E+02  0.68251824085E+02  0.00000000000E+00 0. -1.
         25    2    1    2    0    0  0.86917526577E+01  0.39264567529E+02  0.53392820998E+02  0.14183046642E+03  0.12509130682E+03 0.  0.
          5    1    3    3  502    0 -0.43485028017E+02  0.47109052487E+02 -0.32220213585E+01  0.64327788004E+02  0.41800000000E+01 0.  1.
         -5    1    3    3    0  502  0.52176780675E+02 -0.78444849576E+01  0.56614842357E+02  0.77502678412E+02  0.41800000000E+01 0.  1.
        -11    1    1    2    0    0  0.22987683117E+01 -0.46442494358E+02  0.94660146392E+02  0.10546436807E+03  0.00000000000E+00 0.  1.
         11    1    1    2    0    0 -0.10990520969E+02  0.71779268292E+01 -0.16318679743E+02  0.20943101329E+02  0.00000000000E+00 0. -1.
</event>
<event>
 7    1  0.2626349E-009  0.1031360E+03  0.7561462E-02  0.1273836E+00
          2   -1    0    0  501    0  0.00000000000E+00  0.00000000000E+00  0.10457743214E+04  0.10457743214E+04  0.00000000000E+00 0.  1.
         -2   -1    0    0    0  501 -0.00000000000E+00 -0.00000000000E+00 -0.21860500029E+02  0.21860500029E+02  0.00000000000E+00 0. -1.
         25    2    1    2    0    0 -0.39158845847E+02  0.80156777704E+02  0.72838786905E+03  0.74441620960E+03  0.12509229039E+03 0.  0.
          5    1    3    3  502    0 -0.88407530762E+01  0.11098956873E+02  0.55610618496E+03  0.55630289152E+03  0.41800000000E+01 0.  1.
         -5    1    3    3    0  502 -0.30318092771E+02  0.69057820831E+02  0.17228168408E+03  0.18811331808E+03  0.41800000000E+01 0.  1.
        -11    1    1    2    0    0  0.17991252596E+02  0.11843597964E+02  0.12591001254E+02  0.24949735375E+02  0.00000000000E+00 0. -1.
         11    1    1    2    0    0  0.21167593252E+02 -0.92000375668E+02  0.28293495111E+03  0.29826887650E+03  0.00000000000E+00 0.  1.
</event>
<event>
 7    1  0.2626349E-009  0.1644303E+03  0.7561462E-02  0.1183784E+00
         -1   -1    0    0    0  501 -0.00000000000E+00  0.00000000000E+00  0.73239173923E+02  0.73239173923E+02  0.00000000000E+00 0.  1.
          1   -1    0    0  501    0  0.00000000000E+00 -0.00000000000E+00 -0.40345554371E+03  0.40345554371E+03  0.00000000000E+00 0. -1.
         25    2    1    2    0    0 -0.86991481384E+02  0.94969314599E+02 -0.22052621876E+03  0.28437356194E+03  0.12509924469E+03 0.  0.
          5    1    3    3  502    0 -0.11840123752E+03  0.71288519573E+02 -0.18669582468E+03  0.23232242557E+03  0.41800000000E+01 0.  1.
         -5    1    3    3    0  502  0.31409756139E+02  0.23680795026E+02 -0.33830394083E+02  0.52051136372E+02  0.41800000000E+01 0.  1.
        -11    1    1    2    0    0  0.39249946905E+02  0.56576751468E+01 -0.56153638910E+02  0.68744445470E+02  0.00000000000E+00 0. -1.
         11    1    1    2    0    0  0.47741534479E+02 -0.10062698975E+03 -0.53536512113E+02  0.12357671022E+03  0.00000000000E+00 0.  1.
</event>
<event>
 7    1  0.2626349E-009  0.1006954E+03  0.7561462E-02  0.1278840E+00
          1   -1    0    0  501    0  0.00000000000E+00  0.00000000000E+00  0.35987351860E+03  0.35987351860E+03  0.00000000000E+00 0. -1.
         -1   -1    0    0    0  501 -0.00000000000E+00 -0.00000000000E+00 -0.46679264839E+02  0.46679264839E+02  0.00000000000E+00 0.  1.
         25    2    1    2    0    0 -0.23314135331E+02 -0.22827525376E+02  0.77412602721E+02  0.15069127583E+03  0.12510197732E+03 0.  0.
          5    1    3    3  502    0 -0.46658410817E+02  0.31526184077E+02  0.44104307410E+01  0.56637724899E+02  0.41800000000E+01 0. -1.
         -5    1    3    3    0  502  0.23344275486E+02 -0.54353709452E+02  0.73002171980E+02  0.94053550932E+02  0.41800000000E+01 0. -1.
        -11    1    1    2    0    0  0.32475549729E+02 -0.22416254146E+02  0.46284224139E+02  0.60822522015E+02  0.00000000000E+00 0.  1.
         11    1    1    2    0    0 -0.91614143982E+01  0.45243779522E+02  0.18949742690E+03  0.19503898559E+03  0.00000000000E+00 0. -1.
</event>
<event>
 7    1  0.2626349E-009  0.1369871E+03  0.7561462E-02  0.1217441E+00
          2   -1    0    0  501    0  0.00000000000E+00  0.00000000000E+00  0.74463484799E+03  0.74463484799E+03  0.00000000000E+00 0. -1.
         -2   -1    0    0    0  501 -0.00000000000E+00 -0.00000000000E+00 -0.27000437630E+02  0.27000437630E+02  0.00000000000E+00 0.  1.
         25    2    1    2    0    0 -0.54737895763E+02 -0.70258591701E+02  0.31943874782E+03  0.35443249945E+03  0.12509506833E+03 0.  0.
          5    1    3    3  502    0  0.19029041829E+02 -0.76879177862E+02  0.15965555133E+03  0.17826912210E+03  0.41800000000E+01 0. -1.
         -5    1    3    3    0  502 -0.73766937592E+02  0.66205861608E+01  0.15978319648E+03  0.17616337736E+03  0.41800000000E+01 0. -1.
        -11    1    1    2    0    0  0.34921766851E+02  0.87503401851E+02  0.26026173560E+03  0.27678971468E+03  0.00000000000E+00 0.  1.
         11    1    1    2    0    0  0.19816128913E+02 -0.17244810150E+02  0.13793392695E+03  0.14041307149E+03  0.00000000000E+00 0. -1.
</event>
<event>
 7    1  0.3240108E-009  0.2182456E+03  0.7561462E-02  0.1135198E+00
         -2   -1    0    0    0  501 -0.00000000000E+00  0.00000000000E+00  0.20349442490E+03  0.20349442490E+03  0.00000000000E+00 0.  1.
          2   -1    0    0  501    0  0.00000000000E+00 -0.00000000000E+00 -0.29088934646E+03  0.29088934646E+03  0.00000000000E+00 0. -1.
         25    2    1    2    0    0 -0.19225452317E+03  0.90642314915E+01  0.57397694972E+02  0.23661295032E+03  0.12508889198E+03 0.  0.
          5    1    3    3  502    0 -0.12269824275E+03  0.66047086669E+02  0.38658169335E+02  0.14466859676E+03  0.41800000000E+01 0. -1.
         -5    1    3    3    0  502 -0.69556280420E+02 -0.56982855177E+02  0.18739525637E+02  0.91944353558E+02  0.41800000000E+01 0. -1.
        -11    1    1    2    0    0  0.14946290526E+03 -0.39455779036E+02 -0.13312123166E+03  0.20400289426E+03  0.00000000000E+00 0.  1.
         11    1    1    2    0    0  0.42791617917E+02  0.30391547544E+02 -0.11671384864E+02  0.53767926785E+02  0.00000000000E+00 0. -1.
</event>
<event>
 7    1  0.2626349E-009  0.1691687E+03  0.7561462E-02  0.1178718E+00
         -2   -1    0    0    0  501 -0.00000000000E+00  0.00000000000E+00  0.15244984548E+02  0.15244984548E+02  0.00000000000E+00 0.  1.
          2   -1    0    0  501    0  0.00000000000E+00 -0.00000000000E+00 -0.20504575183E+04  0.20504575183E+04  0.00000000000E+00 0. -1.
         25    2    1    2    0    0 -0.13845165228E+03 -0.65078856527E+01 -0.11377292940E+04  0.11529468548E+04  0.12508913188E+03 0.  0.
          5    1    3    3  502    0 -0.14256035126E+02 -0.40618329869E+02 -0.52694513468E+03  0.52871706103E+03  0.41800000000E+01 0. -1.
         -5    1    3    3    0  502 -0.12419561715E+03  0.34110444217E+02 -0.61078415931E+03  0.62422979374E+03  0.41800000000E+01 0. -1.
        -11    1    1    2    0    0  0.11786895160E+03  0.42056803698E+02 -0.66610797885E+03  0.67776227689E+03  0.00000000000E+00 0. -1.
         11    1    1    2    0    0  0.20582700680E+02 -0.35548918045E+02 -0.23137526088E+03  0.23499337116E+03  0.00000000000E+00 0.  1.
</event>
<event>
 7    1  0.2626349E-009  0.9207425E+02  0.7561462E-02  0.1297905E+00
         -1   -1    0    0    0  501 -0.00000000000E+00  0.00000000000E+00  0.21483511719E+02  0.21483511719E+02  0.00000000000E+00 0.  1.
          1   -1    0    0  501    0  0.00000000000E+00 -0.00000000000E+00 -0.71042127886E+03  0.71042127886E+03  0.00000000000E+00 0. -1.
         25    2    1    2    0    0  0.43623766713E+01 -0.36920303656E+02 -0.53555303162E+03  0.55122290363E+03  0.12508997024E+03 0.  0.
          5    1    3    3  502    0 -0.13894123931E+02 -0.80756390623E+02 -0.30889884259E+03  0.31961008848E+03  0.41800000000E+01 0. -1.
         -5    1    3    3    0  502  0.18256500603E+02  0.43836086968E+02 -0.22665418903E+03  0.23161281515E+03  0.41800000000E+01 0. -1.
        -11    1    1    2    0    0 -0.13575667386E+02 -0.26233750999E+01  0.68162237707E+01  0.15415633246E+02  0.00000000000E+00 0.  1.
         11    1    1    2    0    0  0.92132907150E+01  0.39543678756E+02 -0.16020095929E+03  0.16526625370E+03  0.00000000000E+00 0. -1.
</event>
<event>
 7    1  0.2626349E-009  0.1229258E+03  0.7561462E-02  0.1238347E+00
          2   -1    0    0  501    0  0.00000000000E+00  0.00000000000E+00  0.23213945688E+03  0.23213945688E+03  0.00000000000E+00 0. -1.
         -2   -1    0    0    0  501 -0.00000000000E+00 -0.00000000000E+00 -0.89489336713E+02  0.89489336713E+02  0.00000000000E+00 0.  1.
         25    2    1    2    0    0 -0.72956164592E+02 -0.17490153397E+02  0.13384762786E+02  0.14647586510E+03  0.12509004662E+03 0.  0.
          5    1    3    3  502    0 -0.52651509269E+02  0.40193988322E+02 -0.28504269692E+02  0.72233675777E+02  0.41800000000E+01 0. -1.
         -5    1    3    3    0  502 -0.20304655323E+02 -0.57684141719E+02  0.41889032478E+02  0.74242189323E+02  0.41800000000E+01 0. -1.
        -11    1    1    2    0    0  0.94911688731E+02  0.14946078751E+02  0.10434915786E+03  0.14184625717E+03  0.00000000000E+00 0.  1.
         11    1    1    2    0    0 -0.21955524139E+02  0.25440746459E+01  0.24916199527E+02  0.33306671327E+02  0.00000000000E+00 0. -1.
</event>
<event>
 7    1  0.2626349E-009  0.1318600E+03  0.7561462E-02  0.1224722E+00
          1   -1    0    0  501    0  0.00000000000E+00  0.00000000000E+00  0.66024576148E+02  0.66024576148E+02  0.00000000000E+00 0. -1.
         -1   -1    0    0    0  501 -0.00000000000E+00 -0.00000000000E+00 -0.36804976139E+03  0.36804976139E+03  0.00000000000E+00 0.  1.
         25    2    1    2    0    0  0.46062200762E+02  0.89091393071E+02 -0.93035941077E+02  0.18536989630E+03  0.12508920603E+03 0.  0.
          5    1    3    3  502    0  0.47157755949E+02 -0.16130130257E+02 -0.52546871055E+02  0.72544338896E+02  0.41800000000E+01 0. -1.
         -5    1    3    3    0  502 -0.10955551867E+01  0.10522152333E+03 -0.40489070022E+02  0.11282555741E+03  0.41800000000E+01 0. -1.
        -11    1    1    2    0    0 -0.76826320561E+01 -0.59337061585E+02 -0.18520596050E+03  0.19463082366E+03  0.00000000000E+00 0.  1.
         11    1    1    2    0    0 -0.38379568706E+02 -0.29754331486E+02 -0.23783283665E+02  0.54073617579E+02  0.00000000000E+00 0. -1.
</event>
<event>
 7    1  0.2626349E-009  0.1264670E+03  0.7561462E-02  0.1232794E+00
         -2   -1    0    0    0  501 -0.00000000000E+00  0.00000000000E+00  0.92231275973E+02  0.92231275973E+02  0.00000000000E+00 0. -1.
          2   -1    0    0  501    0  0.00000000000E+00 -0.00000000000E+00 -0.41533894954E+03  0.41533894954E+03  0.00000000000E+00 0.  1.
         25    2    1    2    0    0  0.11536754019E+03  0.41058796604E+02 -0.30815337665E+03  0.35439772931E+03  0.12507498906E+03 0.  0.
          5    1    3    3  502    0  0.88061909066E+02  0.15312712261E+02 -0.30342171590E+03  0.31634093802E+03  0.41800000000E+01 0.  1.
         -5    1    3    3    0  502  0.27305631122E+02  0.25746084343E+02 -0.47316607535E+01  0.38056791292E+02  0.41800000000E+01 0.  1.
        -11    1    1    2    0    0 -0.12273999218E+02 -0.14950438773E+02 -0.39541376852E+02  0.44019168094E+02  0.00000000000E+00 0.  1.
         11    1    1    2    0    0 -0.10309354097E+03 -0.26108357831E+02  0.24587079937E+02  0.10915332811E+03  0.00000000000E+00 0. -1.
</event>
<event>
 7    1  0.2626349E-009  0.1563727E+03  0.7561462E-02  0.1192854E+00
          2   -1    0    0  501    0  0.00000000000E+00  0.00000000000E+00  0.97497218318E+03  0.97497218318E+03  0.00000000000E+00 0.  1.
         -2   -1    0    0    0  501 -0.00000000000E+00 -0.00000000000E+00 -0.29734378790E+02  0.29734378790E+02  0.00000000000E+00 0. -1.
         25    2    1    2    0    0  0.51329089853E+02 -0.11650143677E+03  0.62239554339E+03  0.64748035679E+03  0.12508932715E+03 0.  0.
          5    1    3    3  502    0  0.24601027395E+02 -0.13647801670E+03  0.55606545354E+03  0.57311231064E+03  0.41800000000E+01 0.  1.
         -5    1    3    3    0  502  0.26728062458E+02  0.19976579929E+02  0.66330089853E+02  0.74368046151E+02  0.41800000000E+01 0.  1.
        -11    1    1    2    0    0 -0.17588159632E+02  0.10224458315E+03  0.16280965936E+03  0.19305513027E+03  0.00000000000E+00 0. -1.
         11    1    1    2    0    0 -0.33740930221E+02  0.14256853622E+02  0.16003260165E+03  0.16417107491E+03  0.00000000000E+00 0.  1.
</event>
<event>
 7    1  0.2626349E-009  0.8616388E+02  0.7561462E-02  0.1312417E+00
          1   -1    0    0  501    0  0.00000000000E+00  0.00000000000E+00  0.30721100342E+02  0.30721100342E+02  0.00000000000E+00 0. -1.
         -1   -1    0    0    0  501 -0.00000000000E+00 -0.00000000000E+00 -0.48836891689E+03  0.48836891689E+03  0.00000000000E+00 0.  1.
         25    2    1    2    0    0 -0.58875531910E+02  0.24545950387E+02 -0.20791343165E+03  0.25088692666E+03  0.12508965972E+03 0.  0.
          5    1    3    3  502    0 -0.66894028873E+02  0.28500027939E+02 -0.40798558954E+02  0.83480881069E+02  0.41800000000E+01 0.  1.
         -5    1    3    3    0  502  0.80184969630E+01 -0.39540775512E+01 -0.16711487270E+03  0.16740604559E+03  0.41800000000E+01 0.  1.
        -11    1    1    2    0    0  0.40393405829E+01  0.19111392704E+02 -0.11166704613E+03  0.11336265167E+03  0.00000000000E+00 0.  1.
         11    1    1    2    0    0  0.54836191327E+02 -0.43657343091E+02 -0.13806733878E+03  0.15484043891E+03  0.00000000000E+00 0. -1.
</event>
<event>
 7    1  0.2626349E-009  0.1595258E+03  0.7561462E-02  0.1189233E+00
          2   -1    0    0  501    0  0.00000000000E+00  0.00000000000E+00  0.61177880592E+03  0.61177880592E+03  0.00000000000E+00 0. -1.
         -2   -1    0    0    0  501 -0.00000000000E+00 -0.00000000000E+00 -0.47848047233E+02  0.47848047233E+02  0.00000000000E+00 0.  1.
         25    2    1    2    0    0 -0.43562837611E+02  0.11612091524E+03  0.21300470807E+03  0.27640643669E+03  0.12509086618E+03 0.  0.
          5    1    3    3  502    0  0.30413870118E+02  0.74443076972E+02  0.56717707921E+02  0.98494395762E+02  0.41800000000E+01 0. -1.
         -5    1    3    3    0  502 -0.73976707729E+02  0.41677838273E+02  0.15628700015E+03  0.17791204092E+03  0.41800000000E+01 0. -1.
        -11    1    1    2    0    0  0.46205650766E+02 -0.98916683682E+01  0.12211893803E+03  0.13094213337E+03  0.00000000000E+00 0.  1.
         11    1    1    2    0    0 -0.26428131554E+01 -0.10622924688E+03  0.22880711258E+03  0.25227828309E+03  0.00000000000E+00 0. -1.
</event>
<event>
 7    1  0.2626349E-009  0.1064628E+03  0.7561462E-02  0.1267264E+00
          3   -1    0    0  501    0  0.00000000000E+00  0.00000000000E+00  0.54394495486E+02  0.54394495486E+02  0.00000000000E+00 0. -1.
         -3   -1    0    0    0  501 -0.00000000000E+00 -0.00000000000E+00 -0.27579445728E+03  0.27579445728E+03  0.00000000000E+00 0.  1.
         25    2    1    2    0    0 -0.60800250272E+02 -0.20074253539E+02 -0.13832890240E+03  0.19718269957E+03  0.12508591321E+03 0.  0.
          5    1    3    3  502    0 -0.53665445965E+02  0.41640188918E+02 -0.34959292352E+02  0.76508234494E+02  0.41800000000E+01 0. -1.
         -5    1    3    3    0  502 -0.71348043067E+01 -0.61714442457E+02 -0.10336961005E+03  0.12067446508E+03  0.41800000000E+01 0. -1.
        -11    1    1    2    0    0  0.93246841833E+01 -0.16848815453E+02  0.89925178651E+01  0.21253180817E+02  0.00000000000E+00 0. -1.
         11    1    1    2    0    0  0.51475566088E+02  0.36923068992E+02 -0.92063577260E+02  0.11175307238E+03  0.00000000000E+00 0.  1.
</event>
<event>
 7    1  0.2626349E-009  0.1027974E+03  0.7561462E-02  0.1274521E+00
          2   -1    0    0  501    0  0.00000000000E+00  0.00000000000E+00  0.78766373305E+02  0.78766373305E+02  0.00000000000E+00 0. -1.
         -2   -1    0    0    0  501 -0.00000000000E+00 -0.00000000000E+00 -0.18171176407E+03  0.18171176407E+03  0.00000000000E+00 0.  1.
         25    2    1    2    0    0 -0.45973181271E+02 -0.25940998655E+02 -0.48088738804E+02  0.14403618581E+03  0.12508967669E+03 0.  0.
          5    1    3    3  502    0  0.36956935791E+02  0.37425063850E+01  0.96844239470E+01  0.38614529963E+02  0.41800000000E+01 0.  1.
         -5    1    3    3    0  502 -0.82930117062E+02 -0.29683505040E+02 -0.57773162751E+02  0.10542165585E+03  0.41800000000E+01 0.  1.
        -11    1    1    2    0    0  0.24973892666E+02  0.45134793889E+02  0.33112269624E+01  0.51689545928E+02  0.00000000000E+00 0. -1.
         11    1    1    2    0    0  0.20999288605E+02 -0.19193795234E+02 -0.58167878920E+02  0.64752405635E+02  0.00000000000E+00 0.  1.
</event>
<event>
 7    1  0.2626349E-009  0.9334171E+02  0.7561462E-02  0.1294955E+00
          2   -1    0    0  501    0  0.00000000000E+00  0.00000000000E+00  0.76321055960E+02  0.76321055960E+02  0.00000000000E+00 0. -1.
         -2   -1    0    0    0  501 -0.00000000000E+00 -0.00000000000E+00 -0.18919982644E+03  0.18919982644E+03  0.00000000000E+00 0.  1.
         25    2    1    2    0    0 -0.82721108797E+01 -0.55071220602E+02 -0.66078753660E+02  0.15203752608E+03  0.12509092891E+03 0.  0.
          5    1    3    3  502    0  0.24652599607E+02 -0.68693412290E+02  0.41030104201E+01  0.73217775533E+02  0.41800000000E+01 0. -1.
         -5    1    3    3    0  502 -0.32924710487E+02  0.13622191688E+02 -0.70181764080E+02  0.78819750548E+02  0.41800000000E+01 0. -1.
        -11    1    1    2    0    0  0.28645264115E+02  0.48446793614E+02 -0.64565462112E+02  0.85652448100E+02  0.00000000000E+00 0.  1.
         11    1    1    2    0    0 -0.20373153235E+02  0.66244269878E+01  0.17765445295E+02  0.27830908217E+02  0.00000000000E+00 0. -1.
</event>
<event>
 7    1  0.2626349E-009  0.1912481E+03  0.7561462E-02  0.1157340E+00
          2   -1    0    0  501    0  0.00000000000E+00  0.00000000000E+00  0.50945933539E+03  0.50945933539E+03  0.00000000000E+00 0. -1.
         -2   -1    0    0    0  501 -0.00000000000E+00 -0.00000000000E+00 -0.90462994913E+02  0.90462994913E+02  0.00000000000E+00 0.  1.
         25    2    1    2    0    0  0.15281251449E+03 -0.16781622920E+02  0.84199556757E+02  0.21534216897E+03  0.12509754964E+03 0.  0.
          5    1    3    3  502    0  0.17230746808E+03 -0.28978689227E+02  0.72716941875E+02  0.18930096149E+03  0.41800000000E+01 0.  1.
         -5    1    3    3    0  502 -0.19494953595E+02  0.12197066307E+02  0.11482614882E+02  0.26041207474E+02  0.41800000000E+01 0.  1.
        -11    1    1    2    0    0 -0.10031215670E+03  0.59526986791E+02  0.25155551189E+03  0.27728354892E+03  0.00000000000E+00 0. -1.
         11    1    1    2    0    0 -0.52500357789E+02 -0.42745363871E+02  0.83241271824E+02  0.10729661241E+03  0.00000000000E+00 0.  1.
</event>
<event>
 7    1  0.2909977E-009  0.1195344E+03  0.7561462E-02  0.1243867E+00
         -1   -1    0    0    0  501 -0.00000000000E+00  0.00000000000E+00  0.97937463089E+02  0.97937463089E+02  0.00000000000E+00 0.  1.
          1   -1    0    0  501    0  0.00000000000E+00 -0.00000000000E+00 -0.17327263515E+03  0.17327263515E+03  0.00000000000E+00 0. -1.
         25    2    1    2    0    0 -0.10140422473E+01 -0.68554569183E+02 -0.64103382691E+02  0.15638856460E+03  0.12508949687E+03 0.  0.
          5    1    3    3  502    0  0.25080676417E+02  0.29636203035E+02 -0.29633479811E+02  0.49019999853E+02  0.41800000000E+01 0. -1.
         -5    1    3    3    0  502 -0.26094718664E+02 -0.98190772218E+02 -0.34469902880E+02  0.10736856475E+03  0.41800000000E+01 0. -1.
        -11    1    1    2    0    0  0.24597685105E+02 -0.12747510484E+01  0.22869303848E+02  0.33610655473E+02  0.00000000000E+00 0.  1.
         11    1    1    2    0    0 -0.23583642858E+02  0.69829320231E+02 -0.34101093223E+02  0.81210878172E+02  0.00000000000E+00 0. -1.
</event>
<event>
 7    1  0.2626349E-009  0.1135883E+03  0.7561462E-02  0.1254066E+00
         -1   -1    0    0    0  501 -0.00000000000E+00  0.00000000000E+00  0.16838462238E+03  0.16838462238E+03  0.00000000000E+00 0.  1.
          1   -1    0    0  501    0  0.00000000000E+00 -0.00000000000E+00 -0.98849507679E+02  0.98849507679E+02  0.00000000000E+00 0. -1.
         25    2    1    2    0    0 -0.60240587877E+02  0.32734199530E+02  0.62633060496E+02  0.15579355060E+03  0.12509306094E+03 0.  0.
          5    1    3    3  502    0 -0.55972731749E+02  0.75899042033E+02  0.23628761683E+02  0.97310852733E+02  0.41800000000E+01 0.  1.
         -5    1    3    3    0  502 -0.42678561282E+01 -0.43164842504E+02  0.39004298813E+02  0.58482697870E+02  0.41800000000E+01 0.  1.
        -11    1    1    2    0    0  0.34986980797E+02  0.12700174874E+02  0.36073778345E+02  0.51833394171E+02  0.00000000000E+00 0.  1.
         11    1    1    2    0    0  0.25253607080E+02 -0.45434374404E+02 -0.29171724142E+02  0.59607185283E+02  0.00000000000E+00 0. -1.
</event>
<event>
 7    1  0.2626349E-009  0.1430520E+03  0.7561462E-02  0.1209280E+00
          3   -1    0    0  501    0  0.00000000000E+00  0.00000000000E+00  0.77455744455E+02  0.77455744455E+02  0.00000000000E+00 0. -1.
         -3   -1    0    0    0  501 -0.00000000000E+00 -0.00000000000E+00 -0.28596688690E+03  0.28596688690E+03  0.00000000000E+00 0.  1.
         25    2    1    2    0    0  0.90633739258E+02  0.36555693220E+02 -0.14988901555E+03  0.21832043209E+03  0.12508517373E+03 0.  0.
          5    1    3    3  502    0  0.70406629435E+02  0.82107318793E+02 -0.94468261956E+02  0.14366777713E+03  0.41800000000E+01 0. -1.
         -5    1    3    3    0  502  0.20227109823E+02 -0.45551625573E+02 -0.55420753594E+02  0.74652654964E+02  0.41800000000E+01 0. -1.
        -11    1    1    2    0    0 -0.70350538232E+02  0.15448987342E+02 -0.52115936390E+02  0.88904107134E+02  0.00000000000E+00 0.  1.
         11    1    1    2    0    0 -0.20283201026E+02 -0.52004680562E+02 -0.65061905053E+01  0.56198092130E+02  0.00000000000E+00 0. -1.
</event>
<event>
 7    1  0.2626349E-009  0.1148639E+03  0.7561462E-02  0.1251819E+00
         -1   -1    0    0    0  501 -0.00000000000E+00  0.00000000000E+00  0.14698445597E+03  0.14698445597E+03  0.00000000000E+00 0.  1.
          1   -1    0    0  501    0  0.00000000000E+00 -0.00000000000E+00 -0.12603966575E+03  0.12603966575E+03  0.00000000000E+00 0. -1.
         25    2    1    2    0    0 -0.92343892046E+01 -0.81071053690E+02  0.73350837935E+01  0.14953297556E+03  0.12509403517E+03 0.  0.
          5    1    3    3  502    0  0.47624310115E+02 -0.13172703245E+02 -0.24525271078E+02  0.55322295200E+02  0.41800000000E+01 0. -1.
         -5    1    3    3    0  502 -0.56858699320E+02 -0.67898350445E+02  0.31860354872E+02  0.94210680361E+02  0.41800000000E+01 0. -1.
        -11    1    1    2    0    0 -0.16380800364E+02  0.37762861817E+02  0.47478575365E+02  0.62837723319E+02  0.00000000000E+00 0.  1.
         11    1    1    2    0    0  0.25615189569E+02  0.43308191873E+02 -0.33868868939E+02  0.60653422847E+02  0.00000000000E+00 0. -1.
</event>
<event>
 7    1  0.2626349E-009  0.1401033E+03  0.7561462E-02  0.1213190E+00
         -2   -1    0    0    0  501 -0.00000000000E+00  0.00000000000E+00  0.13678677534E+02  0.13678677534E+02  0.00000000000E+00 0.  1.
          2   -1    0    0  501    0  0.00000000000E+00 -0.00000000000E+00 -0.15356937927E+04  0.15356937927E+04  0.00000000000E+00 0. -1.
         25    2    1    2    0    0 -0.81040512701E+01 -0.89654051988E+02 -0.97040121305E+03  0.98256264689E+03  0.12508923252E+03 0.  0.
          5    1    3    3  502    0 -0.62366926588E+02 -0.28963152129E+02 -0.33970771812E+03  0.34662271112E+03  0.41800000000E+01 0. -1.
         -5    1    3    3    0  502  0.54262875318E+02 -0.60690899859E+02 -0.63069349493E+03  0.63593993577E+03  0.41800000000E+01 0. -1.
        -11    1    1    2    0    0  0.43489634731E+02  0.13034714392E+02 -0.16841205290E+03  0.17442440101E+03  0.00000000000E+00 0.  1.
         11    1    1    2    0    0 -0.35385583461E+02  0.76619337596E+02 -0.38320184925E+03  0.39238542236E+03  0.00000000000E+00 0. -1.
</event>
<event>
 7    1  0.2814980E-009  0.1263563E+03  0.7561462E-02  0.1232965E+00
          1   -1    0    0  501    0  0.00000000000E+00  0.00000000000E+00  0.32120486453E+03  0.32120486453E+03  0.00000000000E+00 0. -1.
         -1   -1    0    0    0  501 -0.00000000000E+00 -0.00000000000E+00 -0.68184975052E+02  0.68184975052E+02  0.00000000000E+00 0.  1.
         25    2    1    2    0    0  0.18022948529E+02 -0.94193209769E+02  0.97772664883E+02  0.18548539302E+03  0.12509256407E+03 0.  0.
          5    1    3    3  502    0  0.47312618864E+02 -0.39680996167E+01 -0.20620416180E+01  0.47706961064E+02  0.41800000000E+01 0. -1.
         -5    1    3    3    0  502 -0.29289670336E+02 -0.90225110153E+02  0.99834706501E+02  0.13777843196E+03  0.41800000000E+01 0. -1.
        -11    1    1    2    0    0  0.13458224652E+02  0.67484194319E+02  0.35892695822E+02  0.77611377433E+02  0.00000000000E+00 0.  1.
         11    1    1    2    0    0 -0.31481173181E+02  0.26709015450E+02  0.11935452878E+03  0.12629306913E+03  0.00000000000E+00 0. -1.
</event>
<event>
 7    1  0.2626349E-009  0.2056486E+03  0.7561462E-02  0.1145059E+00
         -3   -1    0    0    0  501 -0.00000000000E+00  0.00000000000E+00  0.86800321808E+03  0.86800321808E+03  0.00000000000E+00 0.  1.
          3   -1    0    0  501    0  0.00000000000E+00 -0.00000000000E+00 -0.57552101528E+02  0.57552101528E+02  0.00000000000E+00 0. -1.
         25    2    1    2    0    0 -0.11551549882E+03 -0.15196076609E+03  0.50448551999E+03  0.55370478398E+03  0.12508973989E+03 0.  0.
          5    1    3    3  502    0  0.10908777874E+02 -0.64938172083E+02  0.22907997426E+03  0.23839268998E+03  0.41800000000E+01 0. -1.
         -5    1    3    3    0  502 -0.12642427669E+03 -0.87022594002E+02  0.27540554573E+03  0.31531209400E+03  0.41800000000E+01 0. -1.
        -11    1    1    2    0    0  0.88316734927E+02  0.10221562938E+03  0.27700306665E+03  0.30818594953E+03  0.00000000000E+00 0.  1.
         11    1    1    2    0    0  0.27198763895E+02  0.49745136708E+02  0.28962529911E+02  0.63664586093E+02  0.00000000000E+00 0. -1.
</event>
<event>
 7    1  0.2626349E-009  0.2114098E+03  0.7561462E-02  0.1140454E+00
          1   -1    0    0  501    0  0.00000000000E+00  0.00000000000E+00  0.13036987848E+04  0.13036987848E+04  0.00000000000E+00 0. -1.
         -1   -1    0    0    0  501 -0.00000000000E+00 -0.00000000000E+00 -0.39798566749E+02  0.39798566749E+02  0.00000000000E+00 0.  1.
         25    2    1    2    0    0  0.19267681009E+03  0.50982435468E+02  0.68129705603E+03  0.72078975913E+03  0.12509451002E+03 0.  0.
          5    1    3    3  502    0  0.17273034260E+03  0.21379557693E+02  0.65070533663E+03  0.67359317414E+03  0.41800000000E+01 0.  1.
         -5    1    3    3    0  502  0.19946467496E+02  0.29602877775E+02  0.30591719404E+02  0.47196584985E+02  0.41800000000E+01 0.  1.
        -11    1    1    2    0    0 -0.32356478519E+02 -0.40890339366E+02  0.22034302528E+03  0.22642881959E+03  0.00000000000E+00 0.  1.
         11    1    1    2    0    0 -0.16032033157E+03 -0.10092096102E+02  0.36226013679E+03  0.39627877287E+03  0.00000000000E+00 0. -1.
</event>
<event>
 7    1  0.2626349E-009  0.1214496E+03  0.7561462E-02  0.1240725E+00
          4   -1    0    0  501    0  0.00000000000E+00  0.00000000000E+00  0.66736849779E+02  0.66736849779E+02  0.00000000000E+00 0. -1.
         -4   -1    0    0    0  501 -0.00000000000E+00 -0.00000000000E+00 -0.28611507596E+03  0.28611507596E+03  0.00000000000E+00 0.  1.
         25    2    1    2    0    0 -0.30930231415E+02 -0.78549981590E+02 -0.13771228550E+03  0.20429964112E+03  0.12508753319E+03 0.  0.
          5    1    3    3  502    0  0.30125543420E+01  0.32824525272E+02 -0.20539009935E+02  0.39062107881E+02  0.41800000000E+01 0.  1.
         -5    1    3    3    0  502 -0.33942785758E+02 -0.11137450686E+03 -0.11717327557E+03  0.16523753324E+03  0.41800000000E+01 0.  1.
        -11    1    1    2    0    0  0.38906159336E+02  0.49050356930E+02 -0.96148604775E+02  0.11473526463E+03  0.00000000000E+00 0.  1.
         11    1    1    2    0    0 -0.79759279208E+01  0.29499624660E+02  0.14482664101E+02  0.33817019986E+02  0.00000000000E+00 0. -1.
</event>
<event>
 7    1  0.2626349E-009  0.9651052E+02  0.7561462E-02  0.1287810E+00
         -1   -1    0    0    0  501 -0.00000000000E+00  0.00000000000E+00  0.41646488227E+02  0.41646488227E+02  0.00000000000E+00 0.  1.
          1   -1    0    0  501    0  0.00000000000E+00 -0.00000000000E+00 -0.30657175833E+03  0.30657175833E+03  0.00000000000E+00 0. -1.
         25    2    1    2    0    0 -0.19998596975E+02  0.18328790279E+02 -0.12263822278E+03  0.17726126959E+03  0.12508211533E+03 0.  0.
          5    1    3    3  502    0 -0.53174716713E+02  0.52389153928E+02 -0.98826222490E+02  0.12392041236E+03  0.41800000000E+01 0.  1.
         -5    1    3    3    0  502  0.33176119738E+02 -0.34060363649E+02 -0.23812000289E+02  0.53340857235E+02  0.41800000000E+01 0.  1.
        -11    1    1    2    0    0 -0.17708093740E+02  0.12619965333E+02 -0.11076034260E+03  0.11287468096E+03  0.00000000000E+00 0. -1.
         11    1    1    2    0    0  0.37706690715E+02 -0.30948755612E+02 -0.31526704723E+02  0.58082296006E+02  0.00000000000E+00 0.  1.
</event>
<event>
 7    1  0.2626349E-009  0.1608495E+03  0.7561462E-02  0.1187741E+00
         -1   -1    0    0    0  501 -0.00000000000E+00  0.00000000000E+00  0.41072688977E+03  0.41072688977E+03  0.00000000000E+00 0.  1.
          1   -1    0    0  501    0  0.00000000000E+00 -0.00000000000E+00 -0.90538019839E+02  0.90538019839E+02  0.00000000000E+00 0. -1.
         25    2    1    2    0    0  0.11273006774E+03 -0.43001538929E+02  0.32462343735E+02  0.17680016320E+03  0.12508914191E+03 0.  0.
          5    1    3    3  502    0  0.78956043360E+02  0.35408563197E+02  0.28615506043E+02  0.91236739951E+02  0.41800000000E+01 0. -1.
         -5    1    3    3    0  502  0.33774024376E+02 -0.78410102126E+02  0.38468376919E+01  0.85563423250E+02  0.41800000000E+01 0. -1.
        -11    1    1    2    0    0 -0.83802771744E+02  0.70622820221E+02  0.20022608128E+03  0.22825637102E+03  0.00000000000E+00 0.  1.
         11    1    1    2    0    0 -0.28927295993E+02 -0.27621281292E+02  0.87500444916E+02  0.96208375385E+02  0.00000000000E+00 0. -1.
</event>
<event>
 7    1  0.2626349E-009  0.1014127E+03  0.7561462E-02  0.1277353E+00
         -4   -1    0    0    0  501 -0.00000000000E+00  0.00000000000E+00  0.14116390425E+02  0.14116390425E+02  0.00000000000E+00 0.  1.
          4   -1    0    0  501    0  0.00000000000E+00 -0.00000000000E+00 -0.89934804910E+03  0.89934804910E+03  0.00000000000E+00 0. -1.
         25    2    1    2    0    0  0.10935966077E+02 -0.17250674057E+02 -0.60002215107E+03  0.61326420948E+03  0.12509687347E+03 0.  0.
          5    1    3    3  502    0 -0.41375913751E+02 -0.44894531942E+02 -0.20921006575E+03  0.21797662546E+03  0.41800000000E+01 0. -1.
         -5    1    3    3    0  502  0.52311879828E+02  0.27643857885E+02 -0.39081208532E+03  0.39528758402E+03  0.41800000000E+01 0. -1.
        -11    1    1    2    0    0 -0.42149897637E+02 -0.70777942613E+01 -0.75223777944E+02  0.86517777426E+02  0.00000000000E+00 0.  1.
         11    1    1    2    0    0  0.31213931560E+02  0.24328468318E+02 -0.20998572966E+03  0.21368245261E+03  0.00000000000E+00 0. -1.
</event>
<event>
 7    1  0.2626349E-009  0.1569981E+03  0.7561462E-02  0.1192128E+00
         -4   -1    0    0    0  501 -0.00000000000E+00  0.00000000000E+00  0.18809662759E+03  0.18809662759E+03  0.00000000000E+00 0.  1.
          4   -1    0    0  501    0  0.00000000000E+00 -0.00000000000E+00 -0.17609852007E+03  0.17609852007E+03  0.00000000000E+00 0. -1.
         25    2    1    2    0    0 -0.18092044699E+02  0.13224267346E+03  0.77110841628E+02  0.19851770188E+03  0.12509096410E+03 0.  0.
          5    1    3    3  502    0  0.18037509995E+01 -0.15962565892E+02 -0.15389795933E+02  0.22635707331E+02  0.41800000000E+01 0. -1.
         -5    1    3    3    0  502 -0.19895795698E+02  0.14820523935E+03  0.92500637562E+02  0.17588199455E+03  0.41800000000E+01 0. -1.
        -11    1    1    2    0    0 -0.22044118987E+02 -0.25183611770E+02 -0.32805591323E+02  0.46865384942E+02  0.00000000000E+00 0. -1.
         11    1    1    2    0    0  0.40136163685E+02 -0.10705906169E+03 -0.32307142784E+02  0.11881206084E+03  0.00000000000E+00 0.  1.
</event>
<event>
 7    1  0.2626349E-009  0.1128099E+03  0.7561462E-02  0.1255453E+00
          2   -1    0    0  501    0  0.00000000000E+00  0.00000000000E+00  0.47708609670E+03  0.47708609670E+03  0.00000000000E+00 0.  1.
         -2   -1    0    0    0  501 -0.00000000000E+00 -0.00000000000E+00 -0.28761386821E+02  0.28761386821E+02  0.00000000000E+00 0. -1.
         25    2    1    2    0    0  0.21671983817E+02  0.30426817774E+02  0.20221746262E+03  0.24069344361E+03  0.12508383383E+03 0.  0.
          5    1    3    3  502    0  0.50680078003E+02 -0.30978554507E+02  0.69262208280E+02  0.91339296261E+02  0.41800000000E+01 0. -1.
         -5    1    3    3    0  502 -0.29008094187E+02  0.61405372281E+02  0.13295525434E+03  0.14935414734E+03  0.41800000000E+01 0. -1.
        -11    1    1    2    0    0  0.19788559986E+02 -0.48818910940E+02  0.11700931677E+03  0.12832012073E+03  0.00000000000E+00 0. -1.
         11    1    1    2    0    0 -0.41460543803E+02  0.18392093166E+02  0.12909793049E+03  0.13683391919E+03  0.00000000000E+00 0.  1.
</event>
<event>
 7    1  0.2626349E-009  0.1063115E+03  0.7561462E-02  0.1267557E+00
          1   -1    0    0  501    0  0.00000000000E+00  0.00000000000E+00  0.34136672914E+02  0.34136672914E+02  0.00000000000E+00 0. -1.
         -1   -1    0    0    0  501 -0.00000000000E+00 -0.00000000000E+00 -0.39495555463E+03  0.39495555463E+03  0.00000000000E+00 0.  1.
         25    2    1    2    0    0  0.10407083059E+02  0.26584270049E+02 -0.26395262754E+03  0.29348666616E+03  0.12509357632E+03 0.  0.
          5    1    3    3  502    0 -0.51158889687E+02 -0.77360693531E+01 -0.15673233814E+03  0.16510474549E+03  0.41800000000E+01 0.  1.
         -5    1    3    3    0  502  0.61565972746E+02  0.34320339402E+02 -0.10722028940E+03  0.12838192067E+03  0.41800000000E+01 0.  1.
        -11    1    1    2    0    0 -0.27380198750E+02 -0.52450153505E+02 -0.41796412296E+02  0.72440554713E+02  0.00000000000E+00 0.  1.
         11    1    1    2    0    0  0.16973115691E+02  0.25865883456E+02 -0.55069841883E+02  0.63165006675E+02  0.00000000000E+00 0. -1.
</event>
<event>
 7    1  0.2626349E-009  0.1140037E+03  0.7561462E-02  0.1253330E+00
         -3   -1    0    0    0  501 -0.00000000000E+00  0.00000000000E+00  0.93117055914E+03  0.93117055914E+03  0.00000000000E+00 0.  1.
          3   -1    0    0  501    0  0.00000000000E+00 -0.00000000000E+00 -0.17955417532E+02  0.17955417532E+02  0.00000000000E+00 0. -1.
         25    2    1    2    0    0 -0.65298825284E+02  0.83780487710E+01  0.61665063362E+03  0.63264557961E+03  0.12509315399E+03 0.  0.
          5    1    3    3  502    0  0.31749144889E+02  0.23629863107E+02  0.24481551861E+03  0.24802921034E+03  0.41800000000E+01 0.  1.
         -5    1    3    3    0  502 -0.97047970173E+02 -0.15251814336E+02  0.37183511501E+03  0.38461636927E+03  0.41800000000E+01 0.  1.
        -11    1    1    2    0    0 -0.41573719435E+01 -0.19149292925E+02  0.11164031075E+02  0.22552488795E+02  0.00000000000E+00 0. -1.
         11    1    1    2    0    0  0.69456197228E+02  0.10771244154E+02  0.28540047691E+03  0.29392790826E+03  0.00000000000E+00 0.  1.
</event>
<event>
 7    1  0.2626349E-009  0.3009677E+03  0.7561462E-02  0.1084758E+00
         -1   -1    0    0    0  501 -0.00000000000E+00  0.00000000000E+00  0.76166105499E+03  0.76166105499E+03  0.00000000000E+00 0.  1.
          1   -1    0    0  501    0  0.00000000000E+00 -0.00000000000E+00 -0.12521791238E+03  0.12521791238E+03  0.00000000000E+00 0. -1.
         25    2    1    2    0    0  0.29116063920E+03 -0.12454475212E+02  0.31835812852E+03  0.44936652852E+03  0.12509495267E+03 0.  0.
          5    1    3    3  502    0  0.12513780208E+03 -0.53895480048E+02  0.19691307455E+03  0.23949201157E+03  0.41800000000E+01 0. -1.
         -5    1    3    3    0  502  0.16602283713E+03  0.41441004835E+02  0.12144505397E+03  0.20987451695E+03  0.41800000000E+01 0. -1.
        -11    1    1    2    0    0 -0.20053125186E+03 -0.11016971700E+02  0.17422877494E+03  0.26587557739E+03  0.00000000000E+00 0.  1.
         11    1    1    2    0    0 -0.90629387345E+02  0.23471446913E+02  0.14385623915E+03  0.17163686146E+03  0.00000000000E+00 0. -1.
</event>
<event>
 7    1  0.2626349E-009  0.2422435E+03  0.7561462E-02  0.1118307E+00
         -2   -1    0    0    0  501 -0.00000000000E+00  0.00000000000E+00  0.13208368915E+04  0.13208368915E+04  0.00000000000E+00 0.  1.
          2   -1    0    0  501    0  0.00000000000E+00 -0.00000000000E+00 -0.51124273394E+02  0.51124273394E+02  0.00000000000E+00 0. -1.
         25    2    1    2    0    0  0.18069733765E+03  0.14991993802E+03  0.72014072585E+03  0.76770929431E+03  0.12508948759E+03 0.  0.
          5    1    3    3  502    0  0.23681858196E+02 -0.89710286909E+01  0.19288631495E+02  0.32106595402E+02  0.41800000000E+01 0. -1.
         -5    1    3    3    0  502  0.15701547945E+03  0.15889096671E+03  0.70085209435E+03  0.73560269891E+03  0.41800000000E+01 0. -1.
        -11    1    1    2    0    0 -0.73481917895E+02 -0.71834847744E+02  0.34881236988E+03  0.36363430392E+03  0.00000000000E+00 0.  1.
         11    1    1    2    0    0 -0.10721541976E+03 -0.78085090272E+02  0.20075952235E+03  0.24061756663E+03  0.00000000000E+00 0. -1.
</event>
<event>
 7    1  0.2626349E-009  0.2112245E+03  0.7561462E-02  0.1140600E+00
         -1   -1    0    0    0  501 -0.00000000000E+00  0.00000000000E+00  0.90911079966E+02  0.90911079966E+02  0.00000000000E+00 0.  1.
          1   -1    0    0  501    0  0.00000000000E+00 -0.00000000000E+00 -0.66981046708E+03  0.66981046708E+03  0.00000000000E+00 0. -1.
         25    2    1    2    0    0 -0.20686345845E+03  0.31478266299E+02 -0.40905099924E+03  0.47618296708E+03  0.12507648248E+03 0.  0.
          5    1    3    3  502    0 -0.88838953012E+02  0.24854773919E+02 -0.30491002851E+03  0.31858706384E+03  0.41800000000E+01 0. -1.
         -5    1    3    3    0  502 -0.11802450544E+03  0.66234923797E+01 -0.10414097073E+03  0.15759590325E+03  0.41800000000E+01 0. -1.
        -11    1    1    2    0    0  0.16034292379E+03 -0.38161904492E+02 -0.80156442413E+02  0.18327912981E+03  0.00000000000E+00 0.  1.
         11    1    1    2    0    0  0.46520534661E+02  0.66836381931E+01 -0.89691945460E+02  0.10125945015E+03  0.00000000000E+00 0. -1.
</event>
<event>
 7    1  0.2626349E-009  0.1317807E+03  0.7561462E-02  0.1224837E+00
         -1   -1    0    0    0  501 -0.00000000000E+00  0.00000000000E+00  0.84736863489E+02  0.84736863489E+02  0.00000000000E+00 0.  1.
          1   -1    0    0  501    0  0.00000000000E+00 -0.00000000000E+00 -0.34790465571E+03  0.34790465571E+03  0.00000000000E+00 0. -1.
         25    2    1    2    0    0 -0.11589193669E+03  0.11209421127E+02 -0.60818899451E+02  0.18139232260E+03  0.12509054343E+03 0.  0.
          5    1    3    3  502    0 -0.57848338674E+02  0.21189496482E+02  0.33399105573E+02  0.70202547686E+02  0.41800000000E+01 0.  1.
         -5    1    3    3    0  502 -0.58043598013E+02 -0.99800753556E+01 -0.94218005024E+02  0.11118977491E+03  0.41800000000E+01 0.  1.
        -11    1    1    2    0    0  0.10606355737E+03 -0.39221330457E+02 -0.12585000894E+03  0.16919224485E+03  0.00000000000E+00 0.  1.
         11    1    1    2    0    0  0.98283793155E+01  0.28011909330E+02 -0.76498883828E+02  0.82056951754E+02  0.00000000000E+00 0. -1.
</event>
<event>
 7    1  0.2626349E-009  0.1293622E+03  0.7561462E-02  0.1228405E+00
          2   -1    0    0  501    0  0.00000000000E+00  0.00000000000E+00  0.17346138210E+04  0.17346138210E+04  0.00000000000E+00 0.  1.
         -2   -1    0    0    0  501 -0.00000000000E+00 -0.00000000000E+00 -0.12517449910E+02  0.12517449910E+02  0.00000000000E+00 0. -1.
         25    2    1    2    0    0 -0.83061800622E+02 -0.13381965030E+02  0.12466034038E+04  0.12556855421E+04  0.12509114503E+03 0.  0.
          5    1    3    3  502    0  0.23568746257E+02  0.96163926554E+01  0.54781447624E+03  0.54842149263E+03  0.41800000000E+01 0.  1.
         -5    1    3    3    0  502 -0.10663054688E+03 -0.22998357685E+02  0.69878892753E+03  0.70726404943E+03  0.41800000000E+01 0.  1.
        -11    1    1    2    0    0  0.20746395370E+01  0.38821689816E+02  0.13093491309E+03  0.13658469605E+03  0.00000000000E+00 0. -1.
         11    1    1    2    0    0  0.80987161085E+02 -0.25439724787E+02  0.34455805427E+03  0.35486103282E+03  0.00000000000E+00 0.  1.
</event>
<event>
 7    1  0.2626349E-009  0.6052265E+02  0.7561462E-02  0.1395651E+00
         -1   -1    0    0    0  501 -0.00000000000E+00  0.00000000000E+00  0.47060394997E+02  0.47060394997E+02  0.00000000000E+00 0.  1.
          1   -1    0    0  501    0  0.00000000000E+00 -0.00000000000E+00 -0.24567547793E+03  0.24567547793E+03  0.00000000000E+00 0. -1.
         25    2    1    2    0    0 -0.53890049526E+02 -0.60438446039E+01 -0.12598940775E+03  0.18564243154E+03  0.12509642692E+03 0.  0.
          5    1    3    3  502    0 -0.16301312681E+02  0.55815918447E+00  0.24836908802E+02  0.30006478894E+02  0.41800000000E+01 0. -1.
         -5    1    3    3    0  502 -0.37588736846E+02 -0.66020037883E+01 -0.15082631656E+03  0.15563595265E+03  0.41800000000E+01 0. -1.
        -11    1    1    2    0    0  0.16255953228E+02 -0.15491146032E+02 -0.56557333994E+02  0.60851981474E+02  0.00000000000E+00 0. -1.
         11    1    1    2    0    0  0.37634096298E+02  0.21534990636E+02 -0.16068341184E+02  0.46241459906E+02  0.00000000000E+00 0.  1.
</event>
<event>
 7    1  0.2626349E-009  0.8824625E+02  0.7561462E-02  0.1307155E+00
         -2   -1    0    0    0  501 -0.00000000000E+00  0.00000000000E+00  0.15501689295E+03  0.15501689295E+03  0.00000000000E+00 0.  1.
          2   -1    0    0  501    0  0.00000000000E+00 -0.00000000000E+00 -0.99955812135E+02  0.99955812135E+02  0.00000000000E+00 0. -1.
         25    2    1    2    0    0  0.31926621224E+01 -0.55356550671E+02  0.11516571165E+02  0.13731324555E+03  0.12509098768E+03 0.  0.
          5    1    3    3  502    0 -0.10825860162E+02 -0.59940809911E+02  0.60520841320E+02  0.85967113335E+02  0.41800000000E+01 0.  1.
         -5    1    3    3    0  502  0.14018522284E+02  0.45842592394E+01 -0.49004270155E+02  0.51346132213E+02  0.41800000000E+01 0.  1.
        -11    1    1    2    0    0  0.20482716041E+02  0.69550925360E+02  0.84285869629E+01  0.72992560943E+02  0.00000000000E+00 0.  1.
         11    1    1    2    0    0 -0.23675378163E+02 -0.14194374689E+02  0.35115922685E+02  0.44666898594E+02  0.00000000000E+00 0. -1.
</event>
<event>
 7    1  0.3516525E-009  0.2889048E+03  0.7561462E-02  0.1090922E+00
         -1   -1    0    0    0  501 -0.00000000000E+00  0.00000000000E+00  0.66282870197E+02  0.66282870197E+02  0.00000000000E+00 0.  1.
          1   -1    0    0  501    0  0.00000000000E+00 -0.00000000000E+00 -0.13024505604E+04  0.13024505604E+04  0.00000000000E+00 0. -1.
         25    2    1    2    0    0 -0.25236049386E+03 -0.93478833786E+02 -0.52782538984E+03  0.60553456130E+03  0.12509337128E+03 0.  0.
          5    1    3    3  502    0 -0.13127719566E+03  0.17013299822E+02 -0.22116379892E+03  0.25778683602E+03  0.41800000000E+01 0. -1.
         -5    1    3    3    0  502 -0.12108329821E+03 -0.11049213361E+03 -0.30666159092E+03  0.34774772528E+03  0.41800000000E+01 0. -1.
        -11    1    1    2    0    0  0.13111148312E+03  0.48380922334E+01 -0.27812812155E+03  0.30752053613E+03  0.00000000000E+00 0.  1.
         11    1    1    2    0    0  0.12124901074E+03  0.88640741553E+02 -0.43021417881E+03  0.45567833317E+03  0.00000000000E+00 0. -1.
</event>
<event>
 7    1  0.2626349E-009  0.9119634E+02  0.7561462E-02  0.1299980E+00
         -2   -1    0    0    0  501 -0.00000000000E+00  0.00000000000E+00  0.79393113144E+02  0.79393113144E+02  0.00000000000E+00 0. -1.
          2   -1    0    0  501    0  0.00000000000E+00 -0.00000000000E+00 -0.21805891914E+03  0.21805891914E+03  0.00000000000E+00 0.  1.
         25    2    1    2    0    0 -0.57488359330E+01  0.66780447262E+02 -0.10644401873E+03  0.17740088691E+03  0.12509223918E+03 0.  0.
          5    1    3    3  502    0 -0.15384086301E+02  0.56552264187E+01  0.26078154331E+02  0.31083665010E+02  0.41800000000E+01 0. -1.
         -5    1    3    3    0  502  0.96352503680E+01  0.61125220844E+02 -0.13252217306E+03  0.14631722190E+03  0.41800000000E+01 0. -1.
        -11    1    1    2    0    0 -0.41164195662E+01  0.17816707241E+02 -0.29657959753E+02  0.34842137472E+02  0.00000000000E+00 0.  1.
         11    1    1    2    0    0  0.98652554992E+01 -0.84597154503E+02 -0.25638275175E+01  0.85209007902E+02  0.00000000000E+00 0. -1.
</event>
<event>
 7    1  0.2626349E-009  0.1708980E+03  0.7561462E-02  0.1176915E+00
         -1   -1    0    0    0  501 -0.00000000000E+00  0.00000000000E+00  0.23897810402E+03  0.23897810402E+03  0.00000000000E+00 0.  1.
          1   -1    0    0  501    0  0.00000000000E+00 -0.00000000000E+00 -0.15442142023E+03  0.15442142023E+03  0.00000000000E+00 0. -1.
         25    2    1    2    0    0 -0.67850544143E+02  0.12938139156E+03  0.10706266365E+03  0.22012301222E+03  0.12509390769E+03 0.  0.
          5    1    3    3  502    0 -0.87685694331E+02  0.13708832671E+03  0.11236059108E+03  0.19779879964E+03  0.41800000000E+01 0. -1.
         -5    1    3    3    0  502  0.19835150189E+02 -0.77069351513E+01 -0.52979274301E+01  0.22324212584E+02  0.41800000000E+01 0. -1.
        -11    1    1    2    0    0  0.74871319381E+02 -0.88857823696E+02 -0.47075060451E+02  0.12536940861E+03  0.00000000000E+00 0. -1.
         11    1    1    2    0    0 -0.70207752383E+01 -0.40523567868E+02  0.24569080593E+02  0.47907103428E+02  0.00000000000E+00 0.  1.
</event>
<event>
 7    1  0.3805275E-009  0.1287321E+03  0.7561462E-02  0.1229349E+00
         -1   -1    0    0    0  501 -0.00000000000E+00  0.00000000000E+00  0.66077675409E+02  0.66077675409E+02  0.00000000000E+00 0.  1.
          1   -1    0    0  501    0  0.00000000000E+00 -0.00000000000E+00 -0.33395611342E+03  0.33395611342E+03  0.00000000000E+00 0. -1.
         25    2    1    2    0    0 -0.87923592572E+02  0.41357913206E+02 -0.10647202448E+03  0.19085187298E+03  0.12508840997E+03 0.  0.
          5    1    3    3  502    0 -0.11648088921E+03  0.49192300225E+02 -0.97204972003E+02  0.15954296893E+03  0.41800000000E+01 0.  1.
         -5    1    3    3    0  502  0.28557296641E+02 -0.78343870185E+01 -0.92670524717E+01  0.31308904052E+02  0.41800000000E+01 0.  1.
        -11    1    1    2    0    0  0.56365100088E+02 -0.11344941929E+02 -0.19451839302E+02  0.60696839024E+02  0.00000000000E+00 0.  1.
         11    1    1    2    0    0  0.31558492484E+02 -0.30012971277E+02 -0.14195457423E+03  0.14848507682E+03  0.00000000000E+00 0. -1.
</event>
<event>
 7    1  0.2626349E-009  0.9589715E+02  0.7561462E-02  0.1289168E+00
          2   -1    0    0  501    0  0.00000000000E+00  0.00000000000E+00  0.44816203929E+03  0.44816203929E+03  0.00000000000E+00 0. -1.
         -2   -1    0    0    0  501 -0.00000000000E+00 -0.00000000000E+00 -0.11911793202E+03  0.11911793202E+03  0.00000000000E+00 0.  1.
         25    2    1    2    0    0  0.25332293117E+02  0.20179553824E+02 -0.76568777198E+02  0.15019366371E+03  0.12508564870E+03 0.  0.
          5    1    3    3  502    0  0.58472600139E+02  0.22334040244E+02  0.40899900286E+01  0.62865369951E+02  0.41800000000E+01 0. -1.
         -5    1    3    3    0  502 -0.33140307022E+02 -0.21544864192E+01 -0.80658767226E+02  0.87328293764E+02  0.41800000000E+01 0. -1.
        -11    1    1    2    0    0  0.33894568615E+02 -0.35943478095E+01  0.18226130651E+03  0.18542099388E+03  0.00000000000E+00 0. -1.
         11    1    1    2    0    0 -0.59226861732E+02 -0.16585206015E+02  0.22335157795E+03  0.23166531373E+03  0.00000000000E+00 0.  1.
</event>
<event>
 7    1  0.2626349E-009  0.1404710E+03  0.7561462E-02  0.1212697E+00
          2   -1    0    0  501    0  0.00000000000E+00  0.00000000000E+00  0.19526749580E+03  0.19526749580E+03  0.00000000000E+00 0.  1.
         -2   -1    0    0    0  501 -0.00000000000E+00 -0.00000000000E+00 -0.11718587364E+03  0.11718587364E+03  0.00000000000E+00 0. -1.
         25    2    1    2    0    0  0.70445885677E+02  0.77480217529E+02  0.29569623716E+02  0.16578680970E+03  0.12508036100E+03 0.  0.
          5    1    3    3  502    0  0.77931644648E+02  0.68973333689E+01 -0.17808046656E+02  0.80346209436E+02  0.41800000000E+01 0.  1.
         -5    1    3    3    0  502 -0.74857589707E+01  0.70582884161E+02  0.47377670372E+02  0.85440600265E+02  0.41800000000E+01 0.  1.
        -11    1    1    2    0    0  0.14475171168E+02  0.26714981465E+01  0.22732526761E+02  0.27082009815E+02  0.00000000000E+00 0.  1.
         11    1    1    2    0    0 -0.84921056845E+02 -0.80151715676E+02  0.25779471684E+02  0.11958454993E+03  0.00000000000E+00 0. -1.
</event>
<event>
 7    1  0.2626349E-009  0.1389482E+03  0.7561462E-02  0.1214751E+00
         -1   -1    0    0    0  501 -0.00000000000E+00  0.00000000000E+00  0.66445954845E+02  0.66445954845E+02  0.00000000000E+00 0. -1.
          1   -1    0    0  501    0  0.00000000000E+00 -0.00000000000E+00 -0.43609531956E+03  0.43609531956E+03  0.00000000000E+00 0.  1.
         25    2    1    2    0    0 -0.21642737848E+02  0.13416590972E+03 -0.19402680016E+03  0.26788566464E+03  0.12508969065E+03 0.  0.
          5    1    3    3  502    0 -0.19846987308E+02  0.10380801448E+03 -0.43676856334E+02  0.11443402883E+03  0.41800000000E+01 0. -1.
         -5    1    3    3    0  502 -0.17957505399E+01  0.30357895239E+02 -0.15034994383E+03  0.15345163581E+03  0.41800000000E+01 0. -1.
        -11    1    1    2    0    0  0.26062147462E+02 -0.43890856785E+02 -0.20268082487E+02  0.54922108548E+02  0.00000000000E+00 0. -1.
         11    1    1    2    0    0 -0.44194096145E+01 -0.90275052930E+02 -0.15535448207E+03  0.17973350122E+03  0.00000000000E+00 0.  1.
</event>
<event>
 7    1  0.2626349E-009  0.1255816E+03  0.7561462E-02  0.1234163E+00
         -2   -1    0    0    0  501 -0.00000000000E+00  0.00000000000E+00  0.11961601311E+02  0.11961601311E+02  0.00000000000E+00 0.  1.
          2   -1    0    0  501    0  0.00000000000E+00 -0.00000000000E+00 -0.17821685276E+04  0.17821685276E+04  0.00000000000E+00 0. -1.
         25    2    1    2    0    0  0.61518113145E+02 -0.71856104299E+02 -0.11057815715E+04  0.11168474819E+04  0.12509051159E+03 0.  0.
          5    1    3    3  502    0  0.13737807144E+02 -0.70480953734E+02 -0.26175144255E+03  0.27145456759E+03  0.41800000000E+01 0. -1.
         -5    1    3    3    0  502  0.47780306001E+02 -0.13751505648E+01 -0.84403012891E+03  0.84539291432E+03  0.41800000000E+01 0. -1.
        -11    1    1    2    0    0 -0.31003993161E+02  0.90383539948E+02 -0.47232650024E+03  0.48189496232E+03  0.00000000000E+00 0.  1.
         11    1    1    2    0    0 -0.30514119984E+02 -0.18527435649E+02 -0.19209885458E+03  0.19538768467E+03  0.00000000000E+00 0. -1.
</event>
<event>
 7    1  0.2626349E-009  0.8995202E+02  0.7561462E-02  0.1302968E+00
          1   -1    0    0  501    0  0.00000000000E+00  0.00000000000E+00  0.25446519328E+03  0.25446519328E+03  0.00000000000E+00 0. -1.
         -1   -1    0    0    0  501 -0.00000000000E+00 -0.00000000000E+00 -0.51655153000E+02  0.51655153000E+02  0.00000000000E+00 0.  1.
         25    2    1    2    0    0 -0.22885011029E+02 -0.12392947359E+02  0.15451301227E+03  0.20049696159E+03  0.12508977484E+03 0.  0.
          5    1    3    3  502    0  0.42845367820E+02  0.25909833679E+02  0.75872949321E+02  0.91001219022E+02  0.41800000000E+01 0. -1.
         -5    1    3    3    0  502 -0.65730378848E+02 -0.38302781038E+02  0.78640062949E+02  0.10949574256E+03  0.41800000000E+01 0. -1.
        -11    1    1    2    0    0  0.63119361364E+01  0.29194216582E+02  0.68390395161E+02  0.74628338920E+02  0.00000000000E+00 0. -1.
         11    1    1    2    0    0  0.16573074892E+02 -0.16801269223E+02 -0.20093367153E+02  0.30995045773E+02  0.00000000000E+00 0.  1.
</event>
<event>
 7    1  0.2626349E-009  0.1139851E+03  0.7561462E-02  0.1253363E+00
          2   -1    0    0  501    0  0.00000000000E+00  0.00000000000E+00  0.28821065536E+03  0.28821065536E+03  0.00000000000E+00 0. -1.
         -2   -1    0    0    0  501 -0.00000000000E+00 -0.00000000000E+00 -0.64759647266E+02  0.64759647266E+02  0.00000000000E+00 0.  1.
         25    2    1    2    0    0 -0.60846309700E+02 -0.47522291137E+02  0.78790783284E+02  0.16678303978E+03  0.12509177938E+03 0.  0.
          5    1    3    3  502    0 -0.61484491765E+01 -0.60290470147E+02 -0.10069516146E+02  0.61576064938E+02  0.41800000000E+01 0. -1.
         -5    1    3    3    0  502 -0.54697860523E+02  0.12768179009E+02  0.88860299430E+02  0.10520697484E+03  0.41800000000E+01 0. -1.
        -11    1    1    2    0    0  0.38839958047E+02  0.69614760702E+02  0.73228201125E+02  0.10824567746E+03  0.00000000000E+00 0.  1.
         11    1    1    2    0    0  0.22006351653E+02 -0.22092469564E+02  0.71432023686E+02  0.77941585385E+02  0.00000000000E+00 0. -1.
</event>
<event>
 7    1  0.2626349E-009  0.6067650E+02  0.7561462E-02  0.1395015E+00
         -1   -1    0    0    0  501 -0.00000000000E+00  0.00000000000E+00  0.20713064300E+03  0.20713064300E+03  0.00000000000E+00 0.  1.
          1   -1    0    0  501    0  0.00000000000E+00 -0.00000000000E+00 -0.60837321670E+02  0.60837321670E+02  0.00000000000E+00 0. -1.
         25    2    1    2    0    0  0.53226594508E+01 -0.15963078777E+02  0.69678106099E+02  0.14417388569E+03  0.12509164744E+03 0.  0.
          5    1    3    3  502    0 -0.87995402088E+01 -0.17183158295E+02 -0.34068208984E+02  0.39380300917E+02  0.41800000000E+01 0. -1.
         -5    1    3    3    0  502  0.14122199660E+02  0.12200795181E+01  0.10374631508E+03  0.10479358478E+03  0.41800000000E+01 0. -1.
        -11    1    1    2    0    0 -0.41188897615E+02 -0.10193137965E+02  0.97533261918E+01  0.43537945750E+02  0.00000000000E+00 0. -1.
         11    1    1    2    0    0  0.35866238164E+02  0.26156216743E+02  0.66861889038E+02  0.80256133224E+02  0.00000000000E+00 0.  1.
</event>
<event>
 7    1  0.2626349E-009  0.1272516E+03  0.7561462E-02  0.1231592E+00
         -2   -1    0    0    0  501 -0.00000000000E+00  0.00000000000E+00  0.29879847455E+02  0.29879847455E+02  0.00000000000E+00 0.  1.
          2   -1    0    0  501    0  0.00000000000E+00 -0.00000000000E+00 -0.65912124015E+03  0.65912124015E+03  0.00000000000E+00 0. -1.
         25    2    1    2    0    0  0.65935430117E+02  0.36266366154E+02 -0.43062863769E+03  0.45470428411E+03  0.12510888113E+03 0.  0.
          5    1    3    3  502    0 -0.15175486843E+02 -0.34265725864E+02 -0.93007597121E+02  0.10036095303E+03  0.41800000000E+01 0. -1.
         -5    1    3    3    0  502  0.81110916960E+02  0.70532092019E+02 -0.33762104056E+03  0.35434333109E+03  0.41800000000E+01 0. -1.
        -11    1    1    2    0    0 -0.80985276931E+02 -0.13752746246E+02 -0.18808705087E+03  0.20524251950E+03  0.00000000000E+00 0. -1.
         11    1    1    2    0    0  0.15049846815E+02 -0.22513619909E+02 -0.10525704148E+02  0.29054283993E+02  0.00000000000E+00 0.  1.
</event>
<event>
 7    1  0.2626349E-009  0.1360825E+03  0.7561462E-02  0.1218700E+00
          3   -1    0    0  501    0  0.00000000000E+00  0.00000000000E+00  0.14326599948E+03  0.14326599948E+03  0.00000000000E+00 0. -1.
         -3   -1    0    0    0  501 -0.00000000000E+00 -0.00000000000E+00 -0.13523847405E+03  0.13523847405E+03  0.00000000000E+00 0.  1.
         25    2    1    2    0    0  0.93956525206E+02  0.11074689212E+02 -0.16474139098E+02  0.15770262374E+03  0.12509293707E+03 0.  0.
          5    1    3    3  502    0 -0.29528225292E+02 -0.56844708073E+01 -0.12839013546E+02  0.32962736022E+02  0.41800000000E+01 0. -1.
         -5    1    3    3    0  502  0.12348475050E+03  0.16759160020E+02 -0.36351255527E+01  0.12473988772E+03  0.41800000000E+01 0. -1.
        -11    1    1    2    0    0 -0.88219740606E+02 -0.33201222112E+02  0.26335330891E+02  0.97870288829E+02  0.00000000000E+00 0.  1.
         11    1    1    2    0    0 -0.57367846000E+01  0.22126532899E+02 -0.18336663674E+01  0.22931560959E+02  0.00000000000E+00 0. -1.
</event>
<event>
 7    1  0.2626349E-009  0.1040566E+03  0.7561462E-02  0.1271990E+00
          1   -1    0    0  501    0  0.00000000000E+00  0.00000000000E+00  0.13132831864E+03  0.13132831864E+03  0.00000000000E+00 0. -1.
         -1   -1    0    0    0  501 -0.00000000000E+00 -0.00000000000E+00 -0.11031064731E+03  0.11031064731E+03  0.00000000000E+00 0.  1.
         25    2    1    2    0    0 -0.50058426618E+02 -0.93059496090E+01 -0.22475253101E+01  0.13507408483E+03  0.12509000859E+03 0.  0.
          5    1    3    3  502    0 -0.24934502705E+02  0.57681002119E+02  0.42047102519E+01  0.63118772318E+02  0.41800000000E+01 0.  1.
         -5    1    3    3    0  502 -0.25123923913E+02 -0.66986951728E+02 -0.64522355620E+01  0.71955312510E+02  0.41800000000E+01 0.  1.
        -11    1    1    2    0    0  0.57699113826E+02  0.19342817802E+02 -0.17962462335E+02  0.63450629547E+02  0.00000000000E+00 0.  1.
         11    1    1    2    0    0 -0.76406872082E+01 -0.10036868193E+02  0.41227658972E+02  0.43114251570E+02  0.00000000000E+00 0. -1.
</event>
<event>
 7    1  0.2626349E-009  0.1171062E+03  0.7561462E-02  0.1247949E+00
         -1   -1    0    0    0  501 -0.00000000000E+00  0.00000000000E+00  0.17583041351E+02  0.17583041351E+02  0.00000000000E+00 0.  1.
          1   -1    0    0  501    0  0.00000000000E+00 -0.00000000000E+00 -0.15893837952E+04  0.15893837952E+04  0.00000000000E+00 0. -1.
         25    2    1    2    0    0 -0.44389252054E+02  0.67520020327E+02 -0.13375771805E+04  0.13458413724E+04  0.12508767698E+03 0.  0.
          5    1    3    3  502    0 -0.57325907627E+02 -0.18302474081E+02 -0.45098358040E+03  0.45499989279E+03  0.41800000000E+01 0. -1.
         -5    1    3    3    0  502  0.12936655573E+02  0.85822494407E+02 -0.88659360009E+03  0.89084147957E+03  0.41800000000E+01 0. -1.
        -11    1    1    2    0    0  0.17146868264E+02 -0.36082634939E+01 -0.75478678774E+00  0.17538653307E+02  0.00000000000E+00 0.  1.
         11    1    1    2    0    0  0.27242383790E+02 -0.63911756833E+02 -0.23346878657E+03  0.24358681088E+03  0.00000000000E+00 0. -1.
</event>
<event>
 7    1  0.3738474E-009  0.8864908E+02  0.7561462E-02  0.1306157E+00
          1   -1    0    0  501    0  0.00000000000E+00  0.00000000000E+00  0.29502533940E+03  0.29502533940E+03  0.00000000000E+00 0. -1.
         -1   -1    0    0    0  501 -0.00000000000E+00 -0.00000000000E+00 -0.65582606776E+02  0.65582606776E+02  0.00000000000E+00 0.  1.
         25    2    1    2    0    0 -0.74357258220E+02 -0.10001185036E+02  0.68912975902E+02  0.16132325664E+03  0.12508864590E+03 0.  0.
          5    1    3    3  502    0 -0.74548498730E+02 -0.18319736744E+02  0.10155821607E+03  0.12737595954E+03  0.41800000000E+01 0.  1.
         -5    1    3    3    0  502  0.19124051053E+00  0.83185517081E+01 -0.32645240164E+02  0.33947297106E+02  0.41800000000E+01 0.  1.
        -11    1    1    2    0    0  0.55993846779E+02  0.30355335278E+02  0.38962407386E+02  0.74664760404E+02  0.00000000000E+00 0.  1.
         11    1    1    2    0    0  0.18363411441E+02 -0.20354150242E+02  0.12156734934E+03  0.12461992913E+03  0.00000000000E+00 0. -1.
</event>
<event>
 7    1  0.2626349E-009  0.9487017E+02  0.7561462E-02  0.1291469E+00
          1   -1    0    0  501    0  0.00000000000E+00  0.00000000000E+00  0.63601305999E+02  0.63601305999E+02  0.00000000000E+00 0. -1.
         -1   -1    0    0    0  501 -0.00000000000E+00 -0.00000000000E+00 -0.21070813021E+03  0.21070813021E+03  0.00000000000E+00 0.  1.
         25    2    1    2    0    0 -0.97974153506E+01 -0.44479128341E+02 -0.11058492718E+03  0.17306749356E+03  0.12509575932E+03 0.  0.
          5    1    3    3  502    0 -0.64480806617E+02 -0.84790739642E+01 -0.71323272087E+02  0.96613408274E+02  0.41800000000E+01 0.  1.
         -5    1    3    3    0  502  0.54683391266E+02 -0.36000054376E+02 -0.39261655098E+02  0.76454085283E+02  0.41800000000E+01 0.  1.
        -11    1    1    2    0    0  0.20108483290E+02  0.90190206845E+01 -0.55504669484E+02  0.59719864107E+02  0.00000000000E+00 0.  1.
         11    1    1    2    0    0 -0.10311067940E+02  0.35460107656E+02  0.18982772453E+02  0.41522078549E+02  0.00000000000E+00 0. -1.
</event>
<event>
 7    1  0.2626349E-009  0.1498932E+03  0.7561462E-02  0.1200604E+00
          1   -1    0    0  501    0  0.00000000000E+00  0.00000000000E+00  0.17266590360E+04  0.17266590360E+04  0.00000000000E+00 0. -1.
         -1   -1    0    0    0  501 -0.00000000000E+00 -0.00000000000E+00 -0.15001206230E+02  0.15001206230E+02  0.00000000000E+00 0.  1.
         25    2    1    2    0    0  0.11012685733E+03  0.42533579436E+02  0.91776474292E+03  0.93374356598E+03  0.12509154082E+03 0.  0.
          5    1    3    3  502    0  0.12251417246E+03  0.19045545293E+02  0.87110605988E+03  0.87989527514E+03  0.41800000000E+01 0. -1.
         -5    1    3    3    0  502 -0.12387315131E+02  0.23488034143E+02  0.46658683035E+02  0.53848290842E+02  0.41800000000E+01 0. -1.
        -11    1    1    2    0    0 -0.19033278065E+02 -0.53794041661E+02  0.25965856349E+03  0.26585453577E+03  0.00000000000E+00 0.  1.
         11    1    1    2    0    0 -0.91093579269E+02  0.11260462226E+02  0.53423452337E+03  0.54206214049E+03  0.00000000000E+00 0. -1.
</event>
<event>
 7    1  0.2626349E-009  0.2050000E+03  0.7561462E-02  0.1145588E+00
          1   -1    0    0  501    0  0.00000000000E+00  0.00000000000E+00  0.30083458087E+03  0.30083458087E+03  0.00000000000E+00 0. -1.
         -1   -1    0    0    0  501 -0.00000000000E+00 -0.00000000000E+00 -0.25066142979E+03  0.25066142979E+03  0.00000000000E+00 0.  1.
         25    2    1    2    0    0 -0.52429348633E+02 -0.18305737467E+03 -0.13930950801E+03  0.26704868422E+03  0.12509604991E+03 0.  0.
          5    1    3    3  502    0  0.10124163352E+02 -0.14450128545E+02 -0.73180038593E+02  0.75392939637E+02  0.41800000000E+01 0.  1.
         -5    1    3    3    0  502 -0.62553511986E+02 -0.16860724612E+03 -0.66129469418E+02  0.19165574459E+03  0.41800000000E+01 0.  1.
        -11    1    1    2    0    0  0.65091779248E+02  0.60799280966E+02  0.74097342011E+02  0.11586159150E+03  0.00000000000E+00 0.  1.
         11    1    1    2    0    0 -0.12662430614E+02  0.12225809370E+03  0.11538531708E+03  0.16858573493E+03  0.00000000000E+00 0. -1.
</event>
<event>
 7    1  0.2626349E-009  0.1462672E+03  0.7561462E-02  0.1205136E+00
         -2   -1    0    0    0  501 -0.00000000000E+00  0.00000000000E+00  0.10110664645E+03  0.10110664645E+03  0.00000000000E+00 0. -1.
          2   -1    0    0  501    0  0.00000000000E+00 -0.00000000000E+00 -0.23975465481E+03  0.23975465481E+03  0.00000000000E+00 0.  1.
         25    2    1    2    0    0  0.81648560980E+02  0.60880911725E+02 -0.10822912222E+03  0.19425317162E+03  0.12509108228E+03 0.  0.
          5    1    3    3  502    0  0.23913403144E+02  0.87897449430E+02 -0.89289781747E+02  0.12762425314E+03  0.41800000000E+01 0.  1.
         -5    1    3    3    0  502  0.57735157836E+02 -0.27016537705E+02 -0.18939340477E+02  0.66628918479E+02  0.41800000000E+01 0.  1.
        -11    1    1    2    0    0 -0.23700356723E+00  0.21583918398E+02  0.10122004010E+02  0.23840651612E+02  0.00000000000E+00 0.  1.
         11    1    1    2    0    0 -0.81411557413E+02 -0.82464830123E+02 -0.40540890141E+02  0.12276747803E+03  0.00000000000E+00 0. -1.
</event>
<event>
 7    1  0.2626349E-009  0.1071662E+03  0.7561462E-02  0.1265909E+00
          3   -1    0    0  501    0  0.00000000000E+00  0.00000000000E+00  0.47742368664E+03  0.47742368664E+03  0.00000000000E+00 0.  1.
         -3   -1    0    0    0  501 -0.00000000000E+00 -0.00000000000E+00 -0.30175499404E+02  0.30175499404E+02  0.00000000000E+00 0. -1.
         25    2    1    2    0    0 -0.21946133919E+02 -0.33089687077E+02  0.31915533271E+03  0.34508605330E+03  0.12509075745E+03 0.  0.
          5    1    3    3  502    0 -0.54320103564E+02 -0.57802889412E+02  0.26822650447E+03  0.27974055440E+03  0.41800000000E+01 0. -1.
         -5    1    3    3    0  502  0.32373969645E+02  0.24713202336E+02  0.50928828237E+02  0.65345498895E+02  0.41800000000E+01 0. -1.
        -11    1    1    2    0    0 -0.30224995370E+02 -0.32199419894E+01  0.17825129480E+02  0.35237105620E+02  0.00000000000E+00 0. -1.
         11    1    1    2    0    0  0.52171129289E+02  0.36309629066E+02  0.11026772505E+03  0.12727602713E+03  0.00000000000E+00 0.  1.
</event>
<event>
 7    1  0.2626349E-009  0.9072163E+02  0.7561462E-02  0.1301114E+00
         -1   -1    0    0    0  501 -0.00000000000E+00  0.00000000000E+00  0.12847485022E+03  0.12847485022E+03  0.00000000000E+00 0.  1.
          1   -1    0    0  501    0  0.00000000000E+00 -0.00000000000E+00 -0.11506023335E+03  0.11506023335E+03  0.00000000000E+00 0. -1.
         25    2    1    2    0    0 -0.41333831569E+02  0.14063692241E+02  0.45074655670E+02  0.13994678955E+03  0.12508839375E+03 0.  0.
          5    1    3    3  502    0 -0.54538842481E+02  0.56529100853E+02  0.52632118305E+02  0.94644793094E+02  0.41800000000E+01 0. -1.
         -5    1    3    3    0  502  0.13205010912E+02 -0.42465408612E+02 -0.75574626353E+01  0.45301996460E+02  0.41800000000E+01 0. -1.
        -11    1    1    2    0    0  0.23595893837E+02  0.12090866964E+02  0.26443819255E+02  0.37446372944E+02  0.00000000000E+00 0.  1.
         11    1    1    2    0    0  0.17737937733E+02 -0.26154559204E+02 -0.58103858054E+02  0.66141921071E+02  0.00000000000E+00 0. -1.
</event>
<event>
 7    1  0.2626349E-009  0.1113334E+03  0.7561462E-02  0.1258120E+00
          2   -1    0    0  501    0  0.00000000000E+00  0.00000000000E+00  0.28567029887E+03  0.28567029887E+03  0.00000000000E+00 0. -1.
         -2   -1    0    0    0  501 -0.00000000000E+00 -0.00000000000E+00 -0.16333043737E+03  0.16333043737E+03  0.00000000000E+00 0.  1.
         25    2    1    2    0    0  0.31443353958E+02  0.42709215333E+02 -0.12178094403E+03  0.18245812537E+03  0.12509039773E+03 0.  0.
          5    1    3    3  502    0 -0.41559305291E+02  0.59144525095E+01 -0.90557772595E+01  0.43146681292E+02  0.41800000000E+01 0. -1.
         -5    1    3    3    0  502  0.73002659249E+02  0.36794762823E+02 -0.11272516677E+03  0.13931144408E+03  0.41800000000E+01 0. -1.
        -11    1    1    2    0    0 -0.36782382932E+02 -0.65551072260E+02  0.22169137026E+03  0.23408748454E+03  0.00000000000E+00 0. -1.
         11    1    1    2    0    0  0.53390289736E+01  0.22841856928E+02  0.22429435267E+02  0.32455126324E+02  0.00000000000E+00 0.  1.
</event>
<event>
 7    1  0.2626349E-009  0.1124214E+03  0.7561462E-02  0.1256150E+00
          1   -1    0    0  501    0  0.00000000000E+00  0.00000000000E+00  0.56936997936E+03  0.56936997936E+03  0.00000000000E+00 0. -1.
         -1   -1    0    0    0  501 -0.00000000000E+00 -0.00000000000E+00 -0.76115886425E+02  0.76115886425E+02  0.00000000000E+00 0.  1.
         25    2    1    2    0    0 -0.37673040644E+02  0.67806290036E+02  0.50343140867E+03  0.52450695240E+03  0.12508960356E+03 0.  0.
          5    1    3    3  502    0  0.28545529810E+01  0.64942467384E+02  0.46112176250E+03  0.46569992999E+03  0.41800000000E+01 0. -1.
         -5    1    3    3    0  502 -0.40527593625E+02  0.28638226517E+01  0.42309646166E+02  0.58807022403E+02  0.41800000000E+01 0. -1.
        -11    1    1    2    0    0  0.62079046798E+02 -0.70925046660E+02  0.24972743323E+00  0.94256207535E+02  0.00000000000E+00 0. -1.
         11    1    1    2    0    0 -0.24406006155E+02  0.31187566237E+01 -0.10427043163E+02  0.26722705859E+02  0.00000000000E+00 0.  1.
</event>
<event>
 7    1  0.2626349E-009  0.1025794E+03  0.7561462E-02  0.1274963E+00
          3   -1    0    0  501    0  0.00000000000E+00  0.00000000000E+00  0.40862083799E+02  0.40862083799E+02  0.00000000000E+00 0. -1.
         -3   -1    0    0    0  501 -0.00000000000E+00 -0.00000000000E+00 -0.59425209571E+03  0.59425209571E+03  0.00000000000E+00 0.  1.
         25    2    1    2    0    0  0.85278628295E+02 -0.32370928248E+01 -0.44101258301E+03  0.46628623383E+03  0.12509128776E+03 0.  0.
          5    1    3    3  502    0  0.18019296413E+02  0.26551568492E+02 -0.33849589830E+03  0.34003915421E+03  0.41800000000E+01 0.  1.
         -5    1    3    3    0  502  0.67259331882E+02 -0.29788661317E+02 -0.10251668472E+03  0.12624707962E+03  0.41800000000E+01 0.  1.
        -11    1    1    2    0    0  0.11390695628E+01  0.12186629146E+02  0.11980682598E+02  0.17127409755E+02  0.00000000000E+00 0. -1.
         11    1    1    2    0    0 -0.86417697858E+02 -0.89495363214E+01 -0.12435811150E+03  0.15170053592E+03  0.00000000000E+00 0.  1.
</event>
<event>
 7    1  0.2626349E-009  0.1978985E+03  0.7561462E-02  0.1151524E+00
          1   -1    0    0  501    0  0.00000000000E+00  0.00000000000E+00  0.17103637353E+04  0.17103637353E+04  0.00000000000E+00 0. -1.
         -1   -1    0    0    0  501 -0.00000000000E+00 -0.00000000000E+00 -0.28017350176E+02  0.28017350176E+02  0.00000000000E+00 0.  1.
         25    2    1    2    0    0 -0.78924916543E+02  0.17169651261E+03  0.90085400221E+03  0.92892085805E+03  0.12508873781E+03 0.  0.
          5    1    3    3  502    0 -0.38862931023E+02  0.48452365394E+02  0.57280224039E+03  0.57617518006E+03  0.41800000000E+01 0.  1.
         -5    1    3    3    0  502 -0.40061985520E+02  0.12324414722E+03  0.32805176181E+03  0.35274567799E+03  0.41800000000E+01 0.  1.
        -11    1    1    2    0    0  0.94430550763E+02 -0.14628778111E+03  0.72488818498E+03  0.74550662273E+03  0.00000000000E+00 0.  1.
         11    1    1    2    0    0 -0.15505634220E+02 -0.25408731505E+02  0.56604197936E+02  0.63953604693E+02  0.00000000000E+00 0. -1.
</event>
<event>
 7    1  0.2626349E-009  0.1079897E+03  0.7561462E-02  0.1264339E+00
         -2   -1    0    0    0  501 -0.00000000000E+00  0.00000000000E+00  0.16220892703E+02  0.16220892703E+02  0.00000000000E+00 0.  1.
          2   -1    0    0  501    0  0.00000000000E+00 -0.00000000000E+00 -0.74050795775E+03  0.74050795775E+03  0.00000000000E+00 0. -1.
         25    2    1    2    0    0 -0.43380387094E+01  0.94286584840E+01 -0.45306193245E+03  0.47012762863E+03  0.12508858615E+03 0.  0.
          5    1    3    3  502    0 -0.11847190776E+01 -0.57432885266E+02 -0.18224291820E+03  0.19112795061E+03  0.41800000000E+01 0. -1.
         -5    1    3    3    0  502 -0.31533196318E+01  0.66861543750E+02 -0.27081901425E+03  0.27899967802E+03  0.41800000000E+01 0. -1.
        -11    1    1    2    0    0 -0.32605164879E+02  0.24790946154E+02 -0.98270420854E+02  0.10646484585E+03  0.00000000000E+00 0.  1.
         11    1    1    2    0    0  0.36943203588E+02 -0.34219604638E+02 -0.17295471174E+03  0.18013637597E+03  0.00000000000E+00 0. -1.
</event>
<event>
 7    1  0.2626349E-009  0.9375404E+02  0.7561462E-02  0.1294007E+00
         -1   -1    0    0    0  501 -0.00000000000E+00  0.00000000000E+00  0.24692795511E+03  0.24692795511E+03  0.00000000000E+00 0.  1.
          1   -1    0    0  501    0  0.00000000000E+00 -0.00000000000E+00 -0.54399811032E+02  0.54399811032E+02  0.00000000000E+00 0. -1.
         25    2    1    2    0    0 -0.28949344306E+02  0.21711344473E+02  0.68900293298E+02  0.14732437866E+03  0.12509106729E+03 0.  0.
          5    1    3    3  502    0 -0.43567981332E+02 -0.25161594009E+02 -0.12646656400E+02  0.52045029816E+02  0.41800000000E+01 0.  1.
         -5    1    3    3    0  502  0.14618637026E+02  0.46872938481E+02  0.81546949698E+02  0.95279348840E+02  0.41800000000E+01 0.  1.
        -11    1    1    2    0    0  0.36412593850E+02 -0.48096475606E+02  0.10418423488E+03  0.12038896442E+03  0.00000000000E+00 0.  1.
         11    1    1    2    0    0 -0.74632495443E+01  0.26385131134E+02  0.19443615901E+02  0.33614423065E+02  0.00000000000E+00 0. -1.
</event>
<event>
 7    1  0.2626349E-009  0.1146870E+03  0.7561462E-02  0.1252128E+00
          1   -1    0    0  501    0  0.00000000000E+00  0.00000000000E+00  0.55231415996E+02  0.55231415996E+02  0.00000000000E+00 0. -1.
         -1   -1    0    0    0  501 -0.00000000000E+00 -0.00000000000E+00 -0.32318237428E+03  0.32318237428E+03  0.00000000000E+00 0.  1.
         25    2    1    2    0    0  0.49960318916E+02 -0.18333856013E+02 -0.67536655241E+02  0.15179409522E+03  0.12509230112E+03 0.  0.
          5    1    3    3  502    0 -0.30401358734E+02  0.18966916551E+02 -0.49553269541E+02  0.61294253062E+02  0.41800000000E+01 0. -1.
         -5    1    3    3    0  502  0.80361677649E+02 -0.37300772563E+02 -0.17983385701E+02  0.90499842153E+02  0.41800000000E+01 0. -1.
        -11    1    1    2    0    0 -0.24310810231E+01 -0.33896830385E+02 -0.50042417754E+02  0.60490898818E+02  0.00000000000E+00 0.  1.
         11    1    1    2    0    0 -0.47529237893E+02  0.52230686398E+02 -0.15037188529E+03  0.16612879624E+03  0.00000000000E+00 0. -1.
</event>
<event>
 7    1  0.2626349E-009  0.2130299E+03  0.7561462E-02  0.1139189E+00
         -1   -1    0    0    0  501 -0.00000000000E+00  0.00000000000E+00  0.10190576077E+04  0.10190576077E+04  0.00000000000E+00 0.  1.
          1   -1    0    0  501    0  0.00000000000E+00 -0.00000000000E+00 -0.53103897808E+02  0.53103897808E+02  0.00000000000E+00 0. -1.
         25    2    1    2    0    0 -0.19683363220E+03 -0.37216008132E+02  0.39410595677E+03  0.45945155786E+03  0.12509084231E+03 0.  0.
          5    1    3    3  502    0 -0.14242428750E+03  0.22469540580E+02  0.18055102042E+03  0.23109673581E+03  0.41800000000E+01 0.  1.
         -5    1    3    3    0  502 -0.54409344693E+02 -0.59685548712E+02  0.21355493635E+03  0.22835482205E+03  0.41800000000E+01 0.  1.
        -11    1    1    2    0    0  0.37304188652E+02  0.13433650714E+02  0.37589554912E+02  0.54635520506E+02  0.00000000000E+00 0.  1.
         11    1    1    2    0    0  0.15952944355E+03  0.23782357419E+02  0.53425819824E+03  0.55807442717E+03  0.00000000000E+00 0. -1.
</event>
<event>
 7    1  0.2626349E-009  0.1232149E+03  0.7561462E-02  0.1237886E+00
          2   -1    0    0  501    0  0.00000000000E+00  0.00000000000E+00  0.74079646019E+03  0.74079646019E+03  0.00000000000E+00 0. -1.
         -2   -1    0    0    0  501 -0.00000000000E+00 -0.00000000000E+00 -0.30156719356E+02  0.30156719356E+02  0.00000000000E+00 0.  1.
         25    2    1    2    0    0 -0.63416516417E+02  0.58838971308E+02  0.24177525918E+03  0.28563626402E+03  0.12509644390E+03 0.  0.
          5    1    3    3  502    0 -0.80248194042E+02  0.64666260088E+02  0.10337539693E+03  0.14603233522E+03  0.41800000000E+01 0.  1.
         -5    1    3    3    0  502  0.16831677625E+02 -0.58272887799E+01  0.13839986225E+03  0.13960392880E+03  0.41800000000E+01 0.  1.
        -11    1    1    2    0    0 -0.22983614712E+02 -0.61571979811E+01  0.10327927423E+03  0.10598474474E+03  0.00000000000E+00 0. -1.
         11    1    1    2    0    0  0.86400131129E+02 -0.52681773327E+02  0.36558520743E+03  0.37933217078E+03  0.00000000000E+00 0.  1.
</event>
<event>
 7    1  0.2626349E-009  0.1370904E+03  0.7561462E-02  0.1217299E+00
          2   -1    0    0  501    0  0.00000000000E+00  0.00000000000E+00  0.62299609356E+03  0.62299609356E+03  0.00000000000E+00 0. -1.
         -2   -1    0    0    0  501 -0.00000000000E+00 -0.00000000000E+00 -0.34534537919E+02  0.34534537919E+02  0.00000000000E+00 0.  1.
         25    2    1    2    0    0 -0.93099339834E+02  0.69731164235E+01  0.38495466087E+03  0.41539603813E+03  0.12509063170E+03 0.  0.
          5    1    3    3  502    0 -0.12169890805E+03 -0.13600012995E+00  0.34285212500E+03  0.36383470798E+03  0.41800000000E+01 0. -1.
         -5    1    3    3    0  502  0.28599568212E+02  0.71091165535E+01  0.42102535867E+02  0.51561330147E+02  0.41800000000E+01 0. -1.
        -11    1    1    2    0    0  0.86155226641E+02 -0.35575967907E+02  0.18557398481E+03  0.20766818825E+03  0.00000000000E+00 0. -1.
         11    1    1    2    0    0  0.69441131929E+01  0.28602851483E+02  0.17932909960E+02  0.34466405102E+02  0.00000000000E+00 0.  1.
</event>
<event>
 7    1  0.2626349E-009  0.7560441E+02  0.7561462E-02  0.1342010E+00
          1   -1    0    0  501    0  0.00000000000E+00  0.00000000000E+00  0.26377848696E+02  0.26377848696E+02  0.00000000000E+00 0. -1.
         -1   -1    0    0    0  501 -0.00000000000E+00 -0.00000000000E+00 -0.48893557906E+03  0.48893557906E+03  0.00000000000E+00 0.  1.
         25    2    1    2    0    0  0.25071258392E+02 -0.15403450583E+02 -0.24888107890E+03  0.28009825997E+03  0.12508960593E+03 0.  0.
          5    1    3    3  502    0  0.28905978499E+02  0.10132983641E+02 -0.10936088873E+01  0.30933821795E+02  0.41800000000E+01 0.  1.
         -5    1    3    3    0  502 -0.38347201066E+01 -0.25536434225E+02 -0.24778747002E+03  0.24916443817E+03  0.41800000000E+01 0.  1.
        -11    1    1    2    0    0 -0.35943269714E+02 -0.30390203231E+02 -0.14081800502E+03  0.14847623927E+03  0.00000000000E+00 0.  1.
         11    1    1    2    0    0  0.10872011322E+02  0.45793653814E+02 -0.72858646440E+02  0.86738928521E+02  0.00000000000E+00 0. -1.
</event>
<event>
 7    1  0.2626349E-009  0.9807388E+02  0.7561462E-02  0.1284399E+00
          3   -1    0    0  501    0  0.00000000000E+00  0.00000000000E+00  0.25140942644E+02  0.25140942644E+02  0.00000000000E+00 0. -1.
         -3   -1    0    0    0  501 -0.00000000000E+00 -0.00000000000E+00 -0.96942931186E+03  0.96942931186E+03  0.00000000000E+00 0.  1.
         25    2    1    2    0    0  0.29847378232E+02  0.86303699390E+02 -0.72003449194E+03  0.73650311354E+03  0.12509185487E+03 0.  0.
          5    1    3    3  502    0 -0.31177517197E+01  0.99214179765E+01  0.45203719002E+00  0.11217470663E+02  0.41800000000E+01 0.  1.
         -5    1    3    3    0  502  0.32965129952E+02  0.76382281414E+02 -0.72048652913E+03  0.72528564288E+03  0.41800000000E+01 0.  1.
        -11    1    1    2    0    0 -0.39968228767E+02 -0.50316642924E+02 -0.20727796694E+03  0.21701009065E+03  0.00000000000E+00 0.  1.
         11    1    1    2    0    0  0.10120850535E+02 -0.35987056466E+02 -0.16975910337E+02  0.41057050313E+02  0.00000000000E+00 0. -1.
</event>
<event>
 7    1  0.2626349E-009  0.7851633E+02  0.7561462E-02  0.1333315E+00
          2   -1    0    0  501    0  0.00000000000E+00  0.00000000000E+00  0.33400544327E+03  0.33400544327E+03  0.00000000000E+00 0. -1.
         -2   -1    0    0    0  501 -0.00000000000E+00 -0.00000000000E+00 -0.42779656041E+02  0.42779656041E+02  0.00000000000E+00 0.  1.
         25    2    1    2    0    0  0.35789397665E+02 -0.33454837302E+02  0.13817942966E+03  0.19271652674E+03  0.12508396290E+03 0.  0.
          5    1    3    3  502    0  0.57879394938E+01 -0.39988696704E+02 -0.95860179176E+01  0.41736797280E+02  0.41800000000E+01 0. -1.
         -5    1    3    3    0  502  0.30001458171E+02  0.65338594021E+01  0.14776544758E+03  0.15097972946E+03  0.41800000000E+01 0. -1.
        -11    1    1    2    0    0  0.14154875594E+02  0.32524064827E+02  0.17383799217E+02  0.39501541377E+02  0.00000000000E+00 0.  1.
         11    1    1    2    0    0 -0.49944273259E+02  0.93077247513E+00  0.13566255835E+03  0.14456703119E+03  0.00000000000E+00 0. -1.
</event>
<event>
 7    1  0.2626349E-009  0.1035648E+03  0.7561462E-02  0.1272973E+00
          2   -1    0    0  501    0  0.00000000000E+00  0.00000000000E+00  0.11305960398E+03  0.11305960398E+03  0.00000000000E+00 0.  1.
         -2   -1    0    0    0  501 -0.00000000000E+00 -0.00000000000E+00 -0.16303239279E+03  0.16303239279E+03  0.00000000000E+00 0. -1.
         25    2    1    2    0    0 -0.28464127984E+02 -0.68519096470E+01 -0.10539165060E+03  0.16616173524E+03  0.12508064196E+03 0.  0.
          5    1    3    3  502    0  0.31903503951E+02 -0.46177022880E+02 -0.45055560033E+02  0.72094569117E+02  0.41800000000E+01 0. -1.
         -5    1    3    3    0  502 -0.60367631935E+02  0.39325113233E+02 -0.60336090571E+02  0.94067166118E+02  0.41800000000E+01 0. -1.
        -11    1    1    2    0    0 -0.24524908976E+02  0.76333574254E+01  0.50563662450E+02  0.56713519255E+02  0.00000000000E+00 0.  1.
         11    1    1    2    0    0  0.52989036960E+02 -0.78144777833E+00  0.48551993370E+01  0.53216742283E+02  0.00000000000E+00 0. -1.
</event>
<event>
 7    1  0.2626349E-009  0.8988832E+02  0.7561462E-02  0.1303122E+00
         -1   -1    0    0    0  501 -0.00000000000E+00  0.00000000000E+00  0.22072106700E+02  0.22072106700E+02  0.00000000000E+00 0.  1.
          1   -1    0    0  501    0  0.00000000000E+00 -0.00000000000E+00 -0.69969551750E+03  0.69969551750E+03  0.00000000000E+00 0. -1.
         25    2    1    2    0    0  0.51973244501E+02  0.17224443849E+02 -0.44872311722E+03  0.46903694885E+03  0.12508126896E+03 0.  0.
          5    1    3    3  502    0  0.60332307199E+02  0.18639918850E+02 -0.89087443583E+02  0.10927707386E+03  0.41800000000E+01 0. -1.
         -5    1    3    3    0  502 -0.83590626973E+01 -0.14154750001E+01 -0.35963567364E+03  0.35975987499E+03  0.41800000000E+01 0. -1.
        -11    1    1    2    0    0 -0.30742612756E+02  0.37412373989E+02 -0.10881148335E+03  0.11909967622E+03  0.00000000000E+00 0.  1.
         11    1    1    2    0    0 -0.21230631745E+02 -0.54636817839E+02 -0.12008881022E+03  0.13363099913E+03  0.00000000000E+00 0. -1.
</event>
<event>
 7    1  0.2626349E-009  0.1747801E+03  0.7561462E-02  0.1172953E+00
         -2   -1    0    0    0  501 -0.00000000000E+00  0.00000000000E+00  0.17735702798E+03  0.17735702798E+03  0.00000000000E+00 0.  1.
          2   -1    0    0  501    0  0.00000000000E+00 -0.00000000000E+00 -0.21690165316E+03  0.21690165316E+03  0.00000000000E+00 0. -1.
         25    2    1    2    0    0  0.14612800259E+03 -0.66105450717E+02 -0.50558177643E+02  0.20958429991E+03  0.12508447421E+03 0.  0.
          5    1    3    3  502    0  0.12837486140E+02 -0.23552177940E+02  0.35935535967E+02  0.45037110047E+02  0.41800000000E+01 0. -1.
         -5    1    3    3    0  502  0.13329051645E+03 -0.42553272778E+02 -0.86493713610E+02  0.16454718987E+03  0.41800000000E+01 0. -1.
        -11    1    1    2    0    0 -0.13518770667E+03  0.21970506298E+02  0.19731815832E+02  0.13837544485E+03  0.00000000000E+00 0.  1.
         11    1    1    2    0    0 -0.10940295921E+02  0.44134944420E+02 -0.87182633737E+01  0.46298936381E+02  0.00000000000E+00 0. -1.
</event>
<event>
 7    1  0.2626349E-009  0.1622110E+03  0.7561462E-02  0.1186223E+00
          1   -1    0    0  501    0  0.00000000000E+00  0.00000000000E+00  0.16733470845E+04  0.16733470845E+04  0.00000000000E+00 0. -1.
         -1   -1    0    0    0  501 -0.00000000000E+00 -0.00000000000E+00 -0.20780572799E+02  0.20780572799E+02  0.00000000000E+00 0.  1.
         25    2    1    2    0    0 -0.14268464601E+03  0.16238086585E+02  0.10678147712E+04  0.10846654615E+04  0.12509274180E+03 0.  0.
          5    1    3    3  502    0 -0.13660564513E+03 -0.10310006153E+02  0.57609298586E+03  0.59217227161E+03  0.41800000000E+01 0. -1.
         -5    1    3    3    0  502 -0.60790008842E+01  0.26548092738E+02  0.49172178537E+03  0.49249318989E+03  0.41800000000E+01 0. -1.
        -11    1    1    2    0    0  0.51272455954E+02 -0.40379410341E+02  0.35615091782E+03  0.36208125853E+03  0.00000000000E+00 0. -1.
         11    1    1    2    0    0  0.91412190059E+02  0.24141323755E+02  0.22860082265E+03  0.24738093726E+03  0.00000000000E+00 0.  1.
</event>
<event>
 7    1  0.2626349E-009  0.1587007E+03  0.7561462E-02  0.1190172E+00
          1   -1    0    0  501    0  0.00000000000E+00  0.00000000000E+00  0.16547746627E+03  0.16547746627E+03  0.00000000000E+00 0. -1.
         -1   -1    0    0    0  501 -0.00000000000E+00 -0.00000000000E+00 -0.20282339760E+03  0.20282339760E+03  0.00000000000E+00 0.  1.
         25    2    1    2    0    0 -0.11672292811E+03 -0.36173600451E+02 -0.10373610648E+03  0.20332743958E+03  0.12509235222E+03 0.  0.
          5    1    3    3  502    0  0.14283972669E+02 -0.40843158065E+02 -0.30568531472E+02  0.53142289679E+02  0.41800000000E+01 0. -1.
         -5    1    3    3    0  502 -0.13100690078E+03  0.46695576143E+01 -0.73167575009E+02  0.15018514990E+03  0.41800000000E+01 0. -1.
        -11    1    1    2    0    0  0.12696862395E+03  0.37625444117E+02  0.42730201129E+02  0.13914947216E+03  0.00000000000E+00 0.  1.
         11    1    1    2    0    0 -0.10245695842E+02 -0.14518436658E+01  0.23659974023E+02  0.25823952139E+02  0.00000000000E+00 0. -1.
</event>
<event>
 7    1  0.2626349E-009  0.1794095E+03  0.7561462E-02  0.1168376E+00
          1   -1    0    0  501    0  0.00000000000E+00  0.00000000000E+00  0.22489131289E+03  0.22489131289E+03  0.00000000000E+00 0. -1.
         -1   -1    0    0    0  501 -0.00000000000E+00 -0.00000000000E+00 -0.16490075562E+03  0.16490075562E+03  0.00000000000E+00 0.  1.
         25    2    1    2    0    0 -0.14901586707E+03 -0.23658750025E+02 -0.16420286828E+02  0.19667866061E+03  0.12508958640E+03 0.  0.
          5    1    3    3  502    0 -0.23749555506E+02  0.38759080761E+02  0.23140812389E+02  0.51178875781E+02  0.41800000000E+01 0.  1.
         -5    1    3    3    0  502 -0.12526631156E+03 -0.62417830786E+02 -0.39561099217E+02  0.14549978482E+03  0.41800000000E+01 0.  1.
        -11    1    1    2    0    0  0.15891715654E+03  0.29535155183E+02  0.58655997016E+02  0.17195206897E+03  0.00000000000E+00 0.  1.
         11    1    1    2    0    0 -0.99012894742E+01 -0.58764051581E+01  0.17754847077E+02  0.21161338936E+02  0.00000000000E+00 0. -1.
</event>
<event>
 7    1  0.2626349E-009  0.1783235E+03  0.7561462E-02  0.1169435E+00
         -2   -1    0    0    0  501 -0.00000000000E+00  0.00000000000E+00  0.28956447079E+03  0.28956447079E+03  0.00000000000E+00 0.  1.
          2   -1    0    0  501    0  0.00000000000E+00 -0.00000000000E+00 -0.13419830662E+03  0.13419830662E+03  0.00000000000E+00 0. -1.
         25    2    1    2    0    0 -0.80581739897E+02 -0.13920777883E+03  0.43346397693E+02  0.20831971586E+03  0.12508385719E+03 0.  0.
          5    1    3    3  502    0 -0.14338713007E+01 -0.61426524787E+02 -0.36459999777E+02  0.71568693701E+02  0.41800000000E+01 0.  1.
         -5    1    3    3    0  502 -0.79147868596E+02 -0.77781254045E+02  0.79806397469E+02  0.13675102216E+03  0.41800000000E+01 0.  1.
        -11    1    1    2    0    0 -0.14546575964E+02  0.55254197309E+02  0.33415475300E+02  0.66190808894E+02  0.00000000000E+00 0.  1.
         11    1    1    2    0    0  0.95128315861E+02  0.83953581523E+02  0.78604291177E+02  0.14925225265E+03  0.00000000000E+00 0. -1.
</event>
<event>
 7    1  0.2682727E-009  0.1464865E+03  0.7561462E-02  0.1204858E+00
          1   -1    0    0  501    0  0.00000000000E+00  0.00000000000E+00  0.41669930560E+03  0.41669930560E+03  0.00000000000E+00 0. -1.
         -1   -1    0    0    0  501 -0.00000000000E+00 -0.00000000000E+00 -0.66919926402E+02  0.66919926402E+02  0.00000000000E+00 0.  1.
         25    2    1    2    0    0 -0.56782157728E+02  0.10953928313E+03  0.22700219198E+03  0.28705467548E+03  0.12508926241E+03 0.  0.
          5    1    3    3  502    0  0.10267073016E+02 -0.62564773938E+01 -0.90948927390E+01  0.15644352707E+02  0.41800000000E+01 0. -1.
         -5    1    3    3    0  502 -0.67049230744E+02  0.11579576052E+03  0.23609708472E+03  0.27141032278E+03  0.41800000000E+01 0. -1.
        -11    1    1    2    0    0  0.52280413294E+02 -0.18855829206E+02  0.76777864122E+02  0.94781983142E+02  0.00000000000E+00 0. -1.
         11    1    1    2    0    0  0.45017444341E+01 -0.90683453921E+02  0.45999323101E+02  0.10178257338E+03  0.00000000000E+00 0.  1.
</event>
<event>
 7    1  0.2626349E-009  0.9696771E+02  0.7561462E-02  0.1286805E+00
          1   -1    0    0  501    0  0.00000000000E+00  0.00000000000E+00  0.24421416509E+03  0.24421416509E+03  0.00000000000E+00 0. -1.
         -1   -1    0    0    0  501 -0.00000000000E+00 -0.00000000000E+00 -0.79566897934E+02  0.79566897934E+02  0.00000000000E+00 0.  1.
         25    2    1    2    0    0  0.35125786860E+02  0.53430619314E+02  0.20433381305E+02  0.14196207911E+03  0.12508819629E+03 0.  0.
          5    1    3    3  502    0  0.53805809269E+02  0.68502747071E+02 -0.24730016548E+02  0.90646222127E+02  0.41800000000E+01 0.  1.
         -5    1    3    3    0  502 -0.18680022409E+02 -0.15072127757E+02  0.45163397854E+02  0.51315856984E+02  0.41800000000E+01 0.  1.
        -11    1    1    2    0    0  0.90895788934E+01 -0.31929759782E+02  0.42480984928E+01  0.33469035615E+02  0.00000000000E+00 0.  1.
         11    1    1    2    0    0 -0.44215365753E+02 -0.21500859532E+02  0.13996578736E+03  0.14834994830E+03  0.00000000000E+00 0. -1.
</event>
<event>
 7    1  0.2626349E-009  0.1187378E+03  0.7561462E-02  0.1245194E+00
         -1   -1    0    0    0  501 -0.00000000000E+00  0.00000000000E+00  0.23196273228E+03  0.23196273228E+03  0.00000000000E+00 0.  1.
          1   -1    0    0  501    0  0.00000000000E+00 -0.00000000000E+00 -0.77983833392E+02  0.77983833392E+02  0.00000000000E+00 0. -1.
         25    2    1    2    0    0  0.14631806927E+02 -0.76894939384E+02  0.98100448581E+02  0.17719647345E+03  0.12509184911E+03 0.  0.
          5    1    3    3  502    0 -0.92571250830E+01 -0.89317914732E+02  0.11436300597E+03  0.14546392609E+03  0.41800000000E+01 0.  1.
         -5    1    3    3    0  502  0.23888932010E+02  0.12422975348E+02 -0.16262557394E+02  0.31732547361E+02  0.41800000000E+01 0.  1.
        -11    1    1    2    0    0 -0.53589425911E+02  0.43535827691E+02  0.34495957159E+02  0.77182678903E+02  0.00000000000E+00 0. -1.
         11    1    1    2    0    0  0.38957618985E+02  0.33359111693E+02  0.21382493144E+02  0.55567413319E+02  0.00000000000E+00 0.  1.
</event>
<event>
 7    1  0.2626349E-009  0.7636446E+02  0.7561462E-02  0.1339697E+00
          4   -1    0    0  501    0  0.00000000000E+00  0.00000000000E+00  0.12730696803E+03  0.12730696803E+03  0.00000000000E+00 0. -1.
         -4   -1    0    0    0  501 -0.00000000000E+00 -0.00000000000E+00 -0.99834886533E+02  0.99834886533E+02  0.00000000000E+00 0.  1.
         25    2    1    2    0    0  0.19916438165E+02 -0.24437776071E+02  0.23942834403E+02  0.13119970818E+03  0.12508490995E+03 0.  0.
          5    1    3    3  502    0  0.33485789450E+02  0.26313508667E+02  0.55263909956E+02  0.69894713513E+02  0.41800000000E+01 0. -1.
         -5    1    3    3    0  502 -0.13569351285E+02 -0.50751284738E+02 -0.31321075552E+02  0.61304994663E+02  0.41800000000E+01 0. -1.
        -11    1    1    2    0    0  0.48643027836E+01 -0.12126775967E+02  0.37826407303E+02  0.40019460595E+02  0.00000000000E+00 0. -1.
         11    1    1    2    0    0 -0.24780740948E+02  0.36564552038E+02 -0.34297160209E+02  0.55922685791E+02  0.00000000000E+00 0.  1.
</event>
<event>
 7    1  0.2626349E-009  0.2376440E+03  0.7561462E-02  0.1121372E+00
         -1   -1    0    0    0  501 -0.00000000000E+00  0.00000000000E+00  0.36673662889E+03  0.36673662889E+03  0.00000000000E+00 0.  1.
          1   -1    0    0  501    0  0.00000000000E+00 -0.00000000000E+00 -0.19045580271E+03  0.19045580271E+03  0.00000000000E+00 0. -1.
         25    2    1    2    0    0  0.21222750147E+03 -0.91497240276E+02  0.16105966093E+03  0.30821862839E+03  0.12508497573E+03 0.  0.
          5    1    3    3  502    0  0.11673476741E+03 -0.12002746224E+02  0.18179314647E+02  0.11882353185E+03  0.41800000000E+01 0.  1.
         -5    1    3    3    0  502  0.95492734052E+02 -0.79494494052E+02  0.14288034628E+03  0.18939509655E+03  0.41800000000E+01 0.  1.
        -11    1    1    2    0    0 -0.12516570808E+03  0.35784520672E+02  0.50681821939E+02  0.13969836604E+03  0.00000000000E+00 0.  1.
         11    1    1    2    0    0 -0.87061793384E+02  0.55712719604E+02 -0.35460656689E+02  0.10927543716E+03  0.00000000000E+00 0. -1.
</event>
<event>
 7    1  0.2626349E-009  0.1259730E+03  0.7561462E-02  0.1233556E+00
          3   -1    0    0  501    0  0.00000000000E+00  0.00000000000E+00  0.78214429299E+02  0.78214429299E+02  0.00000000000E+00 0. -1.
         -3   -1    0    0    0  501 -0.00000000000E+00 -0.00000000000E+00 -0.38812482617E+03  0.38812482617E+03  0.00000000000E+00 0.  1.
         25    2    1    2    0    0  0.55225183065E+02  0.10095286717E+03 -0.26401504522E+03  0.31399390955E+03  0.12508768482E+03 0.  0.
          5    1    3    3  502    0  0.24181738938E+02  0.10734108104E+01 -0.17462279123E+03  0.17634199819E+03  0.41800000000E+01 0. -1.
         -5    1    3    3    0  502  0.31043444127E+02  0.99879456362E+02 -0.89392253988E+02  0.13765191135E+03  0.41800000000E+01 0. -1.
        -11    1    1    2    0    0 -0.51400213546E+02 -0.50327142714E+02 -0.66108794300E+02  0.97699416222E+02  0.00000000000E+00 0.  1.
         11    1    1    2    0    0 -0.38249695195E+01 -0.50625724459E+02  0.20213442652E+02  0.54645929699E+02  0.00000000000E+00 0. -1.
</event>
<event>
 7    1  0.2626349E-009  0.3823344E+03  0.7561462E-02  0.1050074E+00
          2   -1    0    0  501    0  0.00000000000E+00  0.00000000000E+00  0.11642746317E+04  0.11642746317E+04  0.00000000000E+00 0. -1.
         -2   -1    0    0    0  501 -0.00000000000E+00 -0.00000000000E+00 -0.14199189872E+03  0.14199189872E+03  0.00000000000E+00 0.  1.
         25    2    1    2    0    0 -0.22993156422E+03  0.30103946077E+03  0.68034213411E+03  0.78867357983E+03  0.12508922779E+03 0.  0.
          5    1    3    3  502    0  0.45066989624E+00  0.11291642735E+02 -0.21545870257E+01  0.12240054913E+02  0.41800000000E+01 0. -1.
         -5    1    3    3    0  502 -0.23038223412E+03  0.28974781803E+03  0.68249672113E+03  0.77643352491E+03  0.41800000000E+01 0. -1.
        -11    1    1    2    0    0  0.73802781714E+02 -0.59434046227E+02  0.47654821838E+02  0.10606714140E+03  0.00000000000E+00 0. -1.
         11    1    1    2    0    0  0.15612878251E+03 -0.24160541454E+03  0.29428577699E+03  0.41152580916E+03  0.00000000000E+00 0.  1.
</event>
<event>
 7    1  0.2626349E-009  0.1603436E+03  0.7561462E-02  0.1188309E+00
         -1   -1    0    0    0  501 -0.00000000000E+00  0.00000000000E+00  0.63952965981E+03  0.63952965981E+03  0.00000000000E+00 0.  1.
          1   -1    0    0  501    0  0.00000000000E+00 -0.00000000000E+00 -0.48891909101E+02  0.48891909101E+02  0.00000000000E+00 0. -1.
         25    2    1    2    0    0 -0.88333263560E+02 -0.10462445286E+03  0.26650205053E+03  0.32468496206E+03  0.12509172661E+03 0.  0.
          5    1    3    3  502    0 -0.15659420755E+01 -0.60795026202E+02  0.19397834259E+03  0.20333115153E+03  0.41800000000E+01 0.  1.
         -5    1    3    3    0  502 -0.86767321485E+02 -0.43829426663E+02  0.72523707932E+02  0.12135381054E+03  0.41800000000E+01 0.  1.
        -11    1    1    2    0    0  0.10358631213E+03  0.71220080407E+02  0.22089474975E+03  0.25415923037E+03  0.00000000000E+00 0. -1.
         11    1    1    2    0    0 -0.15253048572E+02  0.33404372458E+02  0.10324095044E+03  0.10957737649E+03  0.00000000000E+00 0.  1.
</event>
<event>
 7    1  0.2626349E-009  0.1600976E+03  0.7561462E-02  0.1188587E+00
          2   -1    0    0  501    0  0.00000000000E+00  0.00000000000E+00  0.49758039021E+03  0.49758039021E+03  0.00000000000E+00 0. -1.
         -2   -1    0    0    0  501 -0.00000000000E+00 -0.00000000000E+00 -0.64190290937E+02  0.64190290937E+02  0.00000000000E+00 0.  1.
         25    2    1    2    0    0 -0.12737519328E+03  0.44385910018E+02  0.17976093128E+03  0.25720812184E+03  0.12508987431E+03 0.  0.
          5    1    3    3  502    0 -0.12656745444E+03  0.78592533579E+02  0.15274911545E+03  0.21341478751E+03  0.41800000000E+01 0.  1.
         -5    1    3    3    0  502 -0.80773884599E+00 -0.34206623561E+02  0.27011815830E+02  0.43793334332E+02  0.41800000000E+01 0.  1.
        -11    1    1    2    0    0  0.45921861012E+02 -0.49592681008E+01  0.13765853599E+02  0.48196580628E+02  0.00000000000E+00 0.  1.
         11    1    1    2    0    0  0.81453332272E+02 -0.39426641917E+02  0.23986331439E+03  0.25636597867E+03  0.00000000000E+00 0. -1.
</event>
<event>
 7    1  0.2626349E-009  0.1366859E+03  0.7561462E-02  0.1217859E+00
         -2   -1    0    0    0  501 -0.00000000000E+00  0.00000000000E+00  0.19257495494E+03  0.19257495494E+03  0.00000000000E+00 0.  1.
          2   -1    0    0  501    0  0.00000000000E+00 -0.00000000000E+00 -0.12956369312E+03  0.12956369312E+03  0.00000000000E+00 0. -1.
         25    2    1    2    0    0  0.53372446923E+01  0.10810926882E+03 -0.32088772454E+01  0.16543764373E+03  0.12507284631E+03 0.  0.
          5    1    3    3  502    0  0.37888628256E+02  0.38001650282E+01 -0.34653862401E+02  0.51656093393E+02  0.41800000000E+01 0. -1.
         -5    1    3    3    0  502 -0.32551383564E+02  0.10430910379E+03  0.31444985155E+02  0.11378155034E+03  0.41800000000E+01 0. -1.
        -11    1    1    2    0    0  0.28190504444E+02 -0.32614486597E+02 -0.10055373457E+02  0.44266463741E+02  0.00000000000E+00 0.  1.
         11    1    1    2    0    0 -0.33527749136E+02 -0.75494782224E+02  0.76275512523E+02  0.11243454058E+03  0.00000000000E+00 0. -1.
</event>
<event>
 7    1  0.2626349E-009  0.1079061E+03  0.7561462E-02  0.1264497E+00
         -2   -1    0    0    0  501 -0.00000000000E+00  0.00000000000E+00  0.31411476468E+02  0.31411476468E+02  0.00000000000E+00 0. -1.
          2   -1    0    0  501    0  0.00000000000E+00 -0.00000000000E+00 -0.64895321480E+03  0.64895321480E+03  0.00000000000E+00 0.  1.
         25    2    1    2    0    0 -0.28108818100E+02 -0.58075613388E+02 -0.49781218263E+03  0.51732692265E+03  0.12508914102E+03 0.  0.
          5    1    3    3  502    0  0.46110810895E+02 -0.43141978516E+02 -0.18775496763E+03  0.19813338300E+03  0.41800000000E+01 0. -1.
         -5    1    3    3    0  502 -0.74219628995E+02 -0.14933634871E+02 -0.31005721500E+03  0.31919353965E+03  0.41800000000E+01 0. -1.
        -11    1    1    2    0    0  0.20366739255E+02  0.24155010002E+01 -0.10210261024E+03  0.10414212275E+03  0.00000000000E+00 0.  1.
         11    1    1    2    0    0  0.77420788449E+01  0.55660112388E+02 -0.17626945464E+02  0.58895645868E+02  0.00000000000E+00 0. -1.
</event>
<event>
 7    1  0.2626349E-009  0.1256856E+03  0.7561462E-02  0.1234002E+00
         -2   -1    0    0    0  501 -0.00000000000E+00  0.00000000000E+00  0.22846323112E+02  0.22846323112E+02  0.00000000000E+00 0.  1.
          2   -1    0    0  501    0  0.00000000000E+00 -0.00000000000E+00 -0.99135358070E+03  0.99135358070E+03  0.00000000000E+00 0. -1.
         25    2    1    2    0    0  0.59793588560E+02 -0.65734851345E+02 -0.70042777409E+03  0.71703697721E+03  0.12508643437E+03 0.  0.
          5    1    3    3  502    0  0.92891892281E+02 -0.44600533009E+02 -0.60553745664E+03  0.61425661982E+03  0.41800000000E+01 0.  1.
         -5    1    3    3    0  502 -0.33098303722E+02 -0.21134318336E+02 -0.94890317444E+02  0.10278035739E+03  0.41800000000E+01 0.  1.
        -11    1    1    2    0    0  0.57716295666E+01  0.36515250704E+02 -0.17891827297E+03  0.18269762901E+03  0.00000000000E+00 0. -1.
         11    1    1    2    0    0 -0.65565218126E+02  0.29219600641E+02 -0.89161210526E+02  0.11446529759E+03  0.00000000000E+00 0.  1.
</event>
<event>
 7    1  0.2626349E-009  0.3370402E+03  0.7561462E-02  0.1068064E+00
         -2   -1    0    0    0  501 -0.00000000000E+00  0.00000000000E+00  0.87249765016E+02  0.87249765016E+02  0.00000000000E+00 0. -1.
          2   -1    0    0  501    0  0.00000000000E+00 -0.00000000000E+00 -0.13714926396E+04  0.13714926396E+04  0.00000000000E+00 0.  1.
         25    2    1    2    0    0 -0.32405266933E+03  0.24882046505E+01 -0.76242966751E+03  0.83783202370E+03  0.12508868203E+03 0.  0.
          5    1    3    3  502    0 -0.30291916848E+03  0.27934779565E+02 -0.60829815371E+03  0.68013564143E+03  0.41800000000E+01 0.  1.
         -5    1    3    3    0  502 -0.21133500857E+02 -0.25446574915E+02 -0.15413151381E+03  0.15769638227E+03  0.41800000000E+01 0.  1.
        -11    1    1    2    0    0  0.20560819678E+03  0.42231834237E+02 -0.32733293113E+03  0.38885100773E+03  0.00000000000E+00 0.  1.
         11    1    1    2    0    0  0.11844447255E+03 -0.44720038888E+02 -0.19448027596E+03  0.23205937321E+03  0.00000000000E+00 0. -1.
</event>
<event>
 7    1  0.2626349E-009  0.2761681E+03  0.7561462E-02  0.1097800E+00
         -2   -1    0    0    0  501 -0.00000000000E+00  0.00000000000E+00  0.71647524284E+02  0.71647524284E+02  0.00000000000E+00 0.  1.
          2   -1    0    0  501    0  0.00000000000E+00 -0.00000000000E+00 -0.10844583516E+04  0.10844583516E+04  0.00000000000E+00 0. -1.
         25    2    1    2    0    0 -0.23685796716E+03 -0.94460327106E+02 -0.47576251965E+03  0.55409700717E+03  0.12509623594E+03 0.  0.
          5    1    3    3  502    0 -0.97340460744E+02 -0.10216293615E+03 -0.19843450502E+03  0.24352855275E+03  0.41800000000E+01 0. -1.
         -5    1    3    3    0  502 -0.13951750641E+03  0.77026090465E+01 -0.27732801463E+03  0.31056845442E+03  0.41800000000E+01 0. -1.
        -11    1    1    2    0    0  0.25222198521E+02  0.48700206637E+02 -0.92605964761E+02  0.10762775727E+03  0.00000000000E+00 0.  1.
         11    1    1    2    0    0  0.21163576864E+03  0.45760120470E+02 -0.44444234290E+03  0.49438111145E+03  0.00000000000E+00 0. -1.
</event>
<event>
 7    1  0.3518666E-009  0.1418120E+03  0.7561462E-02  0.1210911E+00
          2   -1    0    0  501    0  0.00000000000E+00  0.00000000000E+00  0.11458847819E+04  0.11458847819E+04  0.00000000000E+00 0. -1.
         -2   -1    0    0    0  501 -0.00000000000E+00 -0.00000000000E+00 -0.20771247603E+02  0.20771247603E+02  0.00000000000E+00 0.  1.
         25    2    1    2    0    0 -0.76931958567E+02 -0.77860799426E+02  0.62215334488E+03  0.64397447495E+03  0.12509000563E+03 0.  0.
          5    1    3    3  502    0 -0.76424695980E+02 -0.22721735796E+01  0.44163366187E+03  0.44822278012E+03  0.41800000000E+01 0.  1.
         -5    1    3    3    0  502 -0.50726258656E+00 -0.75588625846E+02  0.18051968302E+03  0.19575169483E+03  0.41800000000E+01 0.  1.
        -11    1    1    2    0    0  0.19399160037E+02 -0.13319378194E+02  0.33109703518E+02  0.40620016158E+02  0.00000000000E+00 0.  1.
         11    1    1    2    0    0  0.57532798530E+02  0.91180177620E+02  0.46985048588E+03  0.48206153838E+03  0.00000000000E+00 0. -1.
</event>
<event>
 7    1  0.2626349E-009  0.1834495E+03  0.7561462E-02  0.1164506E+00
          4   -1    0    0  501    0  0.00000000000E+00  0.00000000000E+00  0.62479292669E+02  0.62479292669E+02  0.00000000000E+00 0. -1.
         -4   -1    0    0    0  501 -0.00000000000E+00 -0.00000000000E+00 -0.86776990096E+03  0.86776990096E+03  0.00000000000E+00 0.  1.
         25    2    1    2    0    0  0.58377369948E+02  0.16875882893E+03 -0.62028463740E+03  0.65748733678E+03  0.12509639070E+03 0.  0.
          5    1    3    3  502    0  0.47803254832E+02  0.16841874462E+03 -0.62181981083E+03  0.64600880354E+03  0.41800000000E+01 0. -1.
         -5    1    3    3    0  502  0.10574115116E+02  0.34008431642E+00  0.15351734311E+01  0.11478533238E+02  0.41800000000E+01 0. -1.
        -11    1    1    2    0    0 -0.29526383240E+01 -0.41409523305E+02 -0.10399391639E+03  0.11197411013E+03  0.00000000000E+00 0.  1.
         11    1    1    2    0    0 -0.55424731624E+02 -0.12734930563E+03 -0.81012054497E+02  0.16078774671E+03  0.00000000000E+00 0. -1.
</event>
<event>
 7    1  0.2626349E-009  0.1223969E+03  0.7561462E-02  0.1239194E+00
          2   -1    0    0  501    0  0.00000000000E+00  0.00000000000E+00  0.52863197423E+02  0.52863197423E+02  0.00000000000E+00 0. -1.
         -2   -1    0    0    0  501 -0.00000000000E+00 -0.00000000000E+00 -0.33099181900E+03  0.33099181900E+03  0.00000000000E+00 0.  1.
         25    2    1    2    0    0 -0.44684631518E+02 -0.34885235648E+02 -0.82934207028E+02  0.16043208757E+03  0.12508667422E+03 0.  0.
          5    1    3    3  502    0 -0.87597081499E+02 -0.12134067256E+02 -0.51386747509E+02  0.10236481082E+03  0.41800000000E+01 0.  1.
         -5    1    3    3    0  502  0.42912449981E+02 -0.22751168391E+02 -0.31547459519E+02  0.58067276745E+02  0.41800000000E+01 0.  1.
        -11    1    1    2    0    0  0.46243304094E+02  0.63666372513E+02 -0.12720174289E+03  0.14957317124E+03  0.00000000000E+00 0. -1.
         11    1    1    2    0    0 -0.15586725757E+01 -0.28781136865E+02 -0.67992671664E+02  0.73849757613E+02  0.00000000000E+00 0.  1.
</event>
<event>
 7    1  0.2626349E-009  0.9284795E+02  0.7561462E-02  0.1296098E+00
          2   -1    0    0  501    0  0.00000000000E+00  0.00000000000E+00  0.15407909283E+03  0.15407909283E+03  0.00000000000E+00 0. -1.
         -2   -1    0    0    0  501 -0.00000000000E+00 -0.00000000000E+00 -0.97062670063E+02  0.97062670063E+02  0.00000000000E+00 0.  1.
         25    2    1    2    0    0  0.18689946470E+02 -0.30688570517E+02  0.76004305076E+02  0.15071728829E+03  0.12509174290E+03 0.  0.
          5    1    3    3  502    0  0.65671969963E+02  0.10463058928E+02  0.30218717962E+02  0.73163696983E+02  0.41800000000E+01 0.  1.
         -5    1    3    3    0  502 -0.46982023493E+02 -0.41151629445E+02  0.45785587114E+02  0.77553591309E+02  0.41800000000E+01 0.  1.
        -11    1    1    2    0    0 -0.33040550684E+02  0.21937577754E+02  0.29290482883E+02  0.49303830427E+02  0.00000000000E+00 0. -1.
         11    1    1    2    0    0  0.14350604214E+02  0.87509927628E+01 -0.48278365190E+02  0.51120644177E+02  0.00000000000E+00 0.  1.
</event>
<event>
 7    1  0.2626349E-009  0.1967165E+03  0.7561462E-02  0.1152539E+00
         -2   -1    0    0    0  501 -0.00000000000E+00  0.00000000000E+00  0.54156613073E+02  0.54156613073E+02  0.00000000000E+00 0.  1.
          2   -1    0    0  501    0  0.00000000000E+00 -0.00000000000E+00 -0.11080327517E+04  0.11080327517E+04  0.00000000000E+00 0. -1.
         25    2    1    2    0    0  0.23751586299E+02  0.18271573989E+03 -0.26063473968E+03  0.34282300025E+03  0.12509181635E+03 0.  0.
          5    1    3    3  502    0  0.29999596199E+01  0.16430716932E+03 -0.13103682424E+03  0.21022361274E+03  0.41800000000E+01 0. -1.
         -5    1    3    3    0  502  0.20751626679E+02  0.18408570570E+02 -0.12959791545E+03  0.13259938751E+03  0.41800000000E+01 0. -1.
        -11    1    1    2    0    0  0.29163385545E+02 -0.85078048638E+02 -0.43927670587E+03  0.44838911867E+03  0.00000000000E+00 0.  1.
         11    1    1    2    0    0 -0.52914971844E+02 -0.97637691254E+02 -0.35396469307E+03  0.37097724585E+03  0.00000000000E+00 0. -1.
</event>
<event>
 7    1  0.2626349E-009  0.1292988E+03  0.7561462E-02  0.1228500E+00
          2   -1    0    0  501    0  0.00000000000E+00  0.00000000000E+00  0.15267527800E+04  0.15267527800E+04  0.00000000000E+00 0. -1.
         -2   -1    0    0    0  501 -0.00000000000E+00 -0.00000000000E+00 -0.11541118559E+02  0.11541118559E+02  0.00000000000E+00 0.  1.
         25    2    1    2    0    0 -0.73969483666E+02  0.44738981484E+01  0.88523110913E+03  0.89709134329E+03  0.12508901368E+03 0.  0.
          5    1    3    3  502    0 -0.10563052658E+03 -0.50564785049E+01  0.76648010285E+03  0.77375228374E+03  0.41800000000E+01 0. -1.
         -5    1    3    3    0  502  0.31661042916E+02  0.95303766534E+01  0.11875100628E+03  0.12333905955E+03  0.41800000000E+01 0. -1.
        -11    1    1    2    0    0  0.86562990336E+02  0.22696483377E+02  0.47085739634E+03  0.47928589520E+03  0.00000000000E+00 0.  1.
         11    1    1    2    0    0 -0.12593506670E+02 -0.27170381525E+02  0.15912315594E+03  0.16191666004E+03  0.00000000000E+00 0. -1.
</event>
<event>
 7    1  0.2626349E-009  0.1120951E+03  0.7561462E-02  0.1256738E+00
         -2   -1    0    0    0  501 -0.00000000000E+00  0.00000000000E+00  0.90411113592E+02  0.90411113592E+02  0.00000000000E+00 0.  1.
          2   -1    0    0  501    0  0.00000000000E+00 -0.00000000000E+00 -0.17675316307E+03  0.17675316307E+03  0.00000000000E+00 0. -1.
         25    2    1    2    0    0 -0.61092994744E+02  0.10357078949E+02 -0.26130149271E+02  0.14201903808E+03  0.12508796659E+03 0.  0.
          5    1    3    3  502    0 -0.75020535699E+02  0.54336480610E+02 -0.23319714837E+02  0.95612841197E+02  0.41800000000E+01 0. -1.
         -5    1    3    3    0  502  0.13927540956E+02 -0.43979401661E+02 -0.28104344334E+01  0.46406196884E+02  0.41800000000E+01 0. -1.
        -11    1    1    2    0    0 -0.24894653437E+01 -0.20592807906E+02  0.15392450985E+02  0.25829996563E+02  0.00000000000E+00 0.  1.
         11    1    1    2    0    0  0.63582460087E+02  0.10235728957E+02 -0.75604351196E+02  0.99315242021E+02  0.00000000000E+00 0. -1.
</event>
<event>
 7    1  0.2626349E-009  0.8505968E+02  0.7561462E-02  0.1315277E+00
         -1   -1    0    0    0  501 -0.00000000000E+00  0.00000000000E+00  0.11604598208E+02  0.11604598208E+02  0.00000000000E+00 0.  1.
          1   -1    0    0  501    0  0.00000000000E+00 -0.00000000000E+00 -0.71767798514E+03  0.71767798514E+03  0.00000000000E+00 0. -1.
         25    2    1    2    0    0  0.22426908310E+02  0.15830112048E+02 -0.43029987323E+03  0.44895564724E+03  0.12509849570E+03 0.  0.
          5    1    3    3  502    0  0.21772021046E+02  0.66085121042E+02 -0.16860654354E+03  0.18244698695E+03  0.41800000000E+01 0.  1.
         -5    1    3    3    0  502  0.65488726389E+00 -0.50255008994E+02 -0.26169332969E+03  0.26650866030E+03  0.41800000000E+01 0.  1.
        -11    1    1    2    0    0  0.44961436884E+01  0.11054673582E+02 -0.52935307861E+02  0.54263873198E+02  0.00000000000E+00 0.  1.
         11    1    1    2    0    0 -0.26923051998E+02 -0.26884785631E+02 -0.22283820584E+03  0.22606306290E+03  0.00000000000E+00 0. -1.
</event>
<event>
 7    1  0.2626349E-009  0.1070157E+03  0.7561462E-02  0.1266198E+00
          2   -1    0    0  501    0  0.00000000000E+00  0.00000000000E+00  0.12973738334E+03  0.12973738334E+03  0.00000000000E+00 0. -1.
         -2   -1    0    0    0  501 -0.00000000000E+00 -0.00000000000E+00 -0.91939016231E+02  0.91939016231E+02  0.00000000000E+00 0.  1.
         25    2    1    2    0    0  0.22751525755E+02  0.21647985988E+01  0.15247213276E+02  0.12805801527E+03  0.12507621470E+03 0.  0.
          5    1    3    3  502    0 -0.43742500933E+02 -0.29955996152E+02  0.60352769207E+01  0.53522565903E+02  0.41800000000E+01 0.  1.
         -5    1    3    3    0  502  0.66494026689E+02  0.32120794751E+02  0.92119363554E+01  0.74535449365E+02  0.41800000000E+01 0.  1.
        -11    1    1    2    0    0 -0.45208086748E+02  0.24984697515E+02 -0.24519768153E+00  0.51653328443E+02  0.00000000000E+00 0.  1.
         11    1    1    2    0    0  0.22456560993E+02 -0.27149496113E+02  0.22796351513E+02  0.41965055858E+02  0.00000000000E+00 0. -1.
</event>
<event>
 7    1  0.2653972E-009  0.8799265E+02  0.7561462E-02  0.1307787E+00
         -2   -1    0    0    0  501 -0.00000000000E+00  0.00000000000E+00  0.21872913720E+03  0.21872913720E+03  0.00000000000E+00 0. -1.
          2   -1    0    0  501    0  0.00000000000E+00 -0.00000000000E+00 -0.64779220621E+02  0.64779220621E+02  0.00000000000E+00 0.  1.
         25    2    1    2    0    0 -0.21573508739E+02 -0.24711744140E+02  0.13050992549E+03  0.18372905972E+03  0.12508972841E+03 0.  0.
          5    1    3    3  502    0 -0.34752099152E+02  0.29309674542E+02  0.11807953188E+03  0.12659784227E+03  0.41800000000E+01 0. -1.
         -5    1    3    3    0  502  0.13178590413E+02 -0.54021418682E+02  0.12430393607E+02  0.57131217447E+02  0.41800000000E+01 0. -1.
        -11    1    1    2    0    0  0.44933152706E+02  0.24564057865E+02 -0.16249532734E+02  0.53725491761E+02  0.00000000000E+00 0.  1.
         11    1    1    2    0    0 -0.23359643967E+02  0.14768627492E+00  0.39689523816E+02  0.46053806339E+02  0.00000000000E+00 0. -1.
</event>
<event>
 7    1  0.2626349E-009  0.7560419E+02  0.7561462E-02  0.1342010E+00
          4   -1    0    0  501    0  0.00000000000E+00  0.00000000000E+00  0.34454939263E+02  0.34454939263E+02  0.00000000000E+00 0. -1.
         -4   -1    0    0    0  501 -0.00000000000E+00 -0.00000000000E+00 -0.34109263439E+03  0.34109263439E+03  0.00000000000E+00 0.  1.
         25    2    1    2    0    0 -0.47626412076E+01 -0.17527218638E+02 -0.19983085168E+03  0.23645160159E+03  0.12508838662E+03 0.  0.
          5    1    3    3  502    0 -0.30985545507E+02  0.23528046687E+02 -0.17913286060E+03  0.18335683014E+03  0.41800000000E+01 0.  1.
         -5    1    3    3    0  502  0.26222904300E+02 -0.41055265325E+02 -0.20697991079E+02  0.53094771452E+02  0.41800000000E+01 0.  1.
        -11    1    1    2    0    0  0.32728458449E+02  0.10031976010E+02 -0.10460035756E+03  0.11005919923E+03  0.00000000000E+00 0.  1.
         11    1    1    2    0    0 -0.27965817241E+02  0.74952426278E+01 -0.22064858838E+01  0.29036772823E+02  0.00000000000E+00 0. -1.
</event>
<event>
 7    1  0.2626349E-009  0.1368790E+03  0.7561462E-02  0.1217591E+00
          1   -1    0    0  501    0  0.00000000000E+00  0.00000000000E+00  0.62895122434E+03  0.62895122434E+03  0.00000000000E+00 0. -1.
         -1   -1    0    0    0  501 -0.00000000000E+00 -0.00000000000E+00 -0.40845823644E+02  0.40845823644E+02  0.00000000000E+00 0.  1.
         25    2    1    2    0    0  0.11711742898E+03  0.12971358081E+02  0.30621356357E+03  0.35113980288E+03  0.12509063255E+03 0.  0.
          5    1    3    3  502    0 -0.39907148127E+01 -0.20172550043E+02  0.14621155104E+03  0.14770967347E+03  0.41800000000E+01 0.  1.
         -5    1    3    3    0  502  0.12110814379E+03  0.33143908123E+02  0.16000201253E+03  0.20343012941E+03  0.41800000000E+01 0.  1.
        -11    1    1    2    0    0 -0.20364777695E+02  0.16272132481E+02  0.88842177481E+01  0.27539712980E+02  0.00000000000E+00 0.  1.
         11    1    1    2    0    0 -0.96752651282E+02 -0.29243490561E+02  0.27300761937E+03  0.29111753212E+03  0.00000000000E+00 0. -1.
</event>
<event>
 7    1  0.2626349E-009  0.8829226E+02  0.7561462E-02  0.1307041E+00
          1   -1    0    0  501    0  0.00000000000E+00  0.00000000000E+00  0.41803151932E+03  0.41803151932E+03  0.00000000000E+00 0. -1.
         -1   -1    0    0    0  501 -0.00000000000E+00 -0.00000000000E+00 -0.29170591612E+02  0.29170591612E+02  0.00000000000E+00 0.  1.
         25    2    1    2    0    0 -0.23026120365E+02  0.12652755901E+02  0.21854561250E+03  0.25317966620E+03  0.12508982445E+03 0.  0.
          5    1    3    3  502    0  0.23687193281E+02  0.44248680683E+02  0.35552679649E+02  0.61648149185E+02  0.41800000000E+01 0.  1.
         -5    1    3    3    0  502 -0.46713313646E+02 -0.31595924782E+02  0.18299293285E+03  0.19153151701E+03  0.41800000000E+01 0.  1.
        -11    1    1    2    0    0  0.25234551659E+02 -0.37240059929E+02  0.36445209528E+02  0.57895232606E+02  0.00000000000E+00 0.  1.
         11    1    1    2    0    0 -0.22084312938E+01  0.24587304028E+02  0.13387010567E+03  0.13612721213E+03  0.00000000000E+00 0. -1.
</event>
<event>
 7    1  0.2626349E-009  0.1134846E+03  0.7561462E-02  0.1254250E+00
          2   -1    0    0  501    0  0.00000000000E+00  0.00000000000E+00  0.67310536114E+03  0.67310536114E+03  0.00000000000E+00 0. -1.
         -2   -1    0    0    0  501 -0.00000000000E+00 -0.00000000000E+00 -0.28454007663E+02  0.28454007663E+02  0.00000000000E+00 0.  1.
         25    2    1    2    0    0 -0.52538888530E+02  0.55032522870E+02  0.44174526338E+03  0.46537600530E+03  0.12508810980E+03 0.  0.
          5    1    3    3  502    0  0.58161191317E+01  0.76962136833E+02  0.31111364334E+03  0.32057162884E+03  0.41800000000E+01 0. -1.
         -5    1    3    3    0  502 -0.58355007662E+02 -0.21929613963E+02  0.13063162004E+03  0.14480437646E+03  0.41800000000E+01 0. -1.
        -11    1    1    2    0    0  0.27095082028E+02 -0.59127239207E+00  0.27965707010E+01  0.27245437798E+02  0.00000000000E+00 0.  1.
         11    1    1    2    0    0  0.25443806503E+02 -0.54441250478E+02  0.20010951940E+03  0.20893792571E+03  0.00000000000E+00 0. -1.
</event>
<event>
 7    1  0.2626349E-009  0.8898127E+02  0.7561462E-02  0.1305338E+00
         -2   -1    0    0    0  501 -0.00000000000E+00  0.00000000000E+00  0.54136827154E+02  0.54136827154E+02  0.00000000000E+00 0. -1.
          2   -1    0    0  501    0  0.00000000000E+00 -0.00000000000E+00 -0.27665066667E+03  0.27665066667E+03  0.00000000000E+00 0.  1.
         25    2    1    2    0    0  0.49065274006E+02 -0.30080675723E+02 -0.16169793322E+03  0.21238194337E+03  0.12509044767E+03 0.  0.
          5    1    3    3  502    0  0.19466458161E+02 -0.42852774808E+02  0.20013608507E+00  0.47252679887E+02  0.41800000000E+01 0. -1.
         -5    1    3    3    0  502  0.29598815845E+02  0.12772099085E+02 -0.16189806930E+03  0.16512926348E+03  0.41800000000E+01 0. -1.
        -11    1    1    2    0    0 -0.63762257934E+02 -0.10576505318E+01 -0.53416590678E+02  0.83186996106E+02  0.00000000000E+00 0. -1.
         11    1    1    2    0    0  0.14696983928E+02  0.31138326255E+02 -0.73993156172E+01  0.35218554345E+02  0.00000000000E+00 0.  1.
</event>
<event>
 7    1  0.2626349E-009  0.1139712E+03  0.7561462E-02  0.1253388E+00
         -1   -1    0    0    0  501 -0.00000000000E+00  0.00000000000E+00  0.15153963417E+02  0.15153963417E+02  0.00000000000E+00 0.  1.
          1   -1    0    0  501    0  0.00000000000E+00 -0.00000000000E+00 -0.10048769612E+04  0.10048769612E+04  0.00000000000E+00 0. -1.
         25    2    1    2    0    0  0.19424931681E+02  0.46815126388E+02 -0.67198361401E+03  0.68540404964E+03  0.12509096585E+03 0.  0.
          5    1    3    3  502    0  0.52617906096E+02  0.74259474506E+02 -0.48448788169E+03  0.49297981044E+03  0.41800000000E+01 0. -1.
         -5    1    3    3    0  502 -0.33192974415E+02 -0.27444348118E+02 -0.18749573232E+03  0.19242423920E+03  0.41800000000E+01 0. -1.
        -11    1    1    2    0    0 -0.28282947392E+02 -0.66342945973E+02 -0.29364853985E+03  0.30237522476E+03  0.00000000000E+00 0. -1.
         11    1    1    2    0    0  0.88580157115E+01  0.19527819585E+02 -0.24090843887E+02  0.32251650179E+02  0.00000000000E+00 0.  1.
</event>
<event>
 7    1  0.2626349E-009  0.1130118E+03  0.7561462E-02  0.1255092E+00
         -2   -1    0    0    0  501 -0.00000000000E+00  0.00000000000E+00  0.18631078600E+02  0.18631078600E+02  0.00000000000E+00 0. -1.
          2   -1    0    0  501    0  0.00000000000E+00 -0.00000000000E+00 -0.82286261315E+03  0.82286261315E+03  0.00000000000E+00 0.  1.
         25    2    1    2    0    0  0.48951508815E+02  0.28449828018E+02 -0.49935280510E+03  0.51788626119E+03  0.12508921873E+03 0.  0.
          5    1    3    3  502    0  0.36347558079E+02  0.68037185909E+02 -0.43038800838E+03  0.43726595317E+03  0.41800000000E+01 0.  1.
         -5    1    3    3    0  502  0.12603950736E+02 -0.39587357891E+02 -0.68964796714E+02  0.80620308017E+02  0.41800000000E+01 0.  1.
        -11    1    1    2    0    0 -0.30388236812E+02 -0.61789923380E+02 -0.22049162776E+03  0.23099350095E+03  0.00000000000E+00 0.  1.
         11    1    1    2    0    0 -0.18563272003E+02  0.33340095362E+02 -0.84387101698E+02  0.92613929618E+02  0.00000000000E+00 0. -1.
</event>
<event>
 7    1  0.2626349E-009  0.8351108E+02  0.7561462E-02  0.1319373E+00
          2   -1    0    0  501    0  0.00000000000E+00  0.00000000000E+00  0.36155933432E+03  0.36155933432E+03  0.00000000000E+00 0. -1.
         -2   -1    0    0    0  501 -0.00000000000E+00 -0.00000000000E+00 -0.42714886044E+02  0.42714886044E+02  0.00000000000E+00 0.  1.
         25    2    1    2    0    0 -0.98051012956E+01  0.26683630031E+02  0.26624605025E+03  0.29554229554E+03  0.12510049183E+03 0.  0.
          5    1    3    3  502    0  0.24288220594E+02  0.51857555220E+02  0.53174832937E+02  0.78257005762E+02  0.41800000000E+01 0.  1.
         -5    1    3    3    0  502 -0.34093321890E+02 -0.25173925189E+02  0.21307121731E+03  0.21728528978E+03  0.41800000000E+01 0.  1.
        -11    1    1    2    0    0  0.55176462906E+01  0.19690229765E+02  0.58328513112E+02  0.61809101358E+02  0.00000000000E+00 0. -1.
         11    1    1    2    0    0  0.42874550049E+01 -0.46373859796E+02 -0.57301150888E+01  0.46922823463E+02  0.00000000000E+00 0.  1.
</event>
<event>
 7    1  0.2626349E-009  0.1097959E+03  0.7561462E-02  0.1260948E+00
          1   -1    0    0  501    0  0.00000000000E+00  0.00000000000E+00  0.50819461772E+03  0.50819461772E+03  0.00000000000E+00 0. -1.
         -1   -1    0    0    0  501 -0.00000000000E+00 -0.00000000000E+00 -0.29953039672E+02  0.29953039672E+02  0.00000000000E+00 0.  1.
         25    2    1    2    0    0 -0.20788556488E+02  0.39335318704E+02  0.24451916161E+03  0.27823260378E+03  0.12507729623E+03 0.  0.
          5    1    3    3  502    0 -0.25832028949E+02 -0.38386808377E+02  0.14205869340E+03  0.14946232149E+03  0.41800000000E+01 0.  1.
         -5    1    3    3    0  502  0.50434724611E+01  0.77722127080E+02  0.10246046822E+03  0.12877028228E+03  0.41800000000E+01 0.  1.
        -11    1    1    2    0    0  0.46353454132E+02  0.21537874699E+01  0.18602207749E+03  0.19172244215E+03  0.00000000000E+00 0. -1.
         11    1    1    2    0    0 -0.25564897644E+02 -0.41489106174E+02  0.47700338941E+02  0.68192611460E+02  0.00000000000E+00 0.  1.
</event>
<event>
 7    1  0.2626349E-009  0.1085512E+03  0.7561462E-02  0.1263277E+00
         -2   -1    0    0    0  501 -0.00000000000E+00  0.00000000000E+00  0.10149767950E+03  0.10149767950E+03  0.00000000000E+00 0.  1.
          2   -1    0    0  501    0  0.00000000000E+00 -0.00000000000E+00 -0.15233180663E+03  0.15233180663E+03  0.00000000000E+00 0. -1.
         25    2    1    2    0    0 -0.85635005169E+01  0.13306361720E+02  0.31632953792E+02  0.12999420622E+03  0.12508979607E+03 0.  0.
          5    1    3    3  502    0 -0.36844495472E+02  0.60296291401E+02  0.13362425900E+02  0.72036007865E+02  0.41800000000E+01 0. -1.
         -5    1    3    3    0  502  0.28280994955E+02 -0.46989929681E+02  0.18270527892E+02  0.57958198355E+02  0.41800000000E+01 0. -1.
        -11    1    1    2    0    0  0.45280304510E+01  0.38793890922E+02 -0.44701988579E+02  0.59361071550E+02  0.00000000000E+00 0. -1.
         11    1    1    2    0    0  0.40354700658E+01 -0.52100252642E+02 -0.37765092342E+02  0.64474208360E+02  0.00000000000E+00 0.  1.
</event>
<event>
 7    1  0.2626349E-009  0.1094460E+03  0.7561462E-02  0.1261599E+00
          1   -1    0    0  501    0  0.00000000000E+00  0.00000000000E+00  0.43671854977E+03  0.43671854977E+03  0.00000000000E+00 0. -1.
         -1   -1    0    0    0  501 -0.00000000000E+00 -0.00000000000E+00 -0.31121010871E+02  0.31121010871E+02  0.00000000000E+00 0.  1.
         25    2    1    2    0    0 -0.35448688541E+02  0.24724146015E+02  0.23899795215E+03  0.27319568987E+03  0.12509184992E+03 0.  0.
          5    1    3    3  502    0  0.28952850910E+02 -0.24530904205E+02  0.14027926547E+03  0.14538148974E+03  0.41800000000E+01 0.  1.
         -5    1    3    3    0  502 -0.64401539451E+02  0.49255050220E+02  0.98718686683E+02  0.12781420014E+03  0.41800000000E+01 0.  1.
        -11    1    1    2    0    0  0.30497698298E+01 -0.55060350068E+02  0.10651873384E+03  0.11994658771E+03  0.00000000000E+00 0.  1.
         11    1    1    2    0    0  0.32398918712E+02  0.30336204053E+02  0.60080852910E+02  0.74697283060E+02  0.00000000000E+00 0. -1.
</event>
<event>
 7    1  0.2626349E-009  0.2963473E+03  0.7561462E-02  0.1087081E+00
          2   -1    0    0  501    0  0.00000000000E+00  0.00000000000E+00  0.11242351897E+04  0.11242351897E+04  0.00000000000E+00 0. -1.
         -2   -1    0    0    0  501 -0.00000000000E+00 -0.00000000000E+00 -0.95323255066E+02  0.95323255066E+02  0.00000000000E+00 0.  1.
         25    2    1    2    0    0 -0.28158511202E+03  0.27426699469E+02  0.29281554077E+03  0.42594702651E+03  0.12509008484E+03 0.  0.
          5    1    3    3  502    0 -0.23540780918E+03  0.63719522029E+02  0.26704538461E+03  0.36167350463E+03  0.41800000000E+01 0. -1.
         -5    1    3    3    0  502 -0.46177302837E+02 -0.36292822560E+02  0.25770156162E+02  0.64273521883E+02  0.41800000000E+01 0. -1.
        -11    1    1    2    0    0  0.15680953645E+03 -0.46762512869E+02  0.49666881564E+03  0.52293008687E+03  0.00000000000E+00 0.  1.
         11    1    1    2    0    0  0.12477557557E+03  0.19335813400E+02  0.23942757822E+03  0.27068133137E+03  0.00000000000E+00 0. -1.
</event>
<event>
 7    1  0.2626349E-009  0.1140869E+03  0.7561462E-02  0.1253183E+00
         -1   -1    0    0    0  501 -0.00000000000E+00  0.00000000000E+00  0.20770585968E+02  0.20770585968E+02  0.00000000000E+00 0.  1.
          1   -1    0    0  501    0  0.00000000000E+00 -0.00000000000E+00 -0.75176356733E+03  0.75176356733E+03  0.00000000000E+00 0. -1.
         25    2    1    2    0    0  0.51780674740E+02  0.34697826025E+02 -0.39916237737E+03  0.42292273228E+03  0.12509139283E+03 0.  0.
          5    1    3    3  502    0  0.47839885738E+02  0.68641885036E+02 -0.36474878503E+03  0.37424525599E+03  0.41800000000E+01 0.  1.
         -5    1    3    3    0  502  0.39407890013E+01 -0.33944059011E+02 -0.34413592343E+02  0.48677476291E+02  0.41800000000E+01 0.  1.
        -11    1    1    2    0    0 -0.58113674734E+02 -0.60214421422E+02 -0.25872836832E+03  0.27192525501E+03  0.00000000000E+00 0. -1.
         11    1    1    2    0    0  0.63329999937E+01  0.25516595398E+02 -0.73102235678E+02  0.77686166019E+02  0.00000000000E+00 0.  1.
</event>
<event>
 7    1  0.2626349E-009  0.1471839E+03  0.7561462E-02  0.1203977E+00
          1   -1    0    0  501    0  0.00000000000E+00  0.00000000000E+00  0.53244191397E+03  0.53244191397E+03  0.00000000000E+00 0. -1.
         -1   -1    0    0    0  501 -0.00000000000E+00 -0.00000000000E+00 -0.55740525491E+02  0.55740525491E+02  0.00000000000E+00 0.  1.
         25    2    1    2    0    0 -0.38910866364E+01 -0.12838953532E+03  0.31843739182E+03  0.36544393489E+03  0.12509150132E+03 0.  0.
          5    1    3    3  502    0  0.45241839925E+02 -0.33372135895E+02  0.46103061355E+02  0.72825052010E+02  0.41800000000E+01 0. -1.
         -5    1    3    3    0  502 -0.49132926561E+02 -0.95017399430E+02  0.27233433047E+03  0.29261888288E+03  0.41800000000E+01 0. -1.
        -11    1    1    2    0    0 -0.10535172893E+02  0.70539979109E+02  0.14509983217E+03  0.16168129087E+03  0.00000000000E+00 0. -1.
         11    1    1    2    0    0  0.14426259529E+02  0.57849556216E+02  0.13164164485E+02  0.61057213701E+02  0.00000000000E+00 0.  1.
</event>
<event>
 7    1  0.2626349E-009  0.1146897E+03  0.7561462E-02  0.1252124E+00
         -2   -1    0    0    0  501 -0.00000000000E+00  0.00000000000E+00  0.10906081258E+03  0.10906081258E+03  0.00000000000E+00 0.  1.
          2   -1    0    0  501    0  0.00000000000E+00 -0.00000000000E+00 -0.21860024867E+03  0.21860024867E+03  0.00000000000E+00 0. -1.
         25    2    1    2    0    0 -0.51873464576E+02  0.50338878305E+02 -0.14707312989E+03  0.20616184438E+03  0.12508933426E+03 0.  0.
          5    1    3    3  502    0 -0.90000769116E+02  0.52388063438E+02 -0.92008114175E+02  0.13902378612E+03  0.41800000000E+01 0. -1.
         -5    1    3    3    0  502  0.38127304540E+02 -0.20491851333E+01 -0.55065015716E+02  0.67138058260E+02  0.41800000000E+01 0. -1.
        -11    1    1    2    0    0  0.49229351609E+02 -0.15218918382E+02 -0.18977407107E+02  0.54911624608E+02  0.00000000000E+00 0. -1.
         11    1    1    2    0    0  0.26441129663E+01 -0.35119959922E+02  0.56511100903E+02  0.66587592265E+02  0.00000000000E+00 0.  1.
</event>
<event>
 7    1  0.2626349E-009  0.2011493E+03  0.7561462E-02  0.1148773E+00
          2   -1    0    0  501    0  0.00000000000E+00  0.00000000000E+00  0.16428273769E+03  0.16428273769E+03  0.00000000000E+00 0. -1.
         -2   -1    0    0    0  501 -0.00000000000E+00 -0.00000000000E+00 -0.29966976422E+03  0.29966976422E+03  0.00000000000E+00 0.  1.
         25    2    1    2    0    0  0.24718619227E+02 -0.18023087814E+03 -0.14087182922E+03  0.26188922601E+03  0.12508762872E+03 0.  0.
          5    1    3    3  502    0 -0.50363638519E+02 -0.69738533897E+02 -0.43211233308E+02  0.96356848635E+02  0.41800000000E+01 0.  1.
         -5    1    3    3    0  502  0.75082257746E+02 -0.11049234424E+03 -0.97660595915E+02  0.16553237737E+03  0.41800000000E+01 0.  1.
        -11    1    1    2    0    0  0.13036030414E+01  0.31713544867E+02 -0.33680503094E+02  0.46279850881E+02  0.00000000000E+00 0.  1.
         11    1    1    2    0    0 -0.26022222269E+02  0.14851733327E+03  0.39165305790E+02  0.15578342502E+03  0.00000000000E+00 0. -1.
</event>
<event>
 7    1  0.2626349E-009  0.1282362E+03  0.7561462E-02  0.1230097E+00
          1   -1    0    0  501    0  0.00000000000E+00  0.00000000000E+00  0.62801096200E+03  0.62801096200E+03  0.00000000000E+00 0. -1.
         -1   -1    0    0    0  501 -0.00000000000E+00 -0.00000000000E+00 -0.29108866168E+02  0.29108866168E+02  0.00000000000E+00 0.  1.
         25    2    1    2    0    0  0.22194162610E+02 -0.72811147501E+02  0.39035937581E+03  0.41692017368E+03  0.12509174588E+03 0.  0.
          5    1    3    3  502    0 -0.22622449684E+02 -0.87865916346E+02  0.18430372913E+03  0.20546905231E+03  0.41800000000E+01 0.  1.
         -5    1    3    3    0  502  0.44816612294E+02  0.15054768845E+02  0.20605564668E+03  0.21145112138E+03  0.41800000000E+01 0.  1.
        -11    1    1    2    0    0 -0.57298901721E+02  0.38067181249E+02  0.10574128928E+03  0.12614870069E+03  0.00000000000E+00 0.  1.
         11    1    1    2    0    0  0.35104739111E+02  0.34743966253E+02  0.10280143075E+03  0.11405095380E+03  0.00000000000E+00 0. -1.
</event>
<event>
 7    1  0.2626349E-009  0.1257851E+03  0.7561462E-02  0.1233847E+00
         -2   -1    0    0    0  501 -0.00000000000E+00  0.00000000000E+00  0.22924519506E+03  0.22924519506E+03  0.00000000000E+00 0.  1.
          2   -1    0    0  501    0  0.00000000000E+00 -0.00000000000E+00 -0.11121709061E+03  0.11121709061E+03  0.00000000000E+00 0. -1.
         25    2    1    2    0    0 -0.42963869377E+02 -0.91095472611E+02  0.11513129479E+01  0.16059930558E+03  0.12508609926E+03 0.  0.
          5    1    3    3  502    0 -0.62182680072E+02 -0.75418970617E+02 -0.45269211251E+02  0.10780297175E+03  0.41800000000E+01 0. -1.
         -5    1    3    3    0  502  0.19218810695E+02 -0.15676501993E+02  0.46420524199E+02  0.52796333833E+02  0.41800000000E+01 0. -1.
        -11    1    1    2    0    0  0.66172177391E+02  0.76574198419E+02  0.11383444834E+03  0.15231758452E+03  0.00000000000E+00 0.  1.
         11    1    1    2    0    0 -0.23208308014E+02  0.14521274192E+02  0.30423431649E+01  0.27545395567E+02  0.00000000000E+00 0. -1.
</event>
<event>
 7    1  0.2626349E-009  0.1002733E+03  0.7561462E-02  0.1279722E+00
         -1   -1    0    0    0  501 -0.00000000000E+00  0.00000000000E+00  0.64615824505E+02  0.64615824505E+02  0.00000000000E+00 0.  1.
          1   -1    0    0  501    0  0.00000000000E+00 -0.00000000000E+00 -0.24299346211E+03  0.24299346211E+03  0.00000000000E+00 0. -1.
         25    2    1    2    0    0  0.28057547577E+02 -0.38535165840E+02 -0.50025721379E+02  0.14290970717E+03  0.12509367139E+03 0.  0.
          5    1    3    3  502    0  0.71462955990E+00 -0.80367831440E+02 -0.45756650595E+02  0.92577764605E+02  0.41800000000E+01 0.  1.
         -5    1    3    3    0  502  0.27342918017E+02  0.41832665600E+02 -0.42690707846E+01  0.50331942564E+02  0.41800000000E+01 0.  1.
        -11    1    1    2    0    0 -0.40295635178E+02  0.14284356594E+02 -0.13062257156E+03  0.13744103193E+03  0.00000000000E+00 0. -1.
         11    1    1    2    0    0  0.12238087600E+02  0.24250809246E+02  0.22706553299E+01  0.27258547519E+02  0.00000000000E+00 0.  1.
</event>
<event>
 7    1  0.2626349E-009  0.1028312E+03  0.7561462E-02  0.1274453E+00
          1   -1    0    0  501    0  0.00000000000E+00  0.00000000000E+00  0.44344760326E+03  0.44344760326E+03  0.00000000000E+00 0. -1.
         -1   -1    0    0    0  501 -0.00000000000E+00 -0.00000000000E+00 -0.35585026603E+02  0.35585026603E+02  0.00000000000E+00 0.  1.
         25    2    1    2    0    0 -0.64408203486E+01 -0.38161011738E+02  0.30642510571E+03  0.33322988638E+03  0.12509222511E+03 0.  0.
          5    1    3    3  502    0  0.34606466933E+02  0.12208905892E+02  0.25559213309E+02  0.44915595528E+02  0.41800000000E+01 0. -1.
         -5    1    3    3    0  502 -0.41047287282E+02 -0.50369917630E+02  0.28086589240E+03  0.28831429085E+03  0.41800000000E+01 0. -1.
        -11    1    1    2    0    0 -0.21927174765E+02 -0.25673444039E+02  0.23464778594E+02  0.41115964739E+02  0.00000000000E+00 0.  1.
         11    1    1    2    0    0  0.28367995114E+02  0.63834455777E+02  0.77972692360E+02  0.10468677875E+03  0.00000000000E+00 0. -1.
</event>
<event>
 7    1  0.2626349E-009  0.1603094E+03  0.7561462E-02  0.1188348E+00
         -4   -1    0    0    0  501 -0.00000000000E+00  0.00000000000E+00  0.56407996807E+02  0.56407996807E+02  0.00000000000E+00 0.  1.
          4   -1    0    0  501    0  0.00000000000E+00 -0.00000000000E+00 -0.56823046108E+03  0.56823046108E+03  0.00000000000E+00 0. -1.
         25    2    1    2    0    0 -0.30917047947E+02 -0.13821065587E+03 -0.28622007644E+03  0.34296861789E+03  0.12508993344E+03 0.  0.
          5    1    3    3  502    0 -0.33174056530E+02 -0.30530178147E+02 -0.19965725526E+03  0.20472689560E+03  0.41800000000E+01 0. -1.
         -5    1    3    3    0  502  0.22570085830E+01 -0.10768047772E+03 -0.86562821184E+02  0.13824172229E+03  0.41800000000E+01 0. -1.
        -11    1    1    2    0    0 -0.12917975569E+02  0.11899487376E+03 -0.14607208190E+03  0.18884837088E+03  0.00000000000E+00 0.  1.
         11    1    1    2    0    0  0.43835023516E+02  0.19215782106E+02 -0.79530305927E+02  0.92821469120E+02  0.00000000000E+00 0. -1.
</event>
<event>
 7    1  0.2626349E-009  0.1123175E+03  0.7561462E-02  0.1256337E+00
         -1   -1    0    0    0  501 -0.00000000000E+00  0.00000000000E+00  0.45838312172E+03  0.45838312172E+03  0.00000000000E+00 0.  1.
          1   -1    0    0  501    0  0.00000000000E+00 -0.00000000000E+00 -0.49291025578E+02  0.49291025578E+02  0.00000000000E+00 0. -1.
         25    2    1    2    0    0 -0.44225992758E+02  0.58907992715E+02  0.30627677138E+03  0.33893946713E+03  0.12509361155E+03 0.  0.
          5    1    3    3  502    0  0.24223887790E+01  0.73277931508E+02  0.26465761417E+03  0.27465732896E+03  0.41800000000E+01 0. -1.
         -5    1    3    3    0  502 -0.46648381537E+02 -0.14369938792E+02  0.41619157205E+02  0.64282138167E+02  0.41800000000E+01 0. -1.
        -11    1    1    2    0    0  0.82638872298E+01 -0.65180967708E+02  0.11310805628E+03  0.13080627959E+03  0.00000000000E+00 0.  1.
         11    1    1    2    0    0  0.35962105528E+02  0.62729749926E+01 -0.10292731510E+02  0.37928400589E+02  0.00000000000E+00 0. -1.
</event>
<event>
 7    1  0.2626349E-009  0.1219538E+03  0.7561462E-02  0.1239908E+00
          1   -1    0    0  501    0  0.00000000000E+00  0.00000000000E+00  0.10136745130E+04  0.10136745130E+04  0.00000000000E+00 0. -1.
         -1   -1    0    0    0  501 -0.00000000000E+00 -0.00000000000E+00 -0.27741914954E+02  0.27741914954E+02  0.00000000000E+00 0.  1.
         25    2    1    2    0    0  0.78795942167E+01 -0.99139073896E+02  0.75938565139E+03  0.77601844751E+03  0.12508964532E+03 0.  0.
          5    1    3    3  502    0 -0.96626717365E+01 -0.18592120329E+01  0.47122517491E+03  0.47134643498E+03  0.41800000000E+01 0. -1.
         -5    1    3    3    0  502  0.17542265953E+02 -0.97279861863E+02  0.28816047647E+03  0.30467201253E+03  0.41800000000E+01 0. -1.
        -11    1    1    2    0    0  0.21934042081E+02 -0.77865887030E+01  0.19058946464E+02  0.30082829088E+02  0.00000000000E+00 0.  1.
         11    1    1    2    0    0 -0.29813636298E+02  0.10692566260E+03  0.20748800018E+03  0.23531515134E+03  0.00000000000E+00 0. -1.
</event>
<event>
 7    1  0.2626349E-009  0.8607106E+02  0.7561462E-02  0.1312655E+00
         -2   -1    0    0    0  501 -0.00000000000E+00  0.00000000000E+00  0.10802689324E+03  0.10802689324E+03  0.00000000000E+00 0.  1.
          2   -1    0    0  501    0  0.00000000000E+00 -0.00000000000E+00 -0.12949022208E+03  0.12949022208E+03  0.00000000000E+00 0. -1.
         25    2    1    2    0    0  0.14809759401E+02 -0.17968249427E+02  0.30011161107E+02  0.13074408144E+03  0.12510458856E+03 0.  0.
          5    1    3    3  502    0  0.58732756606E+02 -0.46158808644E+02  0.15411411308E+02  0.76388194850E+02  0.41800000000E+01 0.  1.
         -5    1    3    3    0  502 -0.43922997205E+02  0.28190559217E+02  0.14599749799E+02  0.54355886587E+02  0.41800000000E+01 0.  1.
        -11    1    1    2    0    0  0.12525228441E+02  0.51763319641E+00  0.22637146835E+02  0.25876431525E+02  0.00000000000E+00 0.  1.
         11    1    1    2    0    0 -0.27334987842E+02  0.17450616230E+02 -0.74111636783E+02  0.80896602363E+02  0.00000000000E+00 0. -1.
</event>
<event>
 7    1  0.2626349E-009  0.1095536E+03  0.7561462E-02  0.1261399E+00
         -1   -1    0    0    0  501 -0.00000000000E+00  0.00000000000E+00  0.16564158564E+03  0.16564158564E+03  0.00000000000E+00 0.  1.
          1   -1    0    0  501    0  0.00000000000E+00 -0.00000000000E+00 -0.12666048561E+03  0.12666048561E+03  0.00000000000E+00 0. -1.
         25    2    1    2    0    0  0.82482493346E+02 -0.15754398775E+02 -0.25417214669E+02  0.15279301551E+03  0.12509239785E+03 0.  0.
          5    1    3    3  502    0  0.24693627759E+01 -0.45992893600E+02 -0.45449675086E+02  0.64842805150E+02  0.41800000000E+01 0.  1.
         -5    1    3    3    0  502  0.80013130570E+02  0.30238494825E+02  0.20032460417E+02  0.87950210365E+02  0.41800000000E+01 0.  1.
        -11    1    1    2    0    0 -0.34650636987E+02 -0.51292025304E+01  0.78059664466E+02  0.85558673311E+02  0.00000000000E+00 0.  1.
         11    1    1    2    0    0 -0.47831856359E+02  0.20883601306E+02 -0.13661349761E+02  0.53950382423E+02  0.00000000000E+00 0. -1.
</event>
<event>
 7    1  0.2626349E-009  0.9871701E+02  0.7561462E-02  0.1283017E+00
         -2   -1    0    0    0  501 -0.00000000000E+00  0.00000000000E+00  0.10591497050E+03  0.10591497050E+03  0.00000000000E+00 0. -1.
          2   -1    0    0  501    0  0.00000000000E+00 -0.00000000000E+00 -0.18254370941E+03  0.18254370941E+03  0.00000000000E+00 0.  1.
         25    2    1    2    0    0  0.24857612496E+02 -0.14434927112E+02 -0.12763602880E+03  0.18101171295E+03  0.12509203156E+03 0.  0.
          5    1    3    3  502    0  0.25670401598E+02 -0.62144545959E+02 -0.11186307548E+03  0.13058228887E+03  0.41800000000E+01 0. -1.
         -5    1    3    3    0  502 -0.81278910246E+00  0.47709618847E+02 -0.15772953310E+02  0.50429424077E+02  0.41800000000E+01 0. -1.
        -11    1    1    2    0    0 -0.41962602367E+02  0.35547368166E+02  0.66049701821E+01  0.55390441523E+02  0.00000000000E+00 0.  1.
         11    1    1    2    0    0  0.17104989872E+02 -0.21112441054E+02  0.44402319705E+02  0.52056525440E+02  0.00000000000E+00 0. -1.
</event>
<event>
 7    1  0.2626349E-009  0.1400689E+03  0.7561462E-02  0.1213236E+00
          2   -1    0    0  501    0  0.00000000000E+00  0.00000000000E+00  0.91678231034E+03  0.91678231034E+03  0.00000000000E+00 0.  1.
         -2   -1    0    0    0  501 -0.00000000000E+00 -0.00000000000E+00 -0.23444240958E+02  0.23444240958E+02  0.00000000000E+00 0. -1.
         25    2    1    2    0    0 -0.73292571464E+02  0.64629285649E+02  0.39819905074E+03  0.42866936428E+03  0.12508474836E+03 0.  0.
          5    1    3    3  502    0  0.31084205858E+02  0.25477374785E+02  0.16899667751E+03  0.17376039217E+03  0.41800000000E+01 0.  1.
         -5    1    3    3    0  502 -0.10437677732E+03  0.39151910863E+02  0.22920237323E+03  0.25490897211E+03  0.41800000000E+01 0.  1.
        -11    1    1    2    0    0  0.75955440393E+02 -0.13708020019E+02  0.31730307853E+03  0.32655532821E+03  0.00000000000E+00 0. -1.
         11    1    1    2    0    0 -0.26628689296E+01 -0.50921265630E+02  0.17783594012E+03  0.18500185880E+03  0.00000000000E+00 0.  1.
</event>
<event>
 7    1  0.2626349E-009  0.1543635E+03  0.7561462E-02  0.1195211E+00
         -3   -1    0    0    0  501 -0.00000000000E+00  0.00000000000E+00  0.38359411797E+03  0.38359411797E+03  0.00000000000E+00 0.  1.
          3   -1    0    0  501    0  0.00000000000E+00 -0.00000000000E+00 -0.76347326525E+02  0.76347326525E+02  0.00000000000E+00 0. -1.
         25    2    1    2    0    0  0.51258410180E+02  0.12156835685E+03  0.17722430630E+03  0.25389494528E+03  0.12509156044E+03 0.  0.
          5    1    3    3  502    0  0.21314268990E+02 -0.18042936483E+02  0.69390581509E+02  0.74915758166E+02  0.41800000000E+01 0.  1.
         -5    1    3    3    0  502  0.29944141190E+02  0.13961129334E+03  0.10783372480E+03  0.17897918712E+03  0.41800000000E+01 0.  1.
        -11    1    1    2    0    0 -0.36450064165E+02 -0.37559349040E+02  0.22141141202E+01  0.52385247725E+02  0.00000000000E+00 0. -1.
         11    1    1    2    0    0 -0.14808346015E+02 -0.84009007812E+02  0.12780837102E+03  0.15366125149E+03  0.00000000000E+00 0.  1.
</event>
<event>
 7    1  0.2626349E-009  0.1044118E+03  0.7561462E-02  0.1271283E+00
          1   -1    0    0  501    0  0.00000000000E+00  0.00000000000E+00  0.52448665619E+03  0.52448665619E+03  0.00000000000E+00 0. -1.
         -1   -1    0    0    0  501 -0.00000000000E+00 -0.00000000000E+00 -0.26693965180E+02  0.26693965180E+02  0.00000000000E+00 0.  1.
         25    2    1    2    0    0 -0.34488926277E+02  0.24362040932E+02  0.24226542173E+03  0.27589878403E+03  0.12507841296E+03 0.  0.
          5    1    3    3  502    0 -0.48672315807E+02  0.57713895236E+02  0.22121026276E+03  0.23377626222E+03  0.41800000000E+01 0. -1.
         -5    1    3    3    0  502  0.14183389530E+02 -0.33351854303E+02  0.21055158971E+02  0.42122521806E+02  0.41800000000E+01 0. -1.
        -11    1    1    2    0    0 -0.27353876907E+02  0.57371887501E+01  0.12107424802E+03  0.12425829328E+03  0.00000000000E+00 0. -1.
         11    1    1    2    0    0  0.61842803184E+02 -0.30099229682E+02  0.13445302126E+03  0.15102354405E+03  0.00000000000E+00 0.  1.
</event>
<event>
 7    1  0.2626349E-009  0.1138791E+03  0.7561462E-02  0.1253551E+00
         -3   -1    0    0    0  501 -0.00000000000E+00  0.00000000000E+00  0.10502898559E+03  0.10502898559E+03  0.00000000000E+00 0.  1.
          3   -1    0    0  501    0  0.00000000000E+00 -0.00000000000E+00 -0.16546123840E+03  0.16546123840E+03  0.00000000000E+00 0. -1.
         25    2    1    2    0    0 -0.12473869238E+02 -0.67510334272E+02 -0.41963179866E+02  0.14871665559E+03  0.12506995058E+03 0.  0.
          5    1    3    3  502    0 -0.47673322003E+02 -0.19741318061E+02  0.26388554435E+02  0.58105881585E+02  0.41800000000E+01 0.  1.
         -5    1    3    3    0  502  0.35199452764E+02 -0.47769016210E+02 -0.68351734301E+02  0.90610774009E+02  0.41800000000E+01 0.  1.
        -11    1    1    2    0    0  0.47740825785E+02  0.95914736575E+01 -0.22914445193E+02  0.53816861782E+02  0.00000000000E+00 0. -1.
         11    1    1    2    0    0 -0.35266956547E+02  0.57918860614E+02  0.44453722481E+01  0.67956706610E+02  0.00000000000E+00 0.  1.
</event>
<event>
 7    1  0.2626349E-009  0.1043365E+03  0.7561462E-02  0.1271432E+00
         -1   -1    0    0    0  501 -0.00000000000E+00  0.00000000000E+00  0.21831556916E+03  0.21831556916E+03  0.00000000000E+00 0.  1.
          1   -1    0    0  501    0  0.00000000000E+00 -0.00000000000E+00 -0.70345938545E+02  0.70345938545E+02  0.00000000000E+00 0. -1.
         25    2    1    2    0    0  0.25416074824E+02  0.23416306548E+02  0.27862654228E+02  0.13273351921E+03  0.12509020486E+03 0.  0.
          5    1    3    3  502    0 -0.16194581002E+02  0.56510929333E+02  0.47714156489E+02  0.75827849220E+02  0.41800000000E+01 0. -1.
         -5    1    3    3    0  502  0.41610655825E+02 -0.33094622785E+02 -0.19851502261E+02  0.56905669995E+02  0.41800000000E+01 0. -1.
        -11    1    1    2    0    0  0.24727385490E+02 -0.36959057229E+02  0.36634666589E+02  0.57615226291E+02  0.00000000000E+00 0.  1.
         11    1    1    2    0    0 -0.50143460314E+02  0.13542750681E+02  0.83472309802E+02  0.98312762203E+02  0.00000000000E+00 0. -1.
</event>
<event>
 7    1  0.2626349E-009  0.9641629E+02  0.7561462E-02  0.1288018E+00
         -1   -1    0    0    0  501 -0.00000000000E+00  0.00000000000E+00  0.24021150784E+03  0.24021150784E+03  0.00000000000E+00 0.  1.
          1   -1    0    0  501    0  0.00000000000E+00 -0.00000000000E+00 -0.65243814612E+02  0.65243814612E+02  0.00000000000E+00 0. -1.
         25    2    1    2    0    0 -0.56059630696E+02  0.72210142201E+01  0.13322946276E+03  0.19128656854E+03  0.12508251802E+03 0.  0.
          5    1    3    3  502    0 -0.69823630861E+02 -0.10754032486E+02  0.16979514210E+02  0.72778877047E+02  0.41800000000E+01 0.  1.
         -5    1    3    3    0  502  0.13764000165E+02  0.17975046706E+02  0.11624994855E+03  0.11850769149E+03  0.41800000000E+01 0.  1.
        -11    1    1    2    0    0  0.71900179365E+02  0.13296206127E+02  0.10970322468E+02  0.73937628208E+02  0.00000000000E+00 0.  1.
         11    1    1    2    0    0 -0.15840548669E+02 -0.20517220347E+02  0.30767907999E+02  0.40231125706E+02  0.00000000000E+00 0. -1.
</event>
<event>
 7    1  0.2626349E-009  0.2183728E+03  0.7561462E-02  0.1135102E+00
          2   -1    0    0  501    0  0.00000000000E+00  0.00000000000E+00  0.75145507613E+03  0.75145507613E+03  0.00000000000E+00 0. -1.
         -2   -1    0    0    0  501 -0.00000000000E+00 -0.00000000000E+00 -0.69452391345E+02  0.69452391345E+02  0.00000000000E+00 0.  1.
         25    2    1    2    0    0 -0.18598316182E+03 -0.71776125942E+02  0.40407968615E+03  0.46762112419E+03  0.12509026458E+03 0.  0.
          5    1    3    3  502    0 -0.14286037740E+03  0.54856423144E+01  0.28843959967E+03  0.32195349782E+03  0.41800000000E+01 0.  1.
         -5    1    3    3    0  502 -0.43122784420E+02 -0.77261768257E+02  0.11564008649E+03  0.14566762637E+03  0.41800000000E+01 0.  1.
        -11    1    1    2    0    0  0.10042804608E+03  0.12832833470E+02  0.19736816742E+03  0.22182125139E+03  0.00000000000E+00 0. -1.
         11    1    1    2    0    0  0.85555115738E+02  0.58943292472E+02  0.80554831205E+02  0.13146509189E+03  0.00000000000E+00 0.  1.
</event>
<event>
 7    1  0.2626349E-009  0.1192318E+03  0.7561462E-02  0.1244370E+00
          2   -1    0    0  501    0  0.00000000000E+00  0.00000000000E+00  0.16846505173E+03  0.16846505173E+03  0.00000000000E+00 0. -1.
         -2   -1    0    0    0  501 -0.00000000000E+00 -0.00000000000E+00 -0.98392905288E+02  0.98392905288E+02  0.00000000000E+00 0.  1.
         25    2    1    2    0    0  0.52819376042E+02  0.42315645276E+02  0.26227487616E+02  0.14462023568E+03  0.12508649464E+03 0.  0.
          5    1    3    3  502    0 -0.31614539745E+02 -0.44493552801E+01  0.35066214411E+02  0.47606592808E+02  0.41800000000E+01 0. -1.
         -5    1    3    3    0  502  0.84433915787E+02  0.46765000556E+02 -0.88387267944E+01  0.97013642873E+02  0.41800000000E+01 0. -1.
        -11    1    1    2    0    0 -0.32651279051E+02  0.23881976605E+02  0.32969667367E+02  0.52186720500E+02  0.00000000000E+00 0.  1.
         11    1    1    2    0    0 -0.20168096991E+02 -0.66197621880E+02  0.10874991456E+02  0.70051000835E+02  0.00000000000E+00 0. -1.
</event>
<event>
 7    1  0.2626349E-009  0.1197347E+03  0.7561462E-02  0.1243535E+00
          2   -1    0    0  501    0  0.00000000000E+00  0.00000000000E+00  0.46735450497E+02  0.46735450497E+02  0.00000000000E+00 0. -1.
         -2   -1    0    0    0  501 -0.00000000000E+00 -0.00000000000E+00 -0.41987581634E+03  0.41987581634E+03  0.00000000000E+00 0.  1.
         25    2    1    2    0    0 -0.68331217814E+02  0.34165314249E+02 -0.27908332818E+03  0.31523167315E+03  0.12508828748E+03 0.  0.
          5    1    3    3  502    0 -0.79342259282E+02 -0.68471993467E+01 -0.85160705767E+02  0.11667003237E+03  0.41800000000E+01 0. -1.
         -5    1    3    3    0  502  0.11011041467E+02  0.41012513596E+02 -0.19392262242E+03  0.19856164078E+03  0.41800000000E+01 0. -1.
        -11    1    1    2    0    0  0.84565490873E+02 -0.62960391571E+01 -0.56617086970E+02  0.10196301728E+03  0.00000000000E+00 0. -1.
         11    1    1    2    0    0 -0.16234273058E+02 -0.27869275092E+02 -0.37439950691E+02  0.49416576405E+02  0.00000000000E+00 0.  1.
</event>
<event>
 7    1  0.3536483E-009  0.1069253E+03  0.7561462E-02  0.1266372E+00
          2   -1    0    0  501    0  0.00000000000E+00  0.00000000000E+00  0.27912119888E+03  0.27912119888E+03  0.00000000000E+00 0. -1.
         -2   -1    0    0    0  501 -0.00000000000E+00 -0.00000000000E+00 -0.67851498522E+02  0.67851498522E+02  0.00000000000E+00 0.  1.
         25    2    1    2    0    0  0.82974083370E+02 -0.77016337675E+01  0.98283879132E+02  0.17958099813E+03  0.12508237413E+03 0.  0.
          5    1    3    3  502    0  0.66402753803E+01 -0.44842930228E+02  0.80898911395E+02  0.92828271089E+02  0.41800000000E+01 0. -1.
         -5    1    3    3    0  502  0.76333807990E+02  0.37141296460E+02  0.17384967737E+02  0.86752727036E+02  0.41800000000E+01 0. -1.
        -11    1    1    2    0    0 -0.61122738065E+02  0.53733439779E+01  0.10098670162E+02  0.62183961543E+02  0.00000000000E+00 0.  1.
         11    1    1    2    0    0 -0.21851345305E+02  0.23282897896E+01  0.10288715107E+03  0.10520773774E+03  0.00000000000E+00 0. -1.
</event>
<event>
 7    1  0.2626349E-009  0.1130502E+03  0.7561462E-02  0.1255023E+00
         -1   -1    0    0    0  501 -0.00000000000E+00  0.00000000000E+00  0.84502146184E+02  0.84502146184E+02  0.00000000000E+00 0.  1.
          1   -1    0    0  501    0  0.00000000000E+00 -0.00000000000E+00 -0.15909706585E+03  0.15909706585E+03  0.00000000000E+00 0. -1.
         25    2    1    2    0    0 -0.25758062457E+02  0.32100658281E+02 -0.52663841172E+02  0.14182716301E+03  0.12509010335E+03 0.  0.
          5    1    3    3  502    0 -0.67481323897E+02  0.48842463759E+02 -0.19096232422E+02  0.85565494411E+02  0.41800000000E+01 0. -1.
         -5    1    3    3    0  502  0.41723261440E+02 -0.16741805478E+02 -0.33567608750E+02  0.56261668594E+02  0.41800000000E+01 0. -1.
        -11    1    1    2    0    0  0.42049682089E+02 -0.55128024633E+02 -0.65496786409E+01  0.69643184548E+02  0.00000000000E+00 0.  1.
         11    1    1    2    0    0 -0.16291619631E+02  0.23027366352E+02 -0.15381399852E+02  0.32128864479E+02  0.00000000000E+00 0. -1.
</event>
<event>
 7    1  0.2626349E-009  0.2567099E+03  0.7561462E-02  0.1109136E+00
         -1   -1    0    0    0  501 -0.00000000000E+00  0.00000000000E+00  0.28899277776E+03  0.28899277776E+03  0.00000000000E+00 0.  1.
          1   -1    0    0  501    0  0.00000000000E+00 -0.00000000000E+00 -0.27884655186E+03  0.27884655186E+03  0.00000000000E+00 0. -1.
         25    2    1    2    0    0  0.15931342527E+03  0.18497862824E+03 -0.90577439025E+02  0.28887680017E+03  0.12509065847E+03 0.  0.
          5    1    3    3  502    0  0.27883612565E+02  0.81021305468E+02 -0.85582466512E+02  0.12117664281E+03  0.41800000000E+01 0.  1.
         -5    1    3    3    0  502  0.13142981271E+03  0.10395732277E+03 -0.49949725135E+01  0.16770015735E+03  0.41800000000E+01 0.  1.
        -11    1    1    2    0    0 -0.60233733599E+02 -0.13755021740E+03  0.53691143359E+02  0.15947069902E+03  0.00000000000E+00 0.  1.
         11    1    1    2    0    0 -0.99079691674E+02 -0.47428410836E+02  0.47032521561E+02  0.11949183044E+03  0.00000000000E+00 0. -1.
</event>
<event>
 7    1  0.2626349E-009  0.8780568E+02  0.7561462E-02  0.1308254E+00
          2   -1    0    0  501    0  0.00000000000E+00  0.00000000000E+00  0.24761193943E+03  0.24761193943E+03  0.00000000000E+00 0. -1.
         -2   -1    0    0    0  501 -0.00000000000E+00 -0.00000000000E+00 -0.88154064735E+02  0.88154064735E+02  0.00000000000E+00 0.  1.
         25    2    1    2    0    0  0.38969614604E+02  0.16684119211E+02  0.18828441178E+03  0.22999097461E+03  0.12509131860E+03 0.  0.
          5    1    3    3  502    0 -0.15557972991E+02  0.19242244485E+02  0.17063275162E+03  0.17246832412E+03  0.41800000000E+01 0. -1.
         -5    1    3    3    0  502  0.54527587595E+02 -0.25581252739E+01  0.17651660151E+02  0.57522650494E+02  0.41800000000E+01 0. -1.
        -11    1    1    2    0    0  0.27193464882E+02 -0.11094747901E+02 -0.26146887836E+02  0.39322229168E+02  0.00000000000E+00 0.  1.
         11    1    1    2    0    0 -0.66163079486E+02 -0.55893713105E+01 -0.26796492485E+01  0.66452800383E+02  0.00000000000E+00 0. -1.
</event>
<event>
 7    1  0.2626349E-009  0.9946130E+02  0.7561462E-02  0.1281433E+00
          2   -1    0    0  501    0  0.00000000000E+00  0.00000000000E+00  0.53020814415E+03  0.53020814415E+03  0.00000000000E+00 0. -1.
         -2   -1    0    0    0  501 -0.00000000000E+00 -0.00000000000E+00 -0.36783782471E+02  0.36783782471E+02  0.00000000000E+00 0.  1.
         25    2    1    2    0    0  0.64461455039E+02  0.55812000760E+02  0.31636133219E+03  0.35071269661E+03  0.12507855307E+03 0.  0.
          5    1    3    3  502    0  0.18445823809E+02 -0.18280291953E+02  0.42848697805E+01  0.26650515922E+02  0.41800000000E+01 0.  1.
         -5    1    3    3    0  502  0.46015631230E+02  0.74092292713E+02  0.31207646241E+03  0.32406218068E+03  0.41800000000E+01 0.  1.
        -11    1    1    2    0    0 -0.38041962358E+02 -0.31360617097E+02  0.16896056922E+02  0.52116753010E+02  0.00000000000E+00 0.  1.
         11    1    1    2    0    0 -0.26419492680E+02 -0.24451383663E+02  0.16016697257E+03  0.16416247701E+03  0.00000000000E+00 0. -1.
</event>
<event>
 7    1  0.2626349E-009  0.1366028E+03  0.7561462E-02  0.1217975E+00
         -3   -1    0    0    0  501 -0.00000000000E+00  0.00000000000E+00  0.16154688302E+04  0.16154688302E+04  0.00000000000E+00 0.  1.
          3   -1    0    0  501    0  0.00000000000E+00 -0.00000000000E+00 -0.17556393407E+02  0.17556393407E+02  0.00000000000E+00 0. -1.
         25    2    1    2    0    0  0.22916060286E+01  0.11355955938E+03  0.11352807728E+04  0.11477839636E+04  0.12507825197E+03 0.  0.
          5    1    3    3  502    0 -0.12682765224E+02 -0.10972635091E+01  0.10382590559E+02  0.16950725874E+02  0.41800000000E+01 0. -1.
         -5    1    3    3    0  502  0.14974371253E+02  0.11465682289E+03  0.11248981822E+04  0.11308332377E+04  0.41800000000E+01 0. -1.
        -11    1    1    2    0    0  0.42718182021E+02 -0.44647837451E+02  0.24175353561E+03  0.24952563885E+03  0.00000000000E+00 0.  1.
         11    1    1    2    0    0 -0.45009788049E+02 -0.68911721925E+02  0.22087812836E+03  0.23571562109E+03  0.00000000000E+00 0. -1.
</event>
<event>
 7    1  0.2626349E-009  0.8579415E+02  0.7561462E-02  0.1313369E+00
         -1   -1    0    0    0  501 -0.00000000000E+00  0.00000000000E+00  0.32324866710E+02  0.32324866710E+02  0.00000000000E+00 0.  1.
          1   -1    0    0  501    0  0.00000000000E+00 -0.00000000000E+00 -0.41381750097E+03  0.41381750097E+03  0.00000000000E+00 0. -1.
         25    2    1    2    0    0  0.19546891555E+01 -0.43302076607E+02 -0.22875787342E+03  0.26430285307E+03  0.12508774058E+03 0.  0.
          5    1    3    3  502    0 -0.18004337474E+02  0.24277683628E+02 -0.66250675971E+01  0.31223805196E+02  0.41800000000E+01 0.  1.
         -5    1    3    3    0  502  0.19959026630E+02 -0.67579760235E+02 -0.22213280582E+03  0.23307904788E+03  0.41800000000E+01 0.  1.
        -11    1    1    2    0    0 -0.24012408746E+02  0.42012674369E+02 -0.15223240670E+03  0.15973843067E+03  0.00000000000E+00 0. -1.
         11    1    1    2    0    0  0.22057719591E+02  0.12894022375E+01 -0.50235413871E+00  0.22101083941E+02  0.00000000000E+00 0.  1.
</event>
<event>
 7    1  0.2626349E-009  0.1776446E+03  0.7561462E-02  0.1170102E+00
          1   -1    0    0  501    0  0.00000000000E+00  0.00000000000E+00  0.39281198288E+03  0.39281198288E+03  0.00000000000E+00 0. -1.
         -1   -1    0    0    0  501 -0.00000000000E+00 -0.00000000000E+00 -0.92152574077E+02  0.92152574077E+02  0.00000000000E+00 0.  1.
         25    2    1    2    0    0 -0.11151939327E+03  0.11282868233E+03  0.16209280052E+03  0.25901370199E+03  0.12508850951E+03 0.  0.
          5    1    3    3  502    0 -0.62666817312E+02 -0.10583327006E+02  0.82382745246E+02  0.10413225205E+03  0.41800000000E+01 0. -1.
         -5    1    3    3    0  502 -0.48852575953E+02  0.12341200934E+03  0.79710055271E+02  0.15488144995E+03  0.41800000000E+01 0. -1.
        -11    1    1    2    0    0  0.81286833373E+02 -0.77607050455E+02  0.13997913559E+03  0.17951201063E+03  0.00000000000E+00 0. -1.
         11    1    1    2    0    0  0.30232559892E+02 -0.35221631876E+02 -0.14125273030E+01  0.46438844334E+02  0.00000000000E+00 0.  1.
</event>
<event>
 7    1  0.2626349E-009  0.6413005E+02  0.7561462E-02  0.1381274E+00
         -1   -1    0    0    0  501 -0.00000000000E+00  0.00000000000E+00  0.13556624589E+03  0.13556624589E+03  0.00000000000E+00 0.  1.
          1   -1    0    0  501    0  0.00000000000E+00 -0.00000000000E+00 -0.12534666393E+03  0.12534666393E+03  0.00000000000E+00 0. -1.
         25    2    1    2    0    0  0.21413985891E+02  0.20909095391E+02 -0.59755270078E+02  0.14182691222E+03  0.12509369155E+03 0.  0.
          5    1    3    3  502    0 -0.61393803944E+01  0.27384793945E+02  0.33720804389E+02  0.44070216470E+02  0.41800000000E+01 0. -1.
         -5    1    3    3    0  502  0.27553366285E+02 -0.64756985547E+01 -0.93476074467E+02  0.97756695746E+02  0.41800000000E+01 0. -1.
        -11    1    1    2    0    0  0.32336233432E+01 -0.39980101640E+02 -0.25064888586E+01  0.40188895648E+02  0.00000000000E+00 0.  1.
         11    1    1    2    0    0 -0.24647609234E+02  0.19071006249E+02  0.72481340896E+02  0.78897101964E+02  0.00000000000E+00 0. -1.
</event>
<event>
 7    1  0.2626349E-009  0.1156568E+03  0.7561462E-02  0.1250439E+00
          4   -1    0    0  501    0  0.00000000000E+00  0.00000000000E+00  0.12243260842E+03  0.12243260842E+03  0.00000000000E+00 0. -1.
         -4   -1    0    0    0  501 -0.00000000000E+00 -0.00000000000E+00 -0.17468112539E+03  0.17468112539E+03  0.00000000000E+00 0.  1.
         25    2    1    2    0    0 -0.26016789533E+02  0.74900287136E+02  0.30588762064E+02  0.15122338977E+03  0.12508363162E+03 0.  0.
          5    1    3    3  502    0 -0.43805403899E+02 -0.21885196246E+02  0.46244505720E+01  0.49363277530E+02  0.41800000000E+01 0.  1.
         -5    1    3    3    0  502  0.17788614366E+02  0.96785483382E+02  0.25964311492E+02  0.10186011224E+03  0.41800000000E+01 0.  1.
        -11    1    1    2    0    0 -0.56371651617E+01 -0.10855074954E+02 -0.72714547490E+02  0.73736122084E+02  0.00000000000E+00 0.  1.
         11    1    1    2    0    0  0.31653954695E+02 -0.64045212182E+02 -0.10122731548E+02  0.72154221951E+02  0.00000000000E+00 0. -1.
</event>
<event>
 7    1  0.2626349E-009  0.8305694E+02  0.7561462E-02  0.1320593E+00
          2   -1    0    0  501    0  0.00000000000E+00  0.00000000000E+00  0.23802715115E+03  0.23802715115E+03  0.00000000000E+00 0. -1.
         -2   -1    0    0    0  501 -0.00000000000E+00 -0.00000000000E+00 -0.66652448317E+02  0.66652448317E+02  0.00000000000E+00 0.  1.
         25    2    1    2    0    0  0.62546977793E+02 -0.60525658153E+01  0.11031657997E+03  0.17823088707E+03  0.12509094015E+03 0.  0.
          5    1    3    3  502    0  0.36701312186E+02 -0.99520584915E+01 -0.21431559387E+02  0.43849902191E+02  0.41800000000E+01 0. -1.
         -5    1    3    3    0  502  0.25845665607E+02  0.38994926762E+01  0.13174813936E+03  0.13438098488E+03  0.41800000000E+01 0. -1.
        -11    1    1    2    0    0 -0.72069668500E+02 -0.19045672926E+02  0.65509066275E+02  0.99238160700E+02  0.00000000000E+00 0. -1.
         11    1    1    2    0    0  0.95226907074E+01  0.25098238741E+02 -0.44509434114E+01  0.27210551694E+02  0.00000000000E+00 0.  1.
</event>
<event>
 7    1  0.2626349E-009  0.2148208E+03  0.7561462E-02  0.1137804E+00
         -2   -1    0    0    0  501 -0.00000000000E+00  0.00000000000E+00  0.10816486047E+03  0.10816486047E+03  0.00000000000E+00 0.  1.
          2   -1    0    0  501    0  0.00000000000E+00 -0.00000000000E+00 -0.63775959303E+03  0.63775959303E+03  0.00000000000E+00 0. -1.
         25    2    1    2    0    0 -0.11987065995E+03 -0.15722883050E+03 -0.46216771650E+03  0.51801575294E+03  0.12510572274E+03 0.  0.
          5    1    3    3  502    0 -0.71212131444E+02 -0.10813084315E+02 -0.21329294773E+03  0.22516537124E+03  0.41800000000E+01 0.  1.
         -5    1    3    3    0  502 -0.48658528505E+02 -0.14641574619E+03 -0.24887476877E+03  0.29285038169E+03  0.41800000000E+01 0.  1.
        -11    1    1    2    0    0  0.93728918709E+02  0.85747232832E+02 -0.12345914934E+01  0.12704023912E+03  0.00000000000E+00 0.  1.
         11    1    1    2    0    0  0.26141741240E+02  0.71481597672E+02 -0.66192424569E+02  0.10086846143E+03  0.00000000000E+00 0. -1.
</event>
<event>
 7    1  0.2626349E-009  0.1034092E+03  0.7561462E-02  0.1273286E+00
          1   -1    0    0  501    0  0.00000000000E+00  0.00000000000E+00  0.26268657559E+02  0.26268657559E+02  0.00000000000E+00 0. -1.
         -1   -1    0    0    0  501 -0.00000000000E+00 -0.00000000000E+00 -0.46176901808E+03  0.46176901808E+03  0.00000000000E+00 0.  1.
         25    2    1    2    0    0 -0.10429683915E+02 -0.34646485042E+01 -0.24462228807E+03  0.27496869845E+03  0.12508772604E+03 0.  0.
          5    1    3    3  502    0  0.29404827424E+02 -0.53301303895E+02 -0.10589566822E+03  0.12221717482E+03  0.41800000000E+01 0.  1.
         -5    1    3    3    0  502 -0.39834511338E+02  0.49836655391E+02 -0.13872661985E+03  0.15275152363E+03  0.41800000000E+01 0.  1.
        -11    1    1    2    0    0 -0.21530173208E+02 -0.29124433129E+02 -0.14047662877E+03  0.14507054902E+03  0.00000000000E+00 0.  1.
         11    1    1    2    0    0  0.31959857122E+02  0.32589081633E+02 -0.50401443678E+02  0.67998428171E+02  0.00000000000E+00 0. -1.
</event>
<event>
 7    1  0.2626349E-009  0.1065799E+03  0.7561462E-02  0.1267038E+00
         -1   -1    0    0    0  501 -0.00000000000E+00  0.00000000000E+00  0.60064773844E+02  0.60064773844E+02  0.00000000000E+00 0.  1.
          1   -1    0    0  501    0  0.00000000000E+00 -0.00000000000E+00 -0.26998859132E+03  0.26998859132E+03  0.00000000000E+00 0. -1.
         25    2    1    2    0    0  0.31656357415E+01 -0.40657024363E+01 -0.20286449051E+03  0.23838608204E+03  0.12508945365E+03 0.  0.
          5    1    3    3  502    0 -0.50064224973E+02  0.32230997057E+02 -0.11211306713E+03  0.12701210972E+03  0.41800000000E+01 0.  1.
         -5    1    3    3    0  502  0.53229860715E+02 -0.36296699494E+02 -0.90751423372E+02  0.11137397232E+03  0.41800000000E+01 0.  1.
        -11    1    1    2    0    0 -0.65960380542E+00  0.46447745970E+02  0.69285429749E+01  0.46966295262E+02  0.00000000000E+00 0.  1.
         11    1    1    2    0    0 -0.25060319361E+01 -0.42382043534E+02 -0.13987869943E+02  0.44700987861E+02  0.00000000000E+00 0. -1.
</event>
<event>
 7    1  0.2626349E-009  0.3395441E+03  0.7561462E-02  0.1066990E+00
          2   -1    0    0  501    0  0.00000000000E+00  0.00000000000E+00  0.13003511636E+04  0.13003511636E+04  0.00000000000E+00 0. -1.
         -2   -1    0    0    0  501 -0.00000000000E+00 -0.00000000000E+00 -0.11672411193E+03  0.11672411193E+03  0.00000000000E+00 0.  1.
         25    2    1    2    0    0  0.25322715489E+03 -0.21454277385E+03  0.91748082143E+03  0.98365230932E+03  0.12509282214E+03 0.  0.
          5    1    3    3  502    0  0.14382150415E+03 -0.77687895856E+02  0.58979093873E+03  0.61203828151E+03  0.41800000000E+01 0. -1.
         -5    1    3    3    0  502  0.10940565074E+03 -0.13685487799E+03  0.32768988270E+03  0.37161402781E+03  0.41800000000E+01 0. -1.
        -11    1    1    2    0    0 -0.84825581394E+02  0.12070550392E+03  0.93720209306E+02  0.17478179416E+03  0.00000000000E+00 0. -1.
         11    1    1    2    0    0 -0.16840157350E+03  0.93837269927E+02  0.17242602091E+03  0.25864117203E+03  0.00000000000E+00 0.  1.
</event>
<event>
 7    1  0.2626349E-009  0.1083587E+03  0.7561462E-02  0.1263640E+00
         -2   -1    0    0    0  501 -0.00000000000E+00  0.00000000000E+00  0.16467354758E+03  0.16467354758E+03  0.00000000000E+00 0.  1.
          2   -1    0    0  501    0  0.00000000000E+00 -0.00000000000E+00 -0.10335927642E+03  0.10335927642E+03  0.00000000000E+00 0. -1.
         25    2    1    2    0    0  0.43814551108E+02 -0.41104503007E+02 -0.51751575668E+01  0.13885121088E+03  0.12507430372E+03 0.  0.
          5    1    3    3  502    0  0.29237081053E+02 -0.72131707455E+02 -0.41855830329E+02  0.88471312082E+02  0.41800000000E+01 0.  1.
         -5    1    3    3    0  502  0.14577470055E+02  0.31027204448E+02  0.36680672762E+02  0.50379898803E+02  0.41800000000E+01 0.  1.
        -11    1    1    2    0    0  0.16309475628E+02  0.40988765545E+02  0.50323992985E+02  0.66922209812E+02  0.00000000000E+00 0. -1.
         11    1    1    2    0    0 -0.60124026737E+02  0.11573746219E+00  0.16165435740E+02  0.62259403296E+02  0.00000000000E+00 0.  1.
</event>
<event>
 7    1  0.2626349E-009  0.8260817E+02  0.7561462E-02  0.1321809E+00
         -2   -1    0    0    0  501 -0.00000000000E+00  0.00000000000E+00  0.19965610426E+03  0.19965610426E+03  0.00000000000E+00 0.  1.
          2   -1    0    0  501    0  0.00000000000E+00 -0.00000000000E+00 -0.62483176675E+02  0.62483176675E+02  0.00000000000E+00 0. -1.
         25    2    1    2    0    0 -0.52243743055E+01  0.14506994388E+02  0.10699272990E+03  0.16532569479E+03  0.12508954446E+03 0.  0.
          5    1    3    3  502    0  0.36798951512E+02  0.17666644261E+02 -0.88568663526E+01  0.41978442485E+02  0.41800000000E+01 0. -1.
         -5    1    3    3    0  502 -0.42023325818E+02 -0.31596498726E+01  0.11584959625E+03  0.12334725231E+03  0.41800000000E+01 0. -1.
        -11    1    1    2    0    0  0.13472511039E+02 -0.46698335999E+02 -0.44646562485E+01  0.48807543415E+02  0.00000000000E+00 0. -1.
         11    1    1    2    0    0 -0.82481367339E+01  0.32191341611E+02  0.34644853937E+02  0.48006042730E+02  0.00000000000E+00 0.  1.
</event>
<event>
 7    1  0.2626349E-009  0.9894293E+02  0.7561462E-02  0.1282535E+00
         -1   -1    0    0    0  501 -0.00000000000E+00  0.00000000000E+00  0.15193083993E+02  0.15193083993E+02  0.00000000000E+00 0.  1.
          1   -1    0    0  501    0  0.00000000000E+00 -0.00000000000E+00 -0.78857334478E+03  0.78857334478E+03  0.00000000000E+00 0. -1.
         25    2    1    2    0    0  0.29721427148E+01  0.25412528332E+01 -0.47806275405E+03  0.49417697876E+03  0.12510634648E+03 0.  0.
          5    1    3    3  502    0  0.45010699042E+02 -0.37530453648E+02 -0.15207905408E+03  0.16303376665E+03  0.41800000000E+01 0. -1.
         -5    1    3    3    0  502 -0.42038556327E+02  0.40071706481E+02 -0.32598369997E+03  0.33114321211E+03  0.41800000000E+01 0. -1.
        -11    1    1    2    0    0  0.35995194295E+01  0.38839256092E+02 -0.67572492255E+02  0.78022343361E+02  0.00000000000E+00 0.  1.
         11    1    1    2    0    0 -0.65716621443E+01 -0.41380508925E+02 -0.22774501448E+03  0.23156710665E+03  0.00000000000E+00 0. -1.
</event>
<event>
 7    1  0.2626349E-009  0.1252433E+03  0.7561462E-02  0.1234690E+00
         -2   -1    0    0    0  501 -0.00000000000E+00  0.00000000000E+00  0.26674050864E+03  0.26674050864E+03  0.00000000000E+00 0. -1.
          2   -1    0    0  501    0  0.00000000000E+00 -0.00000000000E+00 -0.82064954491E+02  0.82064954491E+02  0.00000000000E+00 0.  1.
         25    2    1    2    0    0 -0.57088482495E+02 -0.43797433391E+02  0.18102841842E+03  0.23150919624E+03  0.12509160508E+03 0.  0.
          5    1    3    3  502    0 -0.69984673401E+02 -0.77828457760E+02  0.11192264221E+03  0.15329472786E+03  0.41800000000E+01 0. -1.
         -5    1    3    3    0  502  0.12896190906E+02  0.34031024369E+02  0.69105776203E+02  0.78214468381E+02  0.41800000000E+01 0. -1.
        -11    1    1    2    0    0 -0.18733525629E+02 -0.44222276412E+01 -0.16334701282E+02  0.25245267790E+02  0.00000000000E+00 0.  1.
         11    1    1    2    0    0  0.75822008124E+02  0.48219661032E+02  0.19981837016E+02  0.92050999107E+02  0.00000000000E+00 0. -1.
</event>
<event>
 7    1  0.2626349E-009  0.1074098E+03  0.7561462E-02  0.1265443E+00
          1   -1    0    0  501    0  0.00000000000E+00  0.00000000000E+00  0.26345998022E+03  0.26345998022E+03  0.00000000000E+00 0. -1.
         -1   -1    0    0    0  501 -0.00000000000E+00 -0.00000000000E+00 -0.44434058495E+02  0.44434058495E+02  0.00000000000E+00 0.  1.
         25    2    1    2    0    0 -0.35993265850E+02  0.48228935310E+01  0.12259309173E+03  0.17887145577E+03  0.12508859285E+03 0.  0.
          5    1    3    3  502    0 -0.45332548357E+02  0.59295206763E+02  0.73339764431E+02  0.10472418504E+03  0.41800000000E+01 0. -1.
         -5    1    3    3    0  502  0.93392825068E+01 -0.54472313232E+02  0.49253327296E+02  0.74147270727E+02  0.41800000000E+01 0. -1.
        -11    1    1    2    0    0 -0.42278804702E+01 -0.34434381022E+02  0.49785616592E+02  0.60681209522E+02  0.00000000000E+00 0. -1.
         11    1    1    2    0    0  0.40221146320E+02  0.29611487491E+02  0.46647213403E+02  0.68341373421E+02  0.00000000000E+00 0.  1.
</event>
<event>
 7    1  0.2626349E-009  0.1451266E+03  0.7561462E-02  0.1206593E+00
          1   -1    0    0  501    0  0.00000000000E+00  0.00000000000E+00  0.12866110499E+03  0.12866110499E+03  0.00000000000E+00 0. -1.
         -1   -1    0    0    0  501 -0.00000000000E+00 -0.00000000000E+00 -0.18432278788E+03  0.18432278788E+03  0.00000000000E+00 0.  1.
         25    2    1    2    0    0  0.16929145759E+02  0.10045737529E+03 -0.68434272917E+02  0.17523992885E+03  0.12508997853E+03 0.  0.
          5    1    3    3  502    0 -0.51078438825E+02  0.18353617611E+02 -0.27220658208E+02  0.60862951173E+02  0.41800000000E+01 0.  1.
         -5    1    3    3    0  502  0.68007584584E+02  0.82103757677E+02 -0.41213614709E+02  0.11437697768E+03  0.41800000000E+01 0.  1.
        -11    1    1    2    0    0 -0.41928091260E+02 -0.94558898943E+02 -0.93304478570E+01  0.10385763074E+03  0.00000000000E+00 0.  1.
         11    1    1    2    0    0  0.24998945501E+02 -0.58984763455E+01  0.22103037879E+02  0.33886333275E+02  0.00000000000E+00 0. -1.
</event>
<event>
 7    1  0.2626349E-009  0.9374528E+02  0.7561462E-02  0.1294027E+00
          4   -1    0    0  501    0  0.00000000000E+00  0.00000000000E+00  0.60143224490E+02  0.60143224490E+02  0.00000000000E+00 0. -1.
         -4   -1    0    0    0  501 -0.00000000000E+00 -0.00000000000E+00 -0.26320230342E+03  0.26320230342E+03  0.00000000000E+00 0.  1.
         25    2    1    2    0    0  0.35394657180E+02 -0.41223213194E+02 -0.15583668328E+03  0.20708609426E+03  0.12508974186E+03 0.  0.
          5    1    3    3  502    0  0.41413708813E+02 -0.52995343370E+02 -0.19648210006E+02  0.70193491529E+02  0.41800000000E+01 0. -1.
         -5    1    3    3    0  502 -0.60190516327E+01  0.11772130176E+02 -0.13618847327E+03  0.13689260273E+03  0.41800000000E+01 0. -1.
        -11    1    1    2    0    0  0.15227161310E+02  0.52253346761E+02 -0.24389440065E+02  0.59641625363E+02  0.00000000000E+00 0.  1.
         11    1    1    2    0    0 -0.50621818490E+02 -0.11030133567E+02 -0.22832955586E+02  0.56617808281E+02  0.00000000000E+00 0. -1.
</event>
<event>
 7    1  0.2626349E-009  0.2348238E+03  0.7561462E-02  0.1123290E+00
          2   -1    0    0  501    0  0.00000000000E+00  0.00000000000E+00  0.15765087952E+04  0.15765087952E+04  0.00000000000E+00 0.  1.
         -2   -1    0    0    0  501 -0.00000000000E+00 -0.00000000000E+00 -0.53150119261E+02  0.53150119261E+02  0.00000000000E+00 0. -1.
         25    2    1    2    0    0 -0.12023862303E+03 -0.18406546561E+03  0.12050121264E+04  0.12312753753E+04  0.12508958009E+03 0.  0.
          5    1    3    3  502    0 -0.49099174689E+02  0.29436936797E+01  0.16682574693E+03  0.17397613780E+03  0.41800000000E+01 0. -1.
         -5    1    3    3    0  502 -0.71139448338E+02 -0.18700915929E+03  0.10381863794E+04  0.10572992375E+04  0.41800000000E+01 0. -1.
        -11    1    1    2    0    0  0.46224165263E+02  0.81116985540E+02  0.61077102244E+02  0.11156635342E+03  0.00000000000E+00 0. -1.
         11    1    1    2    0    0  0.74014457763E+02  0.10294848007E+03  0.25726944738E+03  0.28681718578E+03  0.00000000000E+00 0.  1.
</event>
<event>
 7    1  0.2626349E-009  0.1596541E+03  0.7561462E-02  0.1189088E+00
         -2   -1    0    0    0  501 -0.00000000000E+00  0.00000000000E+00  0.13112055247E+03  0.13112055247E+03  0.00000000000E+00 0.  1.
          2   -1    0    0  501    0  0.00000000000E+00 -0.00000000000E+00 -0.20822001571E+03  0.20822001571E+03  0.00000000000E+00 0. -1.
         25    2    1    2    0    0  0.93803963947E+02 -0.80386319703E+02 -0.33100310236E+02  0.17890045594E+03  0.12509435859E+03 0.  0.
          5    1    3    3  502    0  0.11823429244E+03 -0.33896666866E+02 -0.25304215417E+02  0.12564277795E+03  0.41800000000E+01 0. -1.
         -5    1    3    3    0  502 -0.24430328490E+02 -0.46489652837E+02 -0.77960948191E+01  0.53257677996E+02  0.41800000000E+01 0. -1.
        -11    1    1    2    0    0 -0.26073704757E+02  0.70425542773E+02  0.64895442888E+01  0.75377114164E+02  0.00000000000E+00 0.  1.
         11    1    1    2    0    0 -0.67730259190E+02  0.99607769307E+01 -0.50488697292E+02  0.85062998074E+02  0.00000000000E+00 0. -1.
</event>
<event>
 7    1  0.2626349E-009  0.1536721E+03  0.7561462E-02  0.1196032E+00
          1   -1    0    0  501    0  0.00000000000E+00  0.00000000000E+00  0.41781667275E+03  0.41781667275E+03  0.00000000000E+00 0. -1.
         -1   -1    0    0    0  501 -0.00000000000E+00 -0.00000000000E+00 -0.61640862488E+02  0.61640862488E+02  0.00000000000E+00 0.  1.
         25    2    1    2    0    0  0.29521355464E+02 -0.10747512704E+03  0.24877148671E+03  0.29992884372E+03  0.12509054855E+03 0.  0.
          5    1    3    3  502    0  0.55842008752E+02 -0.18151742108E+00  0.68739935577E+02  0.88662359731E+02  0.41800000000E+01 0.  1.
         -5    1    3    3    0  502 -0.26320653288E+02 -0.10729360962E+03  0.18003155113E+03  0.21126648399E+03  0.41800000000E+01 0.  1.
        -11    1    1    2    0    0 -0.58827387523E+02  0.54206369454E+02  0.42448346994E+02  0.90558567649E+02  0.00000000000E+00 0.  1.
         11    1    1    2    0    0  0.29306032059E+02  0.53268757588E+02  0.64955976558E+02  0.88970123865E+02  0.00000000000E+00 0. -1.
</event>
<event>
 7    1  0.2626349E-009  0.2182927E+03  0.7561462E-02  0.1135162E+00
         -1   -1    0    0    0  501 -0.00000000000E+00  0.00000000000E+00  0.17844003319E+03  0.17844003319E+03  0.00000000000E+00 0.  1.
          1   -1    0    0  501    0  0.00000000000E+00 -0.00000000000E+00 -0.36881575648E+03  0.36881575648E+03  0.00000000000E+00 0. -1.
         25    2    1    2    0    0  0.56861914519E+02  0.18165245375E+03 -0.23827105117E+03  0.32962908370E+03  0.12510534648E+03 0.  0.
          5    1    3    3  502    0 -0.28235061090E+02  0.11172294990E+03 -0.98706822419E+02  0.15178848902E+03  0.41800000000E+01 0.  1.
         -5    1    3    3    0  502  0.85096975609E+02  0.69929503852E+02 -0.13956422875E+03  0.17784059467E+03  0.41800000000E+01 0.  1.
        -11    1    1    2    0    0 -0.62764359925E+02 -0.19041136039E+03  0.40001238121E+02  0.20444057839E+03  0.00000000000E+00 0.  1.
         11    1    1    2    0    0  0.59024454067E+01  0.87589066373E+01  0.78940897604E+01  0.13186127574E+02  0.00000000000E+00 0. -1.
</event>
<event>
 7    1  0.2626349E-009  0.6570900E+02  0.7561462E-02  0.1375324E+00
          2   -1    0    0  501    0  0.00000000000E+00  0.00000000000E+00  0.42421661963E+03  0.42421661963E+03  0.00000000000E+00 0.  1.
         -2   -1    0    0    0  501 -0.00000000000E+00 -0.00000000000E+00 -0.31005810038E+02  0.31005810038E+02  0.00000000000E+00 0. -1.
         25    2    1    2    0    0 -0.21921836190E+02 -0.17782601505E+00  0.16478136445E+03  0.20804280077E+03  0.12509320669E+03 0.  0.
          5    1    3    3  502    0 -0.59961966482E+01  0.16183107205E+02 -0.17120237700E+02  0.24666217220E+02  0.41800000000E+01 0.  1.
         -5    1    3    3    0  502 -0.15925639542E+02 -0.16360933220E+02  0.18190160215E+03  0.18337658355E+03  0.41800000000E+01 0.  1.
        -11    1    1    2    0    0  0.23104170097E+02 -0.42170215804E+02  0.15629823209E+03  0.16352757300E+03  0.00000000000E+00 0.  1.
         11    1    1    2    0    0 -0.11823339071E+01  0.42348041819E+02  0.72131213058E+02  0.83652055902E+02  0.00000000000E+00 0. -1.
</event>
<event>
 7    1  0.2626349E-009  0.1504579E+03  0.7561462E-02  0.1199911E+00
          1   -1    0    0  501    0  0.00000000000E+00  0.00000000000E+00  0.50937074859E+03  0.50937074859E+03  0.00000000000E+00 0. -1.
         -1   -1    0    0    0  501 -0.00000000000E+00 -0.00000000000E+00 -0.56834347347E+02  0.56834347347E+02  0.00000000000E+00 0.  1.
         25    2    1    2    0    0  0.98745999259E+02 -0.46816561417E+02  0.12234552344E+03  0.20629603144E+03  0.12508821962E+03 0.  0.
          5    1    3    3  502    0  0.47327273375E+02  0.39029166361E+02  0.24223554203E+02  0.66086304256E+02  0.41800000000E+01 0. -1.
         -5    1    3    3    0  502  0.51418725883E+02 -0.85845727778E+02  0.98121969240E+02  0.14020972718E+03  0.41800000000E+01 0. -1.
        -11    1    1    2    0    0  0.11456854845E+02  0.24200434899E+02  0.35431983350E+02  0.44411102400E+02  0.00000000000E+00 0.  1.
         11    1    1    2    0    0 -0.11020285410E+03  0.22616126518E+02  0.29475889445E+03  0.31549796210E+03  0.00000000000E+00 0. -1.
</event>
<event>
 7    1  0.2626349E-009  0.8071554E+02  0.7561462E-02  0.1327033E+00
         -1   -1    0    0    0  501 -0.00000000000E+00  0.00000000000E+00  0.65046937906E+02  0.65046937906E+02  0.00000000000E+00 0.  1.
          1   -1    0    0  501    0  0.00000000000E+00 -0.00000000000E+00 -0.11275485492E+04  0.11275485492E+04  0.00000000000E+00 0. -1.
         25    2    1    2    0    0  0.63194623359E+01  0.32254649765E+02 -0.10848651840E+04  0.10925478318E+04  0.12509196371E+03 0.  0.
          5    1    3    3  502    0  0.21761004112E+02  0.51318680169E+02 -0.10378319275E+04  0.10393361970E+04  0.41800000000E+01 0.  1.
         -5    1    3    3    0  502 -0.15441541776E+02 -0.19064030404E+02 -0.47033256530E+02  0.53211634889E+02  0.41800000000E+01 0.  1.
        -11    1    1    2    0    0 -0.40005545152E+02 -0.14381517941E+02 -0.16498085706E+02  0.45601080395E+02  0.00000000000E+00 0. -1.
         11    1    1    2    0    0  0.33686082816E+02 -0.17873131825E+02  0.38861658429E+02  0.54446574847E+02  0.00000000000E+00 0.  1.
</event>
<event>
 7    1  0.2626349E-009  0.1359788E+03  0.7561462E-02  0.1218845E+00
          2   -1    0    0  501    0  0.00000000000E+00  0.00000000000E+00  0.14585552110E+04  0.14585552110E+04  0.00000000000E+00 0. -1.
         -2   -1    0    0    0  501 -0.00000000000E+00 -0.00000000000E+00 -0.22323661548E+02  0.22323661548E+02  0.00000000000E+00 0.  1.
         25    2    1    2    0    0  0.11495846667E+03  0.37015479987E+02  0.10747291967E+04  0.10887034929E+04  0.12508738688E+03 0.  0.
          5    1    3    3  502    0  0.11473077746E+03  0.38260152439E+02  0.10770025359E+04  0.10837799248E+04  0.41800000000E+01 0.  1.
         -5    1    3    3    0  502  0.22768921172E+00 -0.12446724514E+01 -0.22733392085E+01  0.49235681213E+01  0.41800000000E+01 0.  1.
        -11    1    1    2    0    0 -0.82134204920E+02 -0.63966836088E+02  0.20374250437E+03  0.22879858353E+03  0.00000000000E+00 0.  1.
         11    1    1    2    0    0 -0.32824261751E+02  0.26951356100E+02  0.15775984839E+03  0.16337679615E+03  0.00000000000E+00 0. -1.
</event>
<event>
 7    1  0.2626349E-009  0.1402631E+03  0.7561462E-02  0.1212975E+00
         -3   -1    0    0    0  501 -0.00000000000E+00  0.00000000000E+00  0.99390799578E+02  0.99390799578E+02  0.00000000000E+00 0.  1.
          3   -1    0    0  501    0  0.00000000000E+00 -0.00000000000E+00 -0.27375612947E+03  0.27375612947E+03  0.00000000000E+00 0. -1.
         25    2    1    2    0    0 -0.45157271602E+02 -0.10613287278E+03 -0.14650784705E+03  0.22453302873E+03  0.12508863210E+03 0.  0.
          5    1    3    3  502    0  0.21082353008E+02  0.12867554999E+02 -0.83135972364E+00  0.25063980909E+02  0.41800000000E+01 0. -1.
         -5    1    3    3    0  502 -0.66239624610E+02 -0.11900042778E+03 -0.14567648733E+03  0.19946904783E+03  0.41800000000E+01 0. -1.
        -11    1    1    2    0    0 -0.39047174921E+01  0.17319126417E+02  0.27725604865E+02  0.32922759964E+02  0.00000000000E+00 0.  1.
         11    1    1    2    0    0  0.49061989094E+02  0.88813746364E+02 -0.55583087707E+02  0.11569114035E+03  0.00000000000E+00 0. -1.
</event>
<event>
 7    1  0.2626349E-009  0.1822084E+03  0.7561462E-02  0.1165683E+00
          1   -1    0    0  501    0  0.00000000000E+00  0.00000000000E+00  0.59014578692E+03  0.59014578692E+03  0.00000000000E+00 0. -1.
         -1   -1    0    0    0  501 -0.00000000000E+00 -0.00000000000E+00 -0.62944530180E+02  0.62944530180E+02  0.00000000000E+00 0.  1.
         25    2    1    2    0    0 -0.89224802518E+02 -0.12156782115E+03  0.18994306507E+03  0.27288375101E+03  0.12508946029E+03 0.  0.
          5    1    3    3  502    0  0.23453647611E+02 -0.63401041166E+02  0.81581686336E+02  0.10603211567E+03  0.41800000000E+01 0. -1.
         -5    1    3    3    0  502 -0.11267845013E+03 -0.58166779980E+02  0.10836137873E+03  0.16685163534E+03  0.41800000000E+01 0. -1.
        -11    1    1    2    0    0  0.96559916291E+02  0.73926034459E+02  0.28059230636E+03  0.30581190035E+03  0.00000000000E+00 0. -1.
         11    1    1    2    0    0 -0.73351137727E+01  0.47641786688E+02  0.56665885321E+02  0.74394665750E+02  0.00000000000E+00 0.  1.
</event>
<event>
 7    1  0.2626349E-009  0.1064250E+03  0.7561462E-02  0.1267337E+00
          4   -1    0    0  501    0  0.00000000000E+00  0.00000000000E+00  0.62381239839E+02  0.62381239839E+02  0.00000000000E+00 0. -1.
         -4   -1    0    0    0  501 -0.00000000000E+00 -0.00000000000E+00 -0.19509733586E+03  0.19509733586E+03  0.00000000000E+00 0.  1.
         25    2    1    2    0    0  0.10794009009E+02  0.50944596240E+01 -0.74825766773E+02  0.14625097052E+03  0.12509191363E+03 0.  0.
          5    1    3    3  502    0  0.23067540034E+02 -0.53540111371E+02 -0.12631090264E+02  0.59796921076E+02  0.41800000000E+01 0.  1.
         -5    1    3    3    0  502 -0.12273531025E+02  0.58634570995E+02 -0.62194676509E+02  0.86454049446E+02  0.41800000000E+01 0.  1.
        -11    1    1    2    0    0  0.29397199152E+02  0.29260956408E+02 -0.19177178958E+02  0.45696423063E+02  0.00000000000E+00 0. -1.
         11    1    1    2    0    0 -0.40191208162E+02 -0.34355416032E+02 -0.38713150293E+02  0.65531182119E+02  0.00000000000E+00 0.  1.
</event>
<event>
 7    1  0.2626349E-009  0.1369804E+03  0.7561462E-02  0.1217451E+00
         -1   -1    0    0    0  501 -0.00000000000E+00  0.00000000000E+00  0.17193371679E+03  0.17193371679E+03  0.00000000000E+00 0.  1.
          1   -1    0    0  501    0  0.00000000000E+00 -0.00000000000E+00 -0.19123131776E+03  0.19123131776E+03  0.00000000000E+00 0. -1.
         25    2    1    2    0    0  0.15880155109E+02  0.96737721685E+02 -0.11703579472E+03  0.19736955851E+03  0.12508796607E+03 0.  0.
          5    1    3    3  502    0  0.43076118742E+02  0.11147040133E+03 -0.63479099109E+02  0.13538194416E+03  0.41800000000E+01 0. -1.
         -5    1    3    3    0  502 -0.27195963634E+02 -0.14732679649E+02 -0.53556695615E+02  0.61987614350E+02  0.41800000000E+01 0. -1.
        -11    1    1    2    0    0  0.15846217100E+02 -0.89155252173E+02  0.97652177276E+02  0.13317548315E+03  0.00000000000E+00 0.  1.
         11    1    1    2    0    0 -0.31726372208E+02 -0.75824695126E+01  0.86016478447E-01  0.32619992892E+02  0.00000000000E+00 0. -1.
</event>
<event>
 7    1  0.2626349E-009  0.1039074E+03  0.7561462E-02  0.1272287E+00
          2   -1    0    0  501    0  0.00000000000E+00  0.00000000000E+00  0.46822610938E+03  0.46822610938E+03  0.00000000000E+00 0.  1.
         -2   -1    0    0    0  501 -0.00000000000E+00 -0.00000000000E+00 -0.31634875947E+02  0.31634875947E+02  0.00000000000E+00 0. -1.
         25    2    1    2    0    0  0.50171630335E+02 -0.13527509928E+02  0.35594693728E+03  0.38084870425E+03  0.12508927754E+03 0.  0.
          5    1    3    3  502    0 -0.36020589204E+02 -0.19379073266E+02  0.18198307891E+03  0.18656994597E+03  0.41800000000E+01 0. -1.
         -5    1    3    3    0  502  0.86192219538E+02  0.58515633377E+01  0.17396385837E+03  0.19427875828E+03  0.41800000000E+01 0. -1.
        -11    1    1    2    0    0 -0.41191589333E+02  0.36816751661E+02  0.30762900728E+02  0.63234296832E+02  0.00000000000E+00 0. -1.
         11    1    1    2    0    0 -0.89800410020E+01 -0.23289241733E+02  0.49881395429E+02  0.55777984248E+02  0.00000000000E+00 0.  1.
</event>
<event>
 7    1  0.2626349E-009  0.2515421E+03  0.7561462E-02  0.1112334E+00
          2   -1    0    0  501    0  0.00000000000E+00  0.00000000000E+00  0.11919861443E+04  0.11919861443E+04  0.00000000000E+00 0.  1.
         -2   -1    0    0    0  501 -0.00000000000E+00 -0.00000000000E+00 -0.67447366907E+02  0.67447366907E+02  0.00000000000E+00 0. -1.
         25    2    1    2    0    0 -0.23214701650E+03  0.67611083020E+02  0.35760171063E+03  0.44943487698E+03  0.12509687999E+03 0.  0.
          5    1    3    3  502    0 -0.24103897870E+02  0.45006000336E+02  0.26374427331E+02  0.57616150304E+02  0.41800000000E+01 0.  1.
         -5    1    3    3    0  502 -0.20804311863E+03  0.22605082685E+02  0.33122728330E+03  0.39181872668E+03  0.41800000000E+01 0.  1.
        -11    1    1    2    0    0  0.11882761404E+02 -0.81223505729E+01  0.60019065905E+01  0.15594726036E+02  0.00000000000E+00 0. -1.
         11    1    1    2    0    0  0.22026425510E+03 -0.59488732447E+02  0.76093516017E+03  0.79440390819E+03  0.00000000000E+00 0.  1.
</event>
<event>
 7    1  0.2626349E-009  0.1202246E+03  0.7561462E-02  0.1242727E+00
         -1   -1    0    0    0  501 -0.00000000000E+00  0.00000000000E+00  0.10718351801E+03  0.10718351801E+03  0.00000000000E+00 0.  1.
          1   -1    0    0  501    0  0.00000000000E+00 -0.00000000000E+00 -0.18816329903E+03  0.18816329903E+03  0.00000000000E+00 0. -1.
         25    2    1    2    0    0  0.53755753229E+02  0.34339571186E+02  0.22839635621E+02  0.14226685242E+03  0.12509724693E+03 0.  0.
          5    1    3    3  502    0 -0.15612461904E+02 -0.37058039462E+02  0.11218900099E+02  0.41956922848E+02  0.41800000000E+01 0.  1.
         -5    1    3    3    0  502  0.69368215133E+02  0.71397610649E+02  0.11620735522E+02  0.10030992957E+03  0.41800000000E+01 0.  1.
        -11    1    1    2    0    0 -0.20552835103E+02 -0.56730119206E+02 -0.26287327064E+02  0.65816024037E+02  0.00000000000E+00 0.  1.
         11    1    1    2    0    0 -0.33202918126E+02  0.22390548019E+02 -0.77532089569E+02  0.87263940581E+02  0.00000000000E+00 0. -1.
</event>
<event>
 7    1  0.2719987E-009  0.1051863E+03  0.7561462E-02  0.1269753E+00
          2   -1    0    0  501    0  0.00000000000E+00  0.00000000000E+00  0.27848231205E+03  0.27848231205E+03  0.00000000000E+00 0.  1.
         -2   -1    0    0    0  501 -0.00000000000E+00 -0.00000000000E+00 -0.61605127970E+02  0.61605127970E+02  0.00000000000E+00 0. -1.
         25    2    1    2    0    0  0.40449002935E+02 -0.73562378249E+01  0.19846520666E+03  0.23817354786E+03  0.12509182455E+03 0.  0.
          5    1    3    3  502    0  0.84123841500E+02 -0.13006861815E+01  0.10395951317E+03  0.13380420499E+03  0.41800000000E+01 0. -1.
         -5    1    3    3    0  502 -0.43674838565E+02 -0.60555516434E+01  0.94505693486E+02  0.10436934287E+03  0.41800000000E+01 0. -1.
        -11    1    1    2    0    0 -0.41827702757E+02  0.34772452857E+02 -0.17109810422E+02  0.57021275050E+02  0.00000000000E+00 0. -1.
         11    1    1    2    0    0  0.13786998218E+01 -0.27416215032E+02  0.35521787839E+02  0.44892617112E+02  0.00000000000E+00 0.  1.
</event>
<event>
 7    1  0.2626349E-009  0.1079198E+03  0.7561462E-02  0.1264471E+00
          1   -1    0    0  501    0  0.00000000000E+00  0.00000000000E+00  0.64534936602E+02  0.64534936602E+02  0.00000000000E+00 0. -1.
         -1   -1    0    0    0  501 -0.00000000000E+00 -0.00000000000E+00 -0.22535355360E+03  0.22535355360E+03  0.00000000000E+00 0.  1.
         25    2    1    2    0    0 -0.64829491835E+01  0.53804424113E+02 -0.97743457327E+02  0.16774804248E+03  0.12509467464E+03 0.  0.
          5    1    3    3  502    0  0.37422825032E+02 -0.10771888615E+02 -0.77710717993E+02  0.87022580453E+02  0.41800000000E+01 0. -1.
         -5    1    3    3    0  502 -0.43905774216E+02  0.64576312727E+02 -0.20032739334E+02  0.80725462031E+02  0.41800000000E+01 0. -1.
        -11    1    1    2    0    0 -0.22122868911E+02  0.13099676088E+02 -0.36563651059E+02  0.44698136664E+02  0.00000000000E+00 0.  1.
         11    1    1    2    0    0  0.28605818095E+02 -0.66904100200E+02 -0.26511508612E+02  0.77442311054E+02  0.00000000000E+00 0. -1.
</event>
<event>
 7    1  0.2626349E-009  0.1067546E+03  0.7561462E-02  0.1266701E+00
          1   -1    0    0  501    0  0.00000000000E+00  0.00000000000E+00  0.11150835840E+04  0.11150835840E+04  0.00000000000E+00 0. -1.
         -1   -1    0    0    0  501 -0.00000000000E+00 -0.00000000000E+00 -0.14828246098E+02  0.14828246098E+02  0.00000000000E+00 0.  1.
         25    2    1    2    0    0 -0.17185146096E+02 -0.55066351314E+02  0.82830879554E+03  0.83968512859E+03  0.12509205453E+03 0.  0.
          5    1    3    3  502    0  0.38945297882E+02 -0.52452356338E+01  0.10027664729E+03  0.10778277746E+03  0.41800000000E+01 0. -1.
         -5    1    3    3    0  502 -0.56130443978E+02 -0.49821115680E+02  0.72803214825E+03  0.73190235113E+03  0.41800000000E+01 0. -1.
        -11    1    1    2    0    0 -0.27273550766E+02  0.45956288206E+02  0.11426035333E+03  0.12613982456E+03  0.00000000000E+00 0.  1.
         11    1    1    2    0    0  0.44458696862E+02  0.91100631077E+01  0.15768618906E+03  0.16408687698E+03  0.00000000000E+00 0. -1.
</event>
<event>
 7    1  0.2626349E-009  0.1007301E+03  0.7561462E-02  0.1278768E+00
         -2   -1    0    0    0  501 -0.00000000000E+00  0.00000000000E+00  0.23225140104E+02  0.23225140104E+02  0.00000000000E+00 0. -1.
          2   -1    0    0  501    0  0.00000000000E+00 -0.00000000000E+00 -0.68271391277E+03  0.68271391277E+03  0.00000000000E+00 0.  1.
         25    2    1    2    0    0 -0.30923908625E+02 -0.26823348081E+02 -0.24059938663E+03  0.27424445814E+03  0.12508468270E+03 0.  0.
          5    1    3    3  502    0 -0.37753209146E+02  0.27424623795E+02 -0.27763916742E+02  0.54458445296E+02  0.41800000000E+01 0.  1.
         -5    1    3    3    0  502  0.68293005210E+01 -0.54247971876E+02 -0.21283546989E+03  0.21978601284E+03  0.41800000000E+01 0.  1.
        -11    1    1    2    0    0  0.56669035947E+02 -0.71827178762E+01 -0.17451310063E+03  0.18362405442E+03  0.00000000000E+00 0. -1.
         11    1    1    2    0    0 -0.25745127321E+02  0.34006065957E+02 -0.24437628541E+03  0.24807054032E+03  0.00000000000E+00 0.  1.
</event>
<event>
 7    1  0.2626349E-009  0.2752593E+03  0.7561462E-02  0.1098307E+00
          2   -1    0    0  501    0  0.00000000000E+00  0.00000000000E+00  0.41133691526E+03  0.41133691526E+03  0.00000000000E+00 0. -1.
         -2   -1    0    0    0  501 -0.00000000000E+00 -0.00000000000E+00 -0.19217663465E+03  0.19217663465E+03  0.00000000000E+00 0.  1.
         25    2    1    2    0    0  0.23317528384E+03 -0.11218692259E+03  0.12817147246E+03  0.31469267098E+03  0.12508769813E+03 0.  0.
          5    1    3    3  502    0  0.18977701062E+03 -0.31273519420E+02  0.64603002096E+02  0.20293931866E+03  0.41800000000E+01 0.  1.
         -5    1    3    3    0  502  0.43398273218E+02 -0.80913403171E+02  0.63568470364E+02  0.11175335232E+03  0.41800000000E+01 0.  1.
        -11    1    1    2    0    0 -0.22786135430E+03  0.92649435709E+02  0.62365107585E+02  0.25375996801E+03  0.00000000000E+00 0.  1.
         11    1    1    2    0    0 -0.53139295414E+01  0.19537486883E+02  0.28623700561E+02  0.35060910922E+02  0.00000000000E+00 0. -1.
</event>
<event>
 7    1  0.2626349E-009  0.1089992E+03  0.7561462E-02  0.1262434E+00
         -1   -1    0    0    0  501 -0.00000000000E+00  0.00000000000E+00  0.67532361394E+02  0.67532361394E+02  0.00000000000E+00 0.  1.
          1   -1    0    0  501    0  0.00000000000E+00 -0.00000000000E+00 -0.25486088617E+03  0.25486088617E+03  0.00000000000E+00 0. -1.
         25    2    1    2    0    0 -0.12920833062E+02  0.62392870831E+02 -0.15195268898E+03  0.20687380908E+03  0.12508930784E+03 0.  0.
          5    1    3    3  502    0  0.36173451368E+02 -0.12104700311E+02 -0.90945433432E+02  0.98709607514E+02  0.41800000000E+01 0. -1.
         -5    1    3    3    0  502 -0.49094284430E+02  0.74497571142E+02 -0.61007255550E+02  0.10816420156E+03  0.41800000000E+01 0. -1.
        -11    1    1    2    0    0 -0.24732763904E+02 -0.12247472728E+02 -0.44285099501E+02  0.52181224941E+02  0.00000000000E+00 0. -1.
         11    1    1    2    0    0  0.37653596966E+02 -0.50145398103E+02  0.89092637089E+01  0.63338213546E+02  0.00000000000E+00 0.  1.
</event>
<event>
 7    1  0.2626349E-009  0.6748859E+02  0.7561462E-02  0.1368848E+00
         -2   -1    0    0    0  501 -0.00000000000E+00  0.00000000000E+00  0.12365798502E+03  0.12365798502E+03  0.00000000000E+00 0. -1.
          2   -1    0    0  501    0  0.00000000000E+00 -0.00000000000E+00 -0.11839548634E+03  0.11839548634E+03  0.00000000000E+00 0.  1.
         25    2    1    2    0    0 -0.12181860962E+02  0.35427296129E+02 -0.37234660048E+02  0.13578614390E+03  0.12509182995E+03 0.  0.
          5    1    3    3  502    0 -0.58481593251E+01 -0.14359203996E+02 -0.72530946653E+02  0.74287268958E+02  0.41800000000E+01 0.  1.
         -5    1    3    3    0  502 -0.63337016371E+01  0.49786500126E+02  0.35296286604E+02  0.61498874943E+02  0.41800000000E+01 0.  1.
        -11    1    1    2    0    0  0.20267605956E+02  0.98708356109E+01 -0.18985272409E+02  0.29472865746E+02  0.00000000000E+00 0.  1.
         11    1    1    2    0    0 -0.80857449941E+01 -0.45298131740E+02  0.61482431136E+02  0.76794461712E+02  0.00000000000E+00 0. -1.
</event>
<event>
 7    1  0.2626349E-009  0.1452496E+03  0.7561462E-02  0.1206435E+00
          1   -1    0    0  501    0  0.00000000000E+00  0.00000000000E+00  0.12774600394E+04  0.12774600394E+04  0.00000000000E+00 0. -1.
         -1   -1    0    0    0  501 -0.00000000000E+00 -0.00000000000E+00 -0.30181357663E+02  0.30181357663E+02  0.00000000000E+00 0.  1.
         25    2    1    2    0    0 -0.15620310884E+02  0.11709220871E+03  0.10226110477E+04  0.10369829696E+04  0.12508295236E+03 0.  0.
          5    1    3    3  502    0 -0.43281963667E+02  0.83086070936E+00  0.44522208502E+03  0.44734125240E+03  0.41800000000E+01 0.  1.
         -5    1    3    3    0  502  0.27661652783E+02  0.11626134801E+03  0.57738896269E+03  0.58964171724E+03  0.41800000000E+01 0.  1.
        -11    1    1    2    0    0 -0.17107905551E+02 -0.48476300513E+02  0.25313314461E+02  0.57300925235E+02  0.00000000000E+00 0.  1.
         11    1    1    2    0    0  0.32728216435E+02 -0.68615908202E+02  0.19935431953E+03  0.21335750215E+03  0.00000000000E+00 0. -1.
</event>
<event>
 7    1  0.2626349E-009  0.1268625E+03  0.7561462E-02  0.1232187E+00
         -2   -1    0    0    0  501 -0.00000000000E+00  0.00000000000E+00  0.73364981806E+02  0.73364981806E+02  0.00000000000E+00 0.  1.
          2   -1    0    0  501    0  0.00000000000E+00 -0.00000000000E+00 -0.28443839075E+03  0.28443839075E+03  0.00000000000E+00 0. -1.
         25    2    1    2    0    0 -0.18229765286E+02 -0.93801818770E+02 -0.11573507447E+03  0.19538270804E+03  0.12509472248E+03 0.  0.
          5    1    3    3  502    0  0.52378144185E+02 -0.56168383231E+02 -0.63487760624E+02  0.99732268660E+02  0.41800000000E+01 0. -1.
         -5    1    3    3    0  502 -0.70607909471E+02 -0.37633435539E+02 -0.52247313842E+02  0.95650439382E+02  0.41800000000E+01 0. -1.
        -11    1    1    2    0    0 -0.47695576579E+00  0.34606464004E+02  0.13477487816E+02  0.37141318171E+02  0.00000000000E+00 0.  1.
         11    1    1    2    0    0  0.18706721052E+02  0.59195354766E+02 -0.10881582229E+03  0.12527934634E+03  0.00000000000E+00 0. -1.
</event>
<event>
 7    1  0.2626349E-009  0.7345463E+02  0.7561462E-02  0.1348724E+00
         -1   -1    0    0    0  501 -0.00000000000E+00  0.00000000000E+00  0.53292615373E+02  0.53292615373E+02  0.00000000000E+00 0.  1.
          1   -1    0    0  501    0  0.00000000000E+00 -0.00000000000E+00 -0.26067851890E+03  0.26067851890E+03  0.00000000000E+00 0. -1.
         25    2    1    2    0    0 -0.83919484530E+01  0.99823629098E+01 -0.16147876377E+03  0.20467747781E+03  0.12508959352E+03 0.  0.
          5    1    3    3  502    0  0.10984636632E+02 -0.17852304018E+02  0.14229529200E+02  0.25677205883E+02  0.41800000000E+01 0. -1.
         -5    1    3    3    0  502 -0.19376585085E+02  0.27834666928E+02 -0.17570829297E+03  0.17900027193E+03  0.41800000000E+01 0. -1.
        -11    1    1    2    0    0  0.55322223233E+01 -0.50471573984E+02 -0.46281311304E+02  0.68701856163E+02  0.00000000000E+00 0. -1.
         11    1    1    2    0    0  0.28597261297E+01  0.40489211074E+02  0.37417154763E+00  0.40591800297E+02  0.00000000000E+00 0.  1.
</event>
<event>
 7    1  0.2626349E-009  0.1390323E+03  0.7561462E-02  0.1214637E+00
         -3   -1    0    0    0  501 -0.00000000000E+00  0.00000000000E+00  0.15082861325E+04  0.15082861325E+04  0.00000000000E+00 0.  1.
          3   -1    0    0  501    0  0.00000000000E+00 -0.00000000000E+00 -0.13014672763E+02  0.13014672763E+02  0.00000000000E+00 0. -1.
         25    2    1    2    0    0 -0.24200252903E+02 -0.85351613643E+02  0.83500818875E+03  0.84897427666E+03  0.12509235373E+03 0.  0.
          5    1    3    3  502    0 -0.73842069005E+02 -0.60950179198E+02  0.45924989086E+03  0.46914337910E+03  0.41800000000E+01 0. -1.
         -5    1    3    3    0  502  0.49641816102E+02 -0.24401434444E+02  0.37575829789E+03  0.37983089756E+03  0.41800000000E+01 0. -1.
        -11    1    1    2    0    0  0.25256433224E+02  0.10453402856E+03  0.56575786328E+03  0.57588819263E+03  0.00000000000E+00 0. -1.
         11    1    1    2    0    0 -0.10561803203E+01 -0.19182414917E+02  0.94505407659E+02  0.96438335924E+02  0.00000000000E+00 0.  1.
</event>
<event>
 7    1  0.2626349E-009  0.1451331E+03  0.7561462E-02  0.1206584E+00
         -2   -1    0    0    0  501 -0.00000000000E+00  0.00000000000E+00  0.48892178969E+02  0.48892178969E+02  0.00000000000E+00 0.  1.
          2   -1    0    0  501    0  0.00000000000E+00 -0.00000000000E+00 -0.43646655862E+03  0.43646655862E+03  0.00000000000E+00 0. -1.
         25    2    1    2    0    0 -0.62810053192E+02  0.78105225462E+02 -0.18949037967E+03  0.24819003289E+03  0.12508460900E+03 0.  0.
          5    1    3    3  502    0 -0.22188818169E+02  0.10729832331E+03 -0.13832735089E+03  0.17651402845E+03  0.41800000000E+01 0. -1.
         -5    1    3    3    0  502 -0.40621235023E+02 -0.29193097849E+02 -0.51163028787E+02  0.71676004433E+02  0.41800000000E+01 0. -1.
        -11    1    1    2    0    0  0.39995157687E+02  0.84761884210E+01 -0.63362664843E+02  0.75407464515E+02  0.00000000000E+00 0. -1.
         11    1    1    2    0    0  0.22814895506E+02 -0.86581413883E+02 -0.13472133514E+03  0.16176124019E+03  0.00000000000E+00 0.  1.
</event>
<event>
 7    1  0.2626349E-009  0.8863950E+02  0.7561462E-02  0.1306180E+00
          1   -1    0    0  501    0  0.00000000000E+00  0.00000000000E+00  0.10698007237E+03  0.10698007237E+03  0.00000000000E+00 0. -1.
         -1   -1    0    0    0  501 -0.00000000000E+00 -0.00000000000E+00 -0.12328789222E+03  0.12328789222E+03  0.00000000000E+00 0.  1.
         25    2    1    2    0    0  0.15509060672E+01 -0.31271896485E+02  0.11266239497E+02  0.12943946164E+03  0.12508920520E+03 0.  0.
          5    1    3    3  502    0 -0.42140837742E+00  0.30226738772E+02 -0.39250857417E+02  0.49718563231E+02  0.41800000000E+01 0.  1.
         -5    1    3    3    0  502  0.19723144446E+01 -0.61498635257E+02  0.50517096913E+02  0.79720898410E+02  0.41800000000E+01 0.  1.
        -11    1    1    2    0    0 -0.14398900323E+02 -0.24194319679E+02 -0.33299239921E+02  0.43606568479E+02  0.00000000000E+00 0.  1.
         11    1    1    2    0    0  0.12847994256E+02  0.55466216164E+02  0.57251805748E+01  0.57221934470E+02  0.00000000000E+00 0. -1.
</event>
<event>
 7    1  0.2626349E-009  0.1308604E+03  0.7561462E-02  0.1226185E+00
          2   -1    0    0  501    0  0.00000000000E+00  0.00000000000E+00  0.16131278047E+04  0.16131278047E+04  0.00000000000E+00 0. -1.
         -2   -1    0    0    0  501 -0.00000000000E+00 -0.00000000000E+00 -0.14551963132E+02  0.14551963132E+02  0.00000000000E+00 0.  1.
         25    2    1    2    0    0 -0.72184999100E+02  0.13561701288E+02  0.12789156444E+04  0.12871158312E+04  0.12508934212E+03 0.  0.
          5    1    3    3  502    0 -0.74381461615E+02  0.61203503461E+02  0.78999387473E+03  0.79585568112E+03  0.41800000000E+01 0. -1.
         -5    1    3    3    0  502  0.21964625146E+01 -0.47641802172E+02  0.48892176971E+03  0.49126015009E+03  0.41800000000E+01 0. -1.
        -11    1    1    2    0    0  0.43038888710E+02 -0.53073718837E+02  0.18117445535E+03  0.19363199333E+03  0.00000000000E+00 0. -1.
         11    1    1    2    0    0  0.29146110390E+02  0.39512017549E+02  0.13848574173E+03  0.14693194324E+03  0.00000000000E+00 0.  1.
</event>
<event>
 7    1  0.2626349E-009  0.1497173E+03  0.7561462E-02  0.1200821E+00
         -2   -1    0    0    0  501 -0.00000000000E+00  0.00000000000E+00  0.27524948267E+02  0.27524948267E+02  0.00000000000E+00 0. -1.
          2   -1    0    0  501    0  0.00000000000E+00 -0.00000000000E+00 -0.11003965130E+04  0.11003965130E+04  0.00000000000E+00 0.  1.
         25    2    1    2    0    0 -0.76528539987E+02  0.10231301220E+03 -0.72232227148E+03  0.74412679442E+03  0.12510256754E+03 0.  0.
          5    1    3    3  502    0 -0.65818568718E+02 -0.43237753798E+00 -0.40643066534E+03  0.41174704500E+03  0.41800000000E+01 0.  1.
         -5    1    3    3    0  502 -0.10709971269E+02  0.10274538974E+03 -0.31589160614E+03  0.33237974942E+03  0.41800000000E+01 0.  1.
        -11    1    1    2    0    0  0.24385840992E+02 -0.52938594062E+02 -0.26852496439E+03  0.27477776563E+03  0.00000000000E+00 0.  1.
         11    1    1    2    0    0  0.52142698995E+02 -0.49374418136E+02 -0.82024328852E+02  0.10901690121E+03  0.00000000000E+00 0. -1.
</event>
<event>
 7    1  0.2626349E-009  0.1156167E+03  0.7561462E-02  0.1250508E+00
         -2   -1    0    0    0  501 -0.00000000000E+00  0.00000000000E+00  0.89791508671E+01  0.89791508671E+01  0.00000000000E+00 0. -1.
          2   -1    0    0  501    0  0.00000000000E+00 -0.00000000000E+00 -0.20409532703E+04  0.20409532703E+04  0.00000000000E+00 0.  1.
         25    2    1    2    0    0 -0.62176660367E+02 -0.57661947357E+02 -0.15598092922E+04  0.15671136056E+04  0.12509671284E+03 0.  0.
          5    1    3    3  502    0 -0.41656353660E+02  0.24878515718E+02 -0.26024891427E+03  0.26476624053E+03  0.41800000000E+01 0. -1.
         -5    1    3    3    0  502 -0.20520306708E+02 -0.82540463075E+02 -0.12995603779E+04  0.13023473651E+04  0.41800000000E+01 0. -1.
        -11    1    1    2    0    0  0.69276286283E+02  0.44249184263E+02 -0.43457488379E+03  0.44228104613E+03  0.00000000000E+00 0.  1.
         11    1    1    2    0    0 -0.70996259160E+01  0.13412763094E+02 -0.37589943393E+02  0.40537769379E+02  0.00000000000E+00 0. -1.
</event>
<event>
 7    1  0.2626349E-009  0.1091635E+03  0.7561462E-02  0.1262127E+00
          1   -1    0    0  501    0  0.00000000000E+00  0.00000000000E+00  0.12560462161E+03  0.12560462161E+03  0.00000000000E+00 0. -1.
         -1   -1    0    0    0  501 -0.00000000000E+00 -0.00000000000E+00 -0.10648930042E+03  0.10648930042E+03  0.00000000000E+00 0.  1.
         25    2    1    2    0    0 -0.33317749788E+02  0.30585772223E+02  0.14900609858E+02  0.13384523886E+03  0.12508780068E+03 0.  0.
          5    1    3    3  502    0 -0.28432325693E+02 -0.41868155487E+02 -0.18179201461E+02  0.53937884218E+02  0.41800000000E+01 0. -1.
         -5    1    3    3    0  502 -0.48854240950E+01  0.72453927710E+02  0.33079811319E+02  0.79907354644E+02  0.41800000000E+01 0. -1.
        -11    1    1    2    0    0  0.33519438428E+01 -0.55643524050E+02 -0.10089272553E+02  0.56650072523E+02  0.00000000000E+00 0.  1.
         11    1    1    2    0    0  0.29965805945E+02  0.25057751827E+02  0.14303983881E+02  0.41598610643E+02  0.00000000000E+00 0. -1.
</event>
<event>
 7    1  0.2626349E-009  0.1227884E+03  0.7561462E-02  0.1238567E+00
          1   -1    0    0  501    0  0.00000000000E+00  0.00000000000E+00  0.11783165282E+03  0.11783165282E+03  0.00000000000E+00 0.  1.
         -1   -1    0    0    0  501 -0.00000000000E+00 -0.00000000000E+00 -0.26652517078E+03  0.26652517078E+03  0.00000000000E+00 0. -1.
         25    2    1    2    0    0  0.51561404787E+02 -0.66288952546E+02 -0.19934384044E+03  0.24987715748E+03  0.12509126035E+03 0.  0.
          5    1    3    3  502    0  0.62037664849E+02  0.87056180145E+01 -0.14049124094E+03  0.15388216539E+03  0.41800000000E+01 0.  1.
         -5    1    3    3    0  502 -0.10476260062E+02 -0.74994570560E+02 -0.58852599500E+02  0.95994992090E+02  0.41800000000E+01 0.  1.
        -11    1    1    2    0    0  0.97578877722E+01  0.38346007593E+02 -0.13136385284E+02  0.41691693303E+02  0.00000000000E+00 0. -1.
         11    1    1    2    0    0 -0.61319292559E+02  0.27942944953E+02  0.63786707758E+02  0.92787972815E+02  0.00000000000E+00 0.  1.
</event>
<event>
 7    1  0.2626349E-009  0.1089973E+03  0.7561462E-02  0.1262438E+00
          3   -1    0    0  501    0  0.00000000000E+00  0.00000000000E+00  0.33353629038E+02  0.33353629038E+02  0.00000000000E+00 0. -1.
         -3   -1    0    0    0  501 -0.00000000000E+00 -0.00000000000E+00 -0.50057706313E+03  0.50057706313E+03  0.00000000000E+00 0.  1.
         25    2    1    2    0    0  0.43460543456E+02 -0.46529313428E+02 -0.30662240044E+03  0.33722635745E+03  0.12510205378E+03 0.  0.
          5    1    3    3  502    0 -0.42010205517E+02 -0.21943691961E+02 -0.72224477082E+02  0.86488325653E+02  0.41800000000E+01 0. -1.
         -5    1    3    3    0  502  0.85470748974E+02 -0.24585621468E+02 -0.23439792336E+03  0.25073803180E+03  0.41800000000E+01 0. -1.
        -11    1    1    2    0    0 -0.40541262197E+02  0.62798632697E+01 -0.12033021560E+02  0.42753061072E+02  0.00000000000E+00 0. -1.
         11    1    1    2    0    0 -0.29192812594E+01  0.40249450159E+02 -0.14856801208E+03  0.15395127364E+03  0.00000000000E+00 0.  1.
</event>
<event>
 7    1  0.2678546E-009  0.1640100E+03  0.7561462E-02  0.1184242E+00
         -2   -1    0    0    0  501 -0.00000000000E+00  0.00000000000E+00  0.71392180711E+02  0.71392180711E+02  0.00000000000E+00 0.  1.
          2   -1    0    0  501    0  0.00000000000E+00 -0.00000000000E+00 -0.40400083363E+03  0.40400083363E+03  0.00000000000E+00 0. -1.
         25    2    1    2    0    0 -0.12068191810E+03 -0.47993037513E+02 -0.16829883963E+03  0.24665594889E+03  0.12508877126E+03 0.  0.
          5    1    3    3  502    0  0.20892739984E+02 -0.25493854060E+01 -0.56918591417E+02  0.60829305428E+02  0.41800000000E+01 0.  1.
         -5    1    3    3    0  502 -0.14157465809E+03 -0.45443652107E+02 -0.11138024821E+03  0.18582664346E+03  0.41800000000E+01 0.  1.
        -11    1    1    2    0    0  0.82372804598E+02 -0.15345938518E+02 -0.10182075497E+03  0.13186448691E+03  0.00000000000E+00 0.  1.
         11    1    1    2    0    0  0.38309113504E+02  0.63338976031E+02 -0.62489058317E+02  0.96872578532E+02  0.00000000000E+00 0. -1.
</event>
<event>
 7    1  0.4342314E-009  0.1023339E+03  0.7561462E-02  0.1275463E+00
         -1   -1    0    0    0  501 -0.00000000000E+00  0.00000000000E+00  0.58930923007E+02  0.58930923007E+02  0.00000000000E+00 0.  1.
          1   -1    0    0  501    0  0.00000000000E+00 -0.00000000000E+00 -0.28843748055E+03  0.28843748055E+03  0.00000000000E+00 0. -1.
         25    2    1    2    0    0  0.49231832314E+01 -0.21884244037E+02 -0.35438150156E+02  0.13193203547E+03  0.12508813544E+03 0.  0.
          5    1    3    3  502    0 -0.13277551125E+02 -0.69064986392E+02 -0.73453470065E+00  0.70457630179E+02  0.41800000000E+01 0. -1.
         -5    1    3    3    0  502  0.18200734356E+02  0.47180742356E+02 -0.34703615455E+02  0.61474405292E+02  0.41800000000E+01 0. -1.
        -11    1    1    2    0    0  0.36521935293E+02  0.20763413481E+02 -0.48924615437E+02  0.64487123463E+02  0.00000000000E+00 0.  1.
         11    1    1    2    0    0 -0.41445118524E+02  0.11208305557E+01 -0.14514379195E+03  0.15094924462E+03  0.00000000000E+00 0. -1.
</event>
<event>
 7    1  0.2626349E-009  0.9952200E+02  0.7561462E-02  0.1281304E+00
          1   -1    0    0  501    0  0.00000000000E+00  0.00000000000E+00  0.19407634778E+03  0.19407634778E+03  0.00000000000E+00 0. -1.
         -1   -1    0    0    0  501 -0.00000000000E+00 -0.00000000000E+00 -0.85814037697E+02  0.85814037697E+02  0.00000000000E+00 0.  1.
         25    2    1    2    0    0 -0.32642874515E+02  0.54844101511E+01  0.12488286397E+03  0.17982732453E+03  0.12508597412E+03 0.  0.
          5    1    3    3  502    0 -0.46772742741E+02 -0.39210817090E+02  0.19167074285E+02  0.64109490538E+02  0.41800000000E+01 0. -1.
         -5    1    3    3    0  502  0.14129868226E+02  0.44695227241E+02  0.10571578969E+03  0.11571783399E+03  0.41800000000E+01 0. -1.
        -11    1    1    2    0    0 -0.15034686170E+02  0.28522411286E+02 -0.25138211790E+02  0.40883975171E+02  0.00000000000E+00 0.  1.
         11    1    1    2    0    0  0.47677560685E+02 -0.34006821437E+02  0.85176578988E+01  0.59179085776E+02  0.00000000000E+00 0. -1.
</event>
<event>
 7    1  0.2626349E-009  0.1091743E+03  0.7561462E-02  0.1262107E+00
         -2   -1    0    0    0  501 -0.00000000000E+00  0.00000000000E+00  0.48734682403E+02  0.48734682403E+02  0.00000000000E+00 0.  1.
          2   -1    0    0  501    0  0.00000000000E+00 -0.00000000000E+00 -0.38401827718E+03  0.38401827718E+03  0.00000000000E+00 0. -1.
         25    2    1    2    0    0 -0.12697533781E+02  0.90985699423E+02 -0.16498945949E+03  0.22651506277E+03  0.12509167461E+03 0.  0.
          5    1    3    3  502    0  0.13779173011E+02  0.57187449381E+02 -0.31841379526E+01  0.59058285702E+02  0.41800000000E+01 0. -1.
         -5    1    3    3    0  502 -0.26476706792E+02  0.33798250042E+02 -0.16180532154E+03  0.16745677707E+03  0.41800000000E+01 0. -1.
        -11    1    1    2    0    0 -0.48747024778E+00  0.12202402917E+02 -0.20580468552E+02  0.23930983056E+02  0.00000000000E+00 0.  1.
         11    1    1    2    0    0  0.13185004029E+02 -0.10318810234E+03 -0.14971366673E+03  0.18230691375E+03  0.00000000000E+00 0. -1.
</event>
<event>
 7    1  0.2626349E-009  0.1839064E+03  0.7561462E-02  0.1164075E+00
         -1   -1    0    0    0  501 -0.00000000000E+00  0.00000000000E+00  0.56696713729E+03  0.56696713729E+03  0.00000000000E+00 0.  1.
          1   -1    0    0  501    0  0.00000000000E+00 -0.00000000000E+00 -0.73912112367E+02  0.73912112367E+02  0.00000000000E+00 0. -1.
         25    2    1    2    0    0 -0.16096343655E+03 -0.53192861324E+02  0.19643298258E+03  0.28804839704E+03  0.12508898428E+03 0.  0.
          5    1    3    3  502    0 -0.25700673472E+02 -0.29834599311E+02  0.12922507735E+03  0.13515628343E+03  0.41800000000E+01 0.  1.
         -5    1    3    3    0  502 -0.13526276307E+03 -0.23358262013E+02  0.67207905230E+02  0.15289211361E+03  0.41800000000E+01 0.  1.
        -11    1    1    2    0    0  0.56684838616E+02 -0.23579650085E+02  0.88392524440E+02  0.10762160194E+03  0.00000000000E+00 0. -1.
         11    1    1    2    0    0  0.10427859793E+03  0.76772511408E+02  0.20822951790E+03  0.24520925068E+03  0.00000000000E+00 0.  1.
</event>
<event>
 7    1  0.2626349E-009  0.1865136E+03  0.7561462E-02  0.1161644E+00
         -2   -1    0    0    0  501 -0.00000000000E+00  0.00000000000E+00  0.58801289352E+02  0.58801289352E+02  0.00000000000E+00 0.  1.
          2   -1    0    0  501    0  0.00000000000E+00 -0.00000000000E+00 -0.59244823391E+03  0.59244823391E+03  0.00000000000E+00 0. -1.
         25    2    1    2    0    0 -0.99857521257E+01 -0.15271932938E+03 -0.27277571742E+03  0.33686290415E+03  0.12508843020E+03 0.  0.
          5    1    3    3  502    0  0.34183570946E+02  0.40297638689E+01 -0.44266899874E+02  0.56229763862E+02  0.41800000000E+01 0.  1.
         -5    1    3    3    0  502 -0.44169323072E+02 -0.15674909325E+03 -0.22850881755E+03  0.28063314029E+03  0.41800000000E+01 0.  1.
        -11    1    1    2    0    0 -0.36387526263E+02  0.42997053618E+02 -0.82202606672E+02  0.99649722684E+02  0.00000000000E+00 0.  1.
         11    1    1    2    0    0  0.46373278389E+02  0.10972227576E+03 -0.17866862047E+03  0.21473689642E+03  0.00000000000E+00 0. -1.
</event>
<event>
 7    1  0.2626349E-009  0.1364331E+03  0.7561462E-02  0.1218211E+00
          2   -1    0    0  501    0  0.00000000000E+00  0.00000000000E+00  0.28003527438E+02  0.28003527438E+02  0.00000000000E+00 0. -1.
         -2   -1    0    0    0  501 -0.00000000000E+00 -0.00000000000E+00 -0.80308014862E+03  0.80308014862E+03  0.00000000000E+00 0.  1.
         25    2    1    2    0    0  0.93941972881E+02  0.41527960024E+02 -0.45079734598E+03  0.47897309897E+03  0.12508923479E+03 0.  0.
          5    1    3    3  502    0  0.10074170958E+03  0.58801905207E+02 -0.23552416731E+03  0.26286053697E+03  0.41800000000E+01 0.  1.
         -5    1    3    3    0  502 -0.67997367019E+01 -0.17273945183E+02 -0.21527317867E+03  0.21611256200E+03  0.41800000000E+01 0.  1.
        -11    1    1    2    0    0 -0.38595720874E+02 -0.66113027499E+02 -0.18729761943E+03  0.20233872669E+03  0.00000000000E+00 0.  1.
         11    1    1    2    0    0 -0.55346252007E+02  0.24585067475E+02 -0.13698165577E+03  0.14977185040E+03  0.00000000000E+00 0. -1.
</event>
<event>
 7    1  0.2626349E-009  0.1591114E+03  0.7561462E-02  0.1189704E+00
         -2   -1    0    0    0  501 -0.00000000000E+00  0.00000000000E+00  0.42616201531E+02  0.42616201531E+02  0.00000000000E+00 0. -1.
          2   -1    0    0  501    0  0.00000000000E+00 -0.00000000000E+00 -0.68102775163E+03  0.68102775163E+03  0.00000000000E+00 0.  1.
         25    2    1    2    0    0 -0.11810348275E+03 -0.49111274773E+02 -0.40847331397E+03  0.44593494447E+03  0.12508867464E+03 0.  0.
          5    1    3    3  502    0 -0.13714608214E+03 -0.60895463273E+02 -0.38497125485E+03  0.41320411996E+03  0.41800000000E+01 0.  1.
         -5    1    3    3    0  502  0.19042599385E+02  0.11784188500E+02 -0.23502059124E+02  0.32730824509E+02  0.41800000000E+01 0.  1.
        -11    1    1    2    0    0  0.38975072304E+02 -0.16704403297E+02 -0.11924477812E+03  0.12655990858E+03  0.00000000000E+00 0.  1.
         11    1    1    2    0    0  0.79128410447E+02  0.65815678070E+02 -0.11069345801E+03  0.15114910011E+03  0.00000000000E+00 0. -1.
</event>
