<event>
 8    1  0.7114239E-009  0.1422381E+03  0.7561462E-02  0.1210349E+00
         -1   -1    0    0    0  501 -0.00000000000E+00  0.00000000000E+00  0.10420239632E+03  0.10420239632E+03  0.00000000000E+00 0.  1.
          1   -1    0    0  501    0  0.00000000000E+00 -0.00000000000E+00 -0.23195434173E+03  0.23195434173E+03  0.00000000000E+00 0. -1.
         25    2    1    2    0    0 -0.63194677737E+02 -0.89382761316E+02 -0.52488174291E+02  0.17431254956E+03  0.12508801373E+03 0.  0.
         23    2    1    2    0    0  0.63194677737E+02  0.89382761316E+02 -0.75263771116E+02  0.16184418850E+03  0.92444906795E+02 0.  0.
          5    1    3    3  502    0 -0.14583677314E+02 -0.93022639352E+02  0.10188626395E+02  0.94800715102E+02  0.41800000000E+01 0. -1.
         -5    1    3    3    0  502 -0.48611000423E+02  0.36398780353E+01 -0.62676800686E+02  0.79511834455E+02  0.41800000000E+01 0. -1.
        -11    1    4    4    0    0  0.12191860722E+02  0.89468896882E+02 -0.34915321761E+02  0.96811180505E+02  0.00000000000E+00 0.  1.
         11    1    4    4    0    0  0.51002817015E+02 -0.86135565826E-01 -0.40348449356E+02  0.65033007990E+02  0.00000000000E+00 0. -1.
</event>
<event>
 8    1  0.7114239E-009  0.9897540E+02  0.7561462E-02  0.1282465E+00
         -1   -1    0    0    0  501 -0.00000000000E+00  0.00000000000E+00  0.17009525882E+02  0.17009525882E+02  0.00000000000E+00 0.  1.
          1   -1    0    0  501    0  0.00000000000E+00 -0.00000000000E+00 -0.10214701769E+04  0.10214701769E+04  0.00000000000E+00 0. -1.
         25    2    1    2    0    0  0.71709880475E+02  0.17318797866E+02 -0.54935184041E+03  0.56822336718E+03  0.12509237680E+03 0.  0.
         23    2    1    2    0    0 -0.71709880475E+02 -0.17318797866E+02 -0.45510881056E+03  0.47025633555E+03  0.92599913386E+02 0.  0.
          5    1    3    3  502    0  0.80602815799E+02  0.13442022907E+02 -0.55142149750E+03  0.55745909465E+03  0.41800000000E+01 0. -1.
         -5    1    3    3    0  502 -0.88929353246E+01  0.38767749586E+01  0.20696570936E+01  0.10764272537E+02  0.41800000000E+01 0. -1.
        -11    1    4    4    0    0  0.15840224592E+02 -0.73054169314E+01 -0.21028413659E+02  0.27321713209E+02  0.00000000000E+00 0.  1.
         11    1    4    4    0    0 -0.87550105067E+02 -0.10013380934E+02 -0.43408039690E+03  0.44293462234E+03  0.00000000000E+00 0. -1.
</event>
<event>
 8    1  0.7114239E-009  0.1556706E+03  0.7561462E-02  0.1193673E+00
         -1   -1    0    0    0  501 -0.00000000000E+00  0.00000000000E+00  0.16877533853E+02  0.16877533853E+02  0.00000000000E+00 0.  1.
          1   -1    0    0  501    0  0.00000000000E+00 -0.00000000000E+00 -0.15426650582E+04  0.15426650582E+04  0.00000000000E+00 0. -1.
         25    2    1    2    0    0  0.75174732059E+02 -0.92451142956E+02 -0.79953810160E+03  0.81798951123E+03  0.12508881005E+03 0.  0.
         23    2    1    2    0    0 -0.75174732059E+02  0.92451142956E+02 -0.72624942276E+03  0.74155308083E+03  0.90908159500E+02 0.  0.
          5    1    3    3  502    0  0.76542460917E+02 -0.71519588668E+01 -0.24212897824E+03  0.25407442481E+03  0.41800000000E+01 0.  1.
         -5    1    3    3    0  502 -0.13677288586E+01 -0.85299184089E+02 -0.55740912336E+03  0.56391508642E+03  0.41800000000E+01 0.  1.
        -11    1    4    4    0    0 -0.77698364070E+02  0.25260644374E+02 -0.35675995176E+03  0.36599562718E+03  0.00000000000E+00 0.  1.
         11    1    4    4    0    0  0.25236320114E+01  0.67190498582E+02 -0.36948947100E+03  0.37555745365E+03  0.00000000000E+00 0. -1.
</event>
<event>
 8    1  0.7114239E-009  0.8703734E+02  0.7561462E-02  0.1310189E+00
         -2   -1    0    0    0  501 -0.00000000000E+00  0.00000000000E+00  0.18616593071E+03  0.18616593071E+03  0.00000000000E+00 0. -1.
          2   -1    0    0  501    0  0.00000000000E+00 -0.00000000000E+00 -0.11922800539E+03  0.11922800539E+03  0.00000000000E+00 0.  1.
         25    2    1    2    0    0  0.32343519246E+02 -0.33047443912E+02  0.12991093515E+03  0.18617955796E+03  0.12509092670E+03 0.  0.
         23    2    1    2    0    0 -0.32343519246E+02  0.33047443912E+02 -0.62973009835E+02  0.11921437814E+03  0.90045717286E+02 0.  0.
          5    1    3    3  502    0  0.28360781948E+00  0.16529763466E+02 -0.19242824711E+02  0.25711324674E+02  0.41800000000E+01 0.  1.
         -5    1    3    3    0  502  0.32059911427E+02 -0.49577207377E+02  0.14915375986E+03  0.16046823328E+03  0.41800000000E+01 0.  1.
        -11    1    4    4    0    0 -0.40396047504E+02 -0.19371393303E+02 -0.13763956520E+02  0.46867238361E+02  0.00000000000E+00 0.  1.
         11    1    4    4    0    0  0.80525282583E+01  0.52418837214E+02 -0.49209053315E+02  0.72347139780E+02  0.00000000000E+00 0. -1.
</event>
<event>
 8    1  0.7114239E-009  0.1419538E+03  0.7561462E-02  0.1210724E+00
          2   -1    0    0  501    0  0.00000000000E+00  0.00000000000E+00  0.47137478145E+03  0.47137478145E+03  0.00000000000E+00 0. -1.
         -2   -1    0    0    0  501 -0.00000000000E+00 -0.00000000000E+00 -0.77363445766E+02  0.77363445766E+02  0.00000000000E+00 0.  1.
         25    2    1    2    0    0 -0.11057779599E+03 -0.34903975947E+02  0.56011396106E+02  0.17952675260E+03  0.12508733710E+03 0.  0.
         23    2    1    2    0    0  0.11057779599E+03  0.34903975947E+02  0.33799993958E+03  0.36921147462E+03  0.92883891661E+02 0.  0.
          5    1    3    3  502    0 -0.18500792806E+01  0.17408070678E+02 -0.27401598065E+02  0.32783893829E+02  0.41800000000E+01 0. -1.
         -5    1    3    3    0  502 -0.10872771671E+03 -0.52312046625E+02  0.83412994171E+02  0.14674285877E+03  0.41800000000E+01 0. -1.
        -11    1    4    4    0    0  0.17549815389E+02  0.48117054341E+02  0.15904668813E+03  0.16709008332E+03  0.00000000000E+00 0.  1.
         11    1    4    4    0    0  0.93027980605E+02 -0.13213078394E+02  0.17895325145E+03  0.20212139130E+03  0.00000000000E+00 0. -1.
</event>
<event>
 8    1  0.7114239E-009  0.1026206E+03  0.7561462E-02  0.1274880E+00
         -2   -1    0    0    0  501 -0.00000000000E+00  0.00000000000E+00  0.18425796224E+03  0.18425796224E+03  0.00000000000E+00 0.  1.
          2   -1    0    0  501    0  0.00000000000E+00 -0.00000000000E+00 -0.80307834968E+02  0.80307834968E+02  0.00000000000E+00 0. -1.
         25    2    1    2    0    0 -0.54835827959E+02 -0.17401076806E+02  0.44564813379E+02  0.14471850677E+03  0.12509059960E+03 0.  0.
         23    2    1    2    0    0  0.54835827959E+02  0.17401076806E+02  0.59385313894E+02  0.11984729044E+03  0.86758238897E+02 0.  0.
          5    1    3    3  502    0 -0.76427181126E+02  0.13167644112E+01 -0.15468658439E+02  0.78099933914E+02  0.41800000000E+01 0.  1.
         -5    1    3    3    0  502  0.21591353167E+02 -0.18717841217E+02  0.60033471818E+02  0.66618572860E+02  0.41800000000E+01 0.  1.
        -11    1    4    4    0    0  0.62819016280E+01  0.44000423638E+02  0.43640111441E+02  0.62289316059E+02  0.00000000000E+00 0.  1.
         11    1    4    4    0    0  0.48553926331E+02 -0.26599346833E+02  0.15745202453E+02  0.57557974377E+02  0.00000000000E+00 0. -1.
</event>
<event>
 8    1  0.7114239E-009  0.8945264E+02  0.7561462E-02  0.1304183E+00
          1   -1    0    0  501    0  0.00000000000E+00  0.00000000000E+00  0.42319709900E+03  0.42319709900E+03  0.00000000000E+00 0. -1.
         -1   -1    0    0    0  501 -0.00000000000E+00 -0.00000000000E+00 -0.31613557820E+02  0.31613557820E+02  0.00000000000E+00 0.  1.
         25    2    1    2    0    0 -0.23574016096E+02 -0.32120658166E+02  0.24964387518E+03  0.28205937855E+03  0.12509179709E+03 0.  0.
         23    2    1    2    0    0  0.23574016096E+02  0.32120658166E+02  0.14193966600E+03  0.17275127827E+03  0.90048122930E+02 0.  0.
          5    1    3    3  502    0 -0.50654872168E+02 -0.37013175756E+02  0.49589818472E+02  0.80078172744E+02  0.41800000000E+01 0.  1.
         -5    1    3    3    0  502  0.27080856072E+02  0.48925175903E+01  0.20005405671E+03  0.20198120581E+03  0.41800000000E+01 0.  1.
        -11    1    4    4    0    0 -0.16395092378E+02  0.43623932366E+02  0.11256999922E+03  0.12183534485E+03  0.00000000000E+00 0. -1.
         11    1    4    4    0    0  0.39969108474E+02 -0.11503274200E+02  0.29369666778E+02  0.50915933421E+02  0.00000000000E+00 0.  1.
</event>
<event>
 8    1  0.7114239E-009  0.1363686E+03  0.7561462E-02  0.1218301E+00
         -2   -1    0    0    0  501 -0.00000000000E+00  0.00000000000E+00  0.36429485011E+02  0.36429485011E+02  0.00000000000E+00 0.  1.
          2   -1    0    0  501    0  0.00000000000E+00 -0.00000000000E+00 -0.65681368793E+03  0.65681368793E+03  0.00000000000E+00 0. -1.
         25    2    1    2    0    0 -0.87816600297E+02  0.40211741620E+02 -0.21652475189E+03  0.26806475178E+03  0.12508798308E+03 0.  0.
         23    2    1    2    0    0  0.87816600297E+02 -0.40211741620E+02 -0.40385945104E+03  0.42517842117E+03  0.91353676370E+02 0.  0.
          5    1    3    3  502    0 -0.10562500801E+03  0.67196876106E+02 -0.16650531801E+03  0.20835919898E+03  0.41800000000E+01 0.  1.
         -5    1    3    3    0  502  0.17808407713E+02 -0.26985134486E+02 -0.50019433879E+02  0.59705552792E+02  0.41800000000E+01 0.  1.
        -11    1    4    4    0    0  0.46163031621E+02  0.12375636065E+02 -0.70744094383E+02  0.85375106129E+02  0.00000000000E+00 0.  1.
         11    1    4    4    0    0  0.41653568676E+02 -0.52587377686E+02 -0.33311535665E+03  0.33980331504E+03  0.00000000000E+00 0. -1.
</event>
<event>
 8    1  0.7114239E-009  0.8069692E+02  0.7561462E-02  0.1327085E+00
         -1   -1    0    0    0  501 -0.00000000000E+00  0.00000000000E+00  0.47415467750E+02  0.47415467750E+02  0.00000000000E+00 0.  1.
          1   -1    0    0  501    0  0.00000000000E+00 -0.00000000000E+00 -0.30742990716E+03  0.30742990716E+03  0.00000000000E+00 0. -1.
         25    2    1    2    0    0 -0.26786283961E+02 -0.24681255358E+02 -0.19969247688E+03  0.23843535011E+03  0.12509061310E+03 0.  0.
         23    2    1    2    0    0  0.26786283961E+02  0.24681255358E+02 -0.60321962529E+02  0.11641002480E+03  0.92660052533E+02 0.  0.
          5    1    3    3  502    0  0.14274908328E+02 -0.14293485483E+02 -0.19446372414E+03  0.19555482388E+03  0.41800000000E+01 0.  1.
         -5    1    3    3    0  502 -0.41061192289E+02 -0.10387769875E+02 -0.52287527406E+01  0.42880526237E+02  0.41800000000E+01 0.  1.
        -11    1    4    4    0    0  0.60147241268E+02  0.73043013587E+01 -0.46345599975E+02  0.76282095459E+02  0.00000000000E+00 0.  1.
         11    1    4    4    0    0 -0.33360957307E+02  0.17376953999E+02 -0.13976362554E+02  0.40127929338E+02  0.00000000000E+00 0. -1.
</event>
<event>
 8    1  0.7114239E-009  0.1950278E+03  0.7561462E-02  0.1154003E+00
         -1   -1    0    0    0  501 -0.00000000000E+00  0.00000000000E+00  0.27526291709E+03  0.27526291709E+03  0.00000000000E+00 0.  1.
          1   -1    0    0  501    0  0.00000000000E+00 -0.00000000000E+00 -0.14868056613E+03  0.14868056613E+03  0.00000000000E+00 0. -1.
         25    2    1    2    0    0 -0.15310461236E+03  0.70688201569E+02  0.78541435772E+02  0.22417629797E+03  0.12509361004E+03 0.  0.
         23    2    1    2    0    0  0.15310461236E+03 -0.70688201569E+02  0.48040915191E+02  0.19976718525E+03  0.95713920627E+02 0.  0.
          5    1    3    3  502    0  0.12867036097E+02  0.37586857510E+02  0.78176795284E+01  0.40705294356E+02  0.41800000000E+01 0.  1.
         -5    1    3    3    0  502 -0.16597164846E+03  0.33101344059E+02  0.70723756244E+02  0.18347100362E+03  0.41800000000E+01 0.  1.
        -11    1    4    4    0    0 -0.35961780838E+01 -0.13556510466E+02 -0.15844231496E+02  0.21160131014E+02  0.00000000000E+00 0. -1.
         11    1    4    4    0    0  0.15670079045E+03 -0.57131691103E+02  0.63885146687E+02  0.17860705423E+03  0.00000000000E+00 0.  1.
</event>
<event>
 8    1  0.7114239E-009  0.1138374E+03  0.7561462E-02  0.1253624E+00
          2   -1    0    0  501    0  0.00000000000E+00  0.00000000000E+00  0.28502057866E+03  0.28502057866E+03  0.00000000000E+00 0. -1.
         -2   -1    0    0    0  501 -0.00000000000E+00 -0.00000000000E+00 -0.65359257205E+02  0.65359257205E+02  0.00000000000E+00 0.  1.
         25    2    1    2    0    0  0.73846040960E+02 -0.26444534980E+02  0.87008851266E+02  0.17137693392E+03  0.12508781750E+03 0.  0.
         23    2    1    2    0    0 -0.73846040960E+02  0.26444534980E+02  0.13265247019E+03  0.17900290195E+03  0.91064866231E+02 0.  0.
          5    1    3    3  502    0  0.79882134470E+02 -0.64783091442E+02  0.40393951381E+02  0.11057643534E+03  0.41800000000E+01 0.  1.
         -5    1    3    3    0  502 -0.60360935094E+01  0.38338556462E+02  0.46614899885E+02  0.60800498581E+02  0.41800000000E+01 0.  1.
        -11    1    4    4    0    0 -0.19305196086E+02  0.24416723383E+02  0.11863864067E+03  0.12265396054E+03  0.00000000000E+00 0. -1.
         11    1    4    4    0    0 -0.54540844874E+02  0.20278115969E+01  0.14013829520E+02  0.56348941403E+02  0.00000000000E+00 0.  1.
</event>
<event>
 8    1  0.7114239E-009  0.9022251E+02  0.7561462E-02  0.1302314E+00
         -1   -1    0    0    0  501 -0.00000000000E+00  0.00000000000E+00  0.21984519243E+02  0.21984519243E+02  0.00000000000E+00 0.  1.
          1   -1    0    0  501    0  0.00000000000E+00 -0.00000000000E+00 -0.62554642991E+03  0.62554642991E+03  0.00000000000E+00 0. -1.
         25    2    1    2    0    0  0.73135308046E+01 -0.18402237750E+02 -0.43838610362E+03  0.45631416326E+03  0.12509240446E+03 0.  0.
         23    2    1    2    0    0 -0.73135308046E+01  0.18402237750E+02 -0.16517580705E+03  0.19121678590E+03  0.94279806367E+02 0.  0.
          5    1    3    3  502    0  0.15577938515E+02 -0.50747968655E+02 -0.40645637537E+03  0.40992961099E+03  0.41800000000E+01 0.  1.
         -5    1    3    3    0  502 -0.82644077104E+01  0.32345730905E+02 -0.31929728258E+02  0.46384552269E+02  0.41800000000E+01 0.  1.
        -11    1    4    4    0    0  0.31704684530E+02 -0.21054638504E+02 -0.90529230384E+02  0.98204003878E+02  0.00000000000E+00 0. -1.
         11    1    4    4    0    0 -0.39018215335E+02  0.39456876254E+02 -0.74646576662E+02  0.93012782019E+02  0.00000000000E+00 0.  1.
</event>
<event>
 8    1  0.7114239E-009  0.1742309E+03  0.7561462E-02  0.1173506E+00
         -2   -1    0    0    0  501 -0.00000000000E+00  0.00000000000E+00  0.23025741866E+03  0.23025741866E+03  0.00000000000E+00 0.  1.
          2   -1    0    0  501    0  0.00000000000E+00 -0.00000000000E+00 -0.18268224166E+03  0.18268224166E+03  0.00000000000E+00 0. -1.
         25    2    1    2    0    0  0.13785925522E+03  0.97397887239E+02 -0.19716014061E+02  0.21101675263E+03  0.12509127065E+03 0.  0.
         23    2    1    2    0    0 -0.13785925522E+03 -0.97397887239E+02  0.67291191062E+02  0.20192290768E+03  0.88052447803E+02 0.  0.
          5    1    3    3  502    0  0.42102494321E+02  0.40845848517E+02 -0.67829528785E+02  0.89773719675E+02  0.41800000000E+01 0. -1.
         -5    1    3    3    0  502  0.95756760898E+02  0.56552038722E+02  0.48113514724E+02  0.12124303296E+03  0.41800000000E+01 0. -1.
        -11    1    4    4    0    0 -0.14789667531E+02 -0.39848938108E+02 -0.12575568791E+02  0.44326257054E+02  0.00000000000E+00 0. -1.
         11    1    4    4    0    0 -0.12306958769E+03 -0.57548949130E+02  0.79866759853E+02  0.15759665063E+03  0.00000000000E+00 0.  1.
</event>
<event>
 8    1  0.7114239E-009  0.1156756E+03  0.7561462E-02  0.1250406E+00
          2   -1    0    0  501    0  0.00000000000E+00  0.00000000000E+00  0.26764207117E+03  0.26764207117E+03  0.00000000000E+00 0.  1.
         -2   -1    0    0    0  501 -0.00000000000E+00 -0.00000000000E+00 -0.57913557391E+02  0.57913557391E+02  0.00000000000E+00 0. -1.
         25    2    1    2    0    0  0.47566964973E+02 -0.51371389380E+02  0.11363953761E+03  0.18292894779E+03  0.12508964637E+03 0.  0.
         23    2    1    2    0    0 -0.47566964973E+02  0.51371389380E+02  0.96088976168E+02  0.14262668077E+03  0.78788596393E+02 0.  0.
          5    1    3    3  502    0 -0.30599322822E+02 -0.34766369001E+02  0.86899213593E+02  0.98559447511E+02  0.41800000000E+01 0.  1.
         -5    1    3    3    0  502  0.78166287795E+02 -0.16605020379E+02  0.26740324017E+02  0.84369500283E+02  0.41800000000E+01 0.  1.
        -11    1    4    4    0    0 -0.67690196240E+02  0.26155639580E+02  0.59463987493E+02  0.93819219552E+02  0.00000000000E+00 0. -1.
         11    1    4    4    0    0  0.20123231267E+02  0.25215749800E+02  0.36624988675E+02  0.48807461213E+02  0.00000000000E+00 0.  1.
</event>
<event>
 8    1  0.7114239E-009  0.9984030E+02  0.7561462E-02  0.1280632E+00
          1   -1    0    0  501    0  0.00000000000E+00  0.00000000000E+00  0.90846217257E+02  0.90846217257E+02  0.00000000000E+00 0. -1.
         -1   -1    0    0    0  501 -0.00000000000E+00 -0.00000000000E+00 -0.15588735888E+03  0.15588735888E+03  0.00000000000E+00 0.  1.
         25    2    1    2    0    0  0.14261397139E+02  0.34544128618E+02 -0.76438340896E+01  0.13077506822E+03  0.12508799302E+03 0.  0.
         23    2    1    2    0    0 -0.14261397139E+02 -0.34544128618E+02 -0.57397307536E+02  0.11595850792E+03  0.93569441464E+02 0.  0.
          5    1    3    3  502    0  0.53533993352E+02  0.46423551836E+02 -0.37100552338E+02  0.80093432896E+02  0.41800000000E+01 0.  1.
         -5    1    3    3    0  502 -0.39272596213E+02 -0.11879423218E+02  0.29456718248E+02  0.50681635326E+02  0.41800000000E+01 0.  1.
        -11    1    4    4    0    0 -0.29747339643E+02  0.16567467943E+02  0.43420027269E+01  0.34325474470E+02  0.00000000000E+00 0. -1.
         11    1    4    4    0    0  0.15485942504E+02 -0.51111596561E+02 -0.61739310263E+02  0.81633033449E+02  0.00000000000E+00 0.  1.
</event>
<event>
 8    1  0.7114239E-009  0.9230476E+02  0.7561462E-02  0.1297364E+00
         -1   -1    0    0    0  501 -0.00000000000E+00  0.00000000000E+00  0.26485553024E+02  0.26485553024E+02  0.00000000000E+00 0.  1.
          1   -1    0    0  501    0  0.00000000000E+00 -0.00000000000E+00 -0.50845044670E+03  0.50845044670E+03  0.00000000000E+00 0. -1.
         25    2    1    2    0    0 -0.29530578362E+01  0.39669566561E+02 -0.24630713596E+03  0.27910154279E+03  0.12509224957E+03 0.  0.
         23    2    1    2    0    0  0.29530578362E+01 -0.39669566561E+02 -0.23565775772E+03  0.25583445694E+03  0.91292362878E+02 0.  0.
          5    1    3    3  502    0  0.62272554870E+01  0.64988073528E+02 -0.53872013005E+02  0.84746059478E+02  0.41800000000E+01 0. -1.
         -5    1    3    3    0  502 -0.91803133232E+01 -0.25318506967E+02 -0.19243512295E+03  0.19435548331E+03  0.41800000000E+01 0. -1.
        -11    1    4    4    0    0  0.42906250138E+02 -0.22529514644E+02 -0.74181809119E+02  0.88608499227E+02  0.00000000000E+00 0.  1.
         11    1    4    4    0    0 -0.39953192302E+02 -0.17140051917E+02 -0.16147594860E+03  0.16722595771E+03  0.00000000000E+00 0. -1.
</event>
<event>
 8    1  0.7114239E-009  0.1235084E+03  0.7561462E-02  0.1237419E+00
         -1   -1    0    0    0  501 -0.00000000000E+00  0.00000000000E+00  0.56031560593E+02  0.56031560593E+02  0.00000000000E+00 0.  1.
          1   -1    0    0  501    0  0.00000000000E+00 -0.00000000000E+00 -0.36291097454E+03  0.36291097454E+03  0.00000000000E+00 0. -1.
         25    2    1    2    0    0 -0.42777999901E+02  0.65336356162E+02 -0.90493425447E+02  0.17302181056E+03  0.12509472478E+03 0.  0.
         23    2    1    2    0    0  0.42777999901E+02 -0.65336356162E+02 -0.21638598850E+03  0.24592072457E+03  0.86921286490E+02 0.  0.
          5    1    3    3  502    0 -0.31390192747E+02  0.98857896852E+02 -0.89969678958E+02  0.13736900488E+03  0.41800000000E+01 0.  1.
         -5    1    3    3    0  502 -0.11387807154E+02 -0.33521540689E+02 -0.52374648860E+00  0.35652805673E+02  0.41800000000E+01 0.  1.
        -11    1    4    4    0    0 -0.74533938559E+01 -0.55970577327E+02 -0.16076148269E+03  0.17038929814E+03  0.00000000000E+00 0. -1.
         11    1    4    4    0    0  0.50231393757E+02 -0.93657788352E+01 -0.55624505811E+02  0.75531426431E+02  0.00000000000E+00 0.  1.
</event>
<event>
 8    1  0.7114239E-009  0.1068972E+03  0.7561462E-02  0.1266426E+00
          1   -1    0    0  501    0  0.00000000000E+00  0.00000000000E+00  0.52447972283E+02  0.52447972283E+02  0.00000000000E+00 0. -1.
         -1   -1    0    0    0  501 -0.00000000000E+00 -0.00000000000E+00 -0.35143735018E+03  0.35143735018E+03  0.00000000000E+00 0.  1.
         25    2    1    2    0    0 -0.25537617787E+02  0.53764077772E+02 -0.24475157068E+03  0.28123611519E+03  0.12509066774E+03 0.  0.
         23    2    1    2    0    0  0.25537617787E+02 -0.53764077772E+02 -0.54237807220E+02  0.12264920728E+03  0.92511309215E+02 0.  0.
          5    1    3    3  502    0 -0.15243785227E+01 -0.33561521934E+02 -0.13347133532E+03  0.13769810905E+03  0.41800000000E+01 0.  1.
         -5    1    3    3    0  502 -0.24013239264E+02  0.87325599706E+02 -0.11128023536E+03  0.14353800614E+03  0.41800000000E+01 0.  1.
        -11    1    4    4    0    0  0.39926750433E+02 -0.72405887537E+01 -0.61226513962E+02  0.73452416826E+02  0.00000000000E+00 0.  1.
         11    1    4    4    0    0 -0.14389132647E+02 -0.46523489018E+02  0.69887067419E+01  0.49196790451E+02  0.00000000000E+00 0. -1.
</event>
<event>
 8    1  0.7114239E-009  0.1079793E+03  0.7561462E-02  0.1264358E+00
          2   -1    0    0  501    0  0.00000000000E+00  0.00000000000E+00  0.12111386213E+04  0.12111386213E+04  0.00000000000E+00 0.  1.
         -2   -1    0    0    0  501 -0.00000000000E+00 -0.00000000000E+00 -0.11014441059E+02  0.11014441059E+02  0.00000000000E+00 0. -1.
         25    2    1    2    0    0 -0.58418792909E+01 -0.60145141575E+01  0.85046092962E+03  0.85965238411E+03  0.12509247286E+03 0.  0.
         23    2    1    2    0    0  0.58418792909E+01  0.60145141575E+01  0.34966325059E+03  0.36250067821E+03  0.95247314705E+02 0.  0.
          5    1    3    3  502    0 -0.33036375372E+01  0.57771793379E+02  0.50463257035E+03  0.50795668869E+03  0.41800000000E+01 0.  1.
         -5    1    3    3    0  502 -0.25382417537E+01 -0.63786307536E+02  0.34582835927E+03  0.35169569542E+03  0.41800000000E+01 0.  1.
        -11    1    4    4    0    0  0.24800993514E+02 -0.38379387150E+02  0.13671123243E+03  0.14414585568E+03  0.00000000000E+00 0. -1.
         11    1    4    4    0    0 -0.18959114223E+02  0.44393901308E+02  0.21295201816E+03  0.21835482253E+03  0.00000000000E+00 0.  1.
</event>
<event>
 8    1  0.7114239E-009  0.1111527E+03  0.7561462E-02  0.1258450E+00
         -2   -1    0    0    0  501 -0.00000000000E+00  0.00000000000E+00  0.23942548965E+02  0.23942548965E+02  0.00000000000E+00 0.  1.
          2   -1    0    0  501    0  0.00000000000E+00 -0.00000000000E+00 -0.61665569069E+03  0.61665569069E+03  0.00000000000E+00 0. -1.
         25    2    1    2    0    0 -0.48601359622E+02 -0.21087911896E+02 -0.37685566283E+03  0.40059266138E+03  0.12508995787E+03 0.  0.
         23    2    1    2    0    0  0.48601359622E+02  0.21087911896E+02 -0.21585747890E+03  0.24000557828E+03  0.90561770203E+02 0.  0.
          5    1    3    3  502    0  0.15194420809E+02  0.40547950396E+02 -0.17004696675E+03  0.17552336029E+03  0.41800000000E+01 0.  1.
         -5    1    3    3    0  502 -0.63795780431E+02 -0.61635862292E+02 -0.20680869607E+03  0.22506930109E+03  0.41800000000E+01 0.  1.
        -11    1    4    4    0    0  0.14607479511E+02 -0.27241139031E+02 -0.14248560991E+03  0.14579988732E+03  0.00000000000E+00 0. -1.
         11    1    4    4    0    0  0.33993880111E+02  0.48329050927E+02 -0.73371868995E+02  0.94205690955E+02  0.00000000000E+00 0.  1.
</event>
<event>
 8    1  0.7114239E-009  0.1930942E+03  0.7561462E-02  0.1155700E+00
          2   -1    0    0  501    0  0.00000000000E+00  0.00000000000E+00  0.55124512353E+03  0.55124512353E+03  0.00000000000E+00 0. -1.
         -2   -1    0    0    0  501 -0.00000000000E+00 -0.00000000000E+00 -0.13130117876E+03  0.13130117876E+03  0.00000000000E+00 0.  1.
         25    2    1    2    0    0  0.13606299858E+03 -0.10321929006E+03 -0.95262964805E+01  0.21190938496E+03  0.12508987044E+03 0.  0.
         23    2    1    2    0    0 -0.13606299858E+03  0.10321929006E+03  0.42947024125E+03  0.47063691733E+03  0.88809112200E+02 0.  0.
          5    1    3    3  502    0  0.23776406232E+01 -0.54649336723E+02  0.32211451251E+02  0.63618025518E+02  0.41800000000E+01 0. -1.
         -5    1    3    3    0  502  0.13368535795E+03 -0.48569953341E+02 -0.41737747731E+02  0.14829135944E+03  0.41800000000E+01 0. -1.
        -11    1    4    4    0    0 -0.10841549445E+03  0.32627732504E+02  0.29930548250E+03  0.32000353158E+03  0.00000000000E+00 0. -1.
         11    1    4    4    0    0 -0.27647504124E+02  0.70591557560E+02  0.13016475875E+03  0.15063338575E+03  0.00000000000E+00 0.  1.
</event>
<event>
 8    1  0.7114239E-009  0.5029719E+02  0.7561462E-02  0.1443745E+00
          1   -1    0    0  501    0  0.00000000000E+00  0.00000000000E+00  0.24536087519E+03  0.24536087519E+03  0.00000000000E+00 0. -1.
         -1   -1    0    0    0  501 -0.00000000000E+00 -0.00000000000E+00 -0.57631792914E+02  0.57631792914E+02  0.00000000000E+00 0.  1.
         25    2    1    2    0    0  0.27330549521E+01 -0.43580331163E+02  0.13505574807E+03  0.18919655085E+03  0.12509422414E+03 0.  0.
         23    2    1    2    0    0 -0.27330549521E+01  0.43580331163E+02  0.52673334212E+02  0.11379611726E+03  0.90930530146E+02 0.  0.
          5    1    3    3  502    0  0.90417745793E+01 -0.41759055959E+02  0.15864767718E+03  0.16435367449E+03  0.41800000000E+01 0. -1.
         -5    1    3    3    0  502 -0.63087196271E+01 -0.18212752043E+01 -0.23591929113E+02  0.24842876363E+02  0.41800000000E+01 0. -1.
        -11    1    4    4    0    0 -0.12605340469E+02  0.14731212347E+02  0.74057560409E+02  0.76553415856E+02  0.00000000000E+00 0. -1.
         11    1    4    4    0    0  0.98722855166E+01  0.28849118816E+02 -0.21384226196E+02  0.37242701403E+02  0.00000000000E+00 0.  1.
</event>
<event>
 8    1  0.7114239E-009  0.2945547E+03  0.7561462E-02  0.1087995E+00
          2   -1    0    0  501    0  0.00000000000E+00  0.00000000000E+00  0.12450194277E+04  0.12450194277E+04  0.00000000000E+00 0. -1.
         -2   -1    0    0    0  501 -0.00000000000E+00 -0.00000000000E+00 -0.11368406137E+03  0.11368406137E+03  0.00000000000E+00 0.  1.
         25    2    1    2    0    0  0.14743617619E+03 -0.23386849602E+03  0.15727504156E+03  0.34178248056E+03  0.12509166973E+03 0.  0.
         23    2    1    2    0    0 -0.14743617619E+03  0.23386849602E+03  0.97406032473E+03  0.10169210085E+04  0.94355295442E+02 0.  0.
          5    1    3    3  502    0 -0.16617569207E+02 -0.16389828933E+01  0.84641118280E+00  0.17234229985E+02  0.41800000000E+01 0.  1.
         -5    1    3    3    0  502  0.16405374540E+03 -0.23222951313E+03  0.15642863038E+03  0.32454825057E+03  0.41800000000E+01 0.  1.
        -11    1    4    4    0    0 -0.81642350588E+02  0.59090980604E+02  0.26017536876E+03  0.27901333285E+03  0.00000000000E+00 0.  1.
         11    1    4    4    0    0 -0.65793825605E+02  0.17477751542E+03  0.71388495597E+03  0.73790767562E+03  0.00000000000E+00 0. -1.
</event>
<event>
 8    1  0.7114239E-009  0.9056847E+02  0.7561462E-02  0.1301481E+00
         -2   -1    0    0    0  501 -0.00000000000E+00  0.00000000000E+00  0.46466960346E+02  0.46466960346E+02  0.00000000000E+00 0.  1.
          2   -1    0    0  501    0  0.00000000000E+00 -0.00000000000E+00 -0.40553065854E+03  0.40553065854E+03  0.00000000000E+00 0. -1.
         25    2    1    2    0    0 -0.15302143898E+02  0.56374341970E+02 -0.97450843504E+02  0.16899014151E+03  0.12509507979E+03 0.  0.
         23    2    1    2    0    0  0.15302143898E+02 -0.56374341970E+02 -0.26161285469E+03  0.28300747737E+03  0.90772928062E+02 0.  0.
          5    1    3    3  502    0  0.41081842043E+02  0.30424370480E+02  0.23976822551E+01  0.51347651795E+02  0.41800000000E+01 0.  1.
         -5    1    3    3    0  502 -0.56383985941E+02  0.25949971491E+02 -0.99848525759E+02  0.11764248972E+03  0.41800000000E+01 0.  1.
        -11    1    4    4    0    0  0.19824498491E+02 -0.12300507517E+02 -0.67006853835E+01  0.24273697909E+02  0.00000000000E+00 0.  1.
         11    1    4    4    0    0 -0.45223545927E+01 -0.44073834454E+02 -0.25491216931E+03  0.25873377946E+03  0.00000000000E+00 0. -1.
</event>
<event>
 8    1  0.7114239E-009  0.6528649E+02  0.7561462E-02  0.1376897E+00
          1   -1    0    0  501    0  0.00000000000E+00  0.00000000000E+00  0.63932416015E+02  0.63932416015E+02  0.00000000000E+00 0. -1.
         -1   -1    0    0    0  501 -0.00000000000E+00 -0.00000000000E+00 -0.21600896799E+03  0.21600896799E+03  0.00000000000E+00 0.  1.
         25    2    1    2    0    0  0.98126895877E+01  0.26929980007E+02 -0.67220673022E+02  0.14487771173E+03  0.12509764097E+03 0.  0.
         23    2    1    2    0    0 -0.98126895877E+01 -0.26929980007E+02 -0.84855878949E+02  0.13506367227E+03  0.10109482021E+03 0.  0.
          5    1    3    3  502    0  0.22509210146E+02  0.33050309975E+02  0.27701050441E+02  0.48824257561E+02  0.41800000000E+01 0. -1.
         -5    1    3    3    0  502 -0.12696520558E+02 -0.61203299678E+01 -0.94921723463E+02  0.96053454172E+02  0.41800000000E+01 0. -1.
        -11    1    4    4    0    0  0.26749929228E+02 -0.28477716100E+02  0.36985121981E+01  0.39245611480E+02  0.00000000000E+00 0. -1.
         11    1    4    4    0    0 -0.36562618816E+02  0.15477360932E+01 -0.88554391147E+02  0.95818060788E+02  0.00000000000E+00 0.  1.
</event>
<event>
 8    1  0.7114239E-009  0.1123274E+03  0.7561462E-02  0.1256320E+00
         -2   -1    0    0    0  501 -0.00000000000E+00  0.00000000000E+00  0.66114599872E+02  0.66114599872E+02  0.00000000000E+00 0. -1.
          2   -1    0    0  501    0  0.00000000000E+00 -0.00000000000E+00 -0.20971814823E+03  0.20971814823E+03  0.00000000000E+00 0.  1.
         25    2    1    2    0    0 -0.34647251880E+02  0.82039042628E+01 -0.12093983301E+03  0.17760175936E+03  0.12509278801E+03 0.  0.
         23    2    1    2    0    0  0.34647251880E+02 -0.82039042628E+01 -0.22663715352E+02  0.98230988743E+02  0.88701448962E+02 0.  0.
          5    1    3    3  502    0 -0.62693289662E+02 -0.39137337544E+02 -0.79218049913E+02  0.10842117686E+03  0.41800000000E+01 0. -1.
         -5    1    3    3    0  502  0.28046037782E+02  0.47341241806E+02 -0.41721783093E+02  0.69180582503E+02  0.41800000000E+01 0. -1.
        -11    1    4    4    0    0 -0.23424702897E+02 -0.25721808740E+02 -0.57633536173E+01  0.35263924847E+02  0.00000000000E+00 0.  1.
         11    1    4    4    0    0  0.58071954777E+02  0.17517904478E+02 -0.16900361735E+02  0.62967063896E+02  0.00000000000E+00 0. -1.
</event>
<event>
 8    1  0.7114239E-009  0.1044038E+03  0.7561462E-02  0.1271299E+00
         -1   -1    0    0    0  501 -0.00000000000E+00  0.00000000000E+00  0.12018263251E+03  0.12018263251E+03  0.00000000000E+00 0.  1.
          1   -1    0    0  501    0  0.00000000000E+00 -0.00000000000E+00 -0.27764230287E+03  0.27764230287E+03  0.00000000000E+00 0. -1.
         25    2    1    2    0    0 -0.19670648754E+02  0.35860347873E+02  0.70262993569E+02  0.14918828269E+03  0.12508939385E+03 0.  0.
         23    2    1    2    0    0  0.19670648754E+02 -0.35860347873E+02 -0.22772266393E+03  0.24863665270E+03  0.91047649199E+02 0.  0.
          5    1    3    3  502    0  0.24886368129E+02  0.56132190379E+02 -0.22664139136E+01  0.61585413430E+02  0.41800000000E+01 0.  1.
         -5    1    3    3    0  502 -0.44557016883E+02 -0.20271842506E+02  0.72529407482E+02  0.87602869256E+02  0.41800000000E+01 0.  1.
        -11    1    4    4    0    0  0.37628139943E+02  0.17743805652E+02 -0.74667305242E+02  0.85474709866E+02  0.00000000000E+00 0.  1.
         11    1    4    4    0    0 -0.17957491189E+02 -0.53604153525E+02 -0.15305535869E+03  0.16316194283E+03  0.00000000000E+00 0. -1.
</event>
<event>
 8    1  0.7114239E-009  0.1013857E+03  0.7561462E-02  0.1277409E+00
          2   -1    0    0  501    0  0.00000000000E+00  0.00000000000E+00  0.44635480817E+03  0.44635480817E+03  0.00000000000E+00 0.  1.
         -2   -1    0    0    0  501 -0.00000000000E+00 -0.00000000000E+00 -0.29811172400E+02  0.29811172400E+02  0.00000000000E+00 0. -1.
         25    2    1    2    0    0 -0.86110292318E+01  0.15623207339E+02  0.31063831768E+03  0.33535330033E+03  0.12508971661E+03 0.  0.
         23    2    1    2    0    0  0.86110292318E+01 -0.15623207339E+02  0.10590531809E+03  0.14081268024E+03  0.91071620628E+02 0.  0.
          5    1    3    3  502    0 -0.59577394913E+02  0.17903780133E+02  0.24094422687E+03  0.24888070273E+03  0.41800000000E+01 0.  1.
         -5    1    3    3    0  502  0.50966365681E+02 -0.22805727940E+01  0.69694090809E+02  0.86472597606E+02  0.41800000000E+01 0.  1.
        -11    1    4    4    0    0  0.42337295288E+02  0.13744943425E+02  0.72175963997E+02  0.84798230057E+02  0.00000000000E+00 0.  1.
         11    1    4    4    0    0 -0.33726266056E+02 -0.29368150763E+02  0.33729354091E+02  0.56014450178E+02  0.00000000000E+00 0. -1.
</event>
<event>
 8    1  0.7114239E-009  0.1219933E+03  0.7561462E-02  0.1239844E+00
          2   -1    0    0  501    0  0.00000000000E+00  0.00000000000E+00  0.11141953401E+04  0.11141953401E+04  0.00000000000E+00 0. -1.
         -2   -1    0    0    0  501 -0.00000000000E+00 -0.00000000000E+00 -0.14164441706E+02  0.14164441706E+02  0.00000000000E+00 0.  1.
         25    2    1    2    0    0  0.12770081953E+02 -0.62854247907E+02  0.60177716777E+03  0.61797862725E+03  0.12509233638E+03 0.  0.
         23    2    1    2    0    0 -0.12770081953E+02  0.62854247907E+02  0.49825373063E+03  0.51038115456E+03  0.90102227317E+02 0.  0.
          5    1    3    3  502    0  0.63918810183E+02 -0.21784275826E+02  0.20727003502E+03  0.21803327450E+03  0.41800000000E+01 0.  1.
         -5    1    3    3    0  502 -0.51148728230E+02 -0.41069972081E+02  0.39450713274E+03  0.39994535276E+03  0.41800000000E+01 0.  1.
        -11    1    4    4    0    0 -0.34844570146E+02 -0.85347558444E+01  0.16230071670E+03  0.16621825642E+03  0.00000000000E+00 0.  1.
         11    1    4    4    0    0  0.22074488193E+02  0.71389003752E+02  0.33595301393E+03  0.34416289814E+03  0.00000000000E+00 0. -1.
</event>
<event>
 8    1  0.7114239E-009  0.1137579E+03  0.7561462E-02  0.1253765E+00
          2   -1    0    0  501    0  0.00000000000E+00  0.00000000000E+00  0.36738500386E+02  0.36738500386E+02  0.00000000000E+00 0. -1.
         -2   -1    0    0    0  501 -0.00000000000E+00 -0.00000000000E+00 -0.43297531491E+03  0.43297531491E+03  0.00000000000E+00 0.  1.
         25    2    1    2    0    0  0.51942256491E+02 -0.81292881292E+01 -0.16333924803E+03  0.21234753336E+03  0.12509069368E+03 0.  0.
         23    2    1    2    0    0 -0.51942256491E+02  0.81292881292E+01 -0.23289756649E+03  0.25736628193E+03  0.96083522313E+02 0.  0.
          5    1    3    3  502    0  0.82048513239E+02  0.17050479484E+02 -0.64228769132E+02  0.10566685649E+03  0.41800000000E+01 0.  1.
         -5    1    3    3    0  502 -0.30106256748E+02 -0.25179767613E+02 -0.99110478896E+02  0.10668067688E+03  0.41800000000E+01 0.  1.
        -11    1    4    4    0    0 -0.44340087526E+02 -0.37383814768E+02 -0.88805586104E+02  0.10606613546E+03  0.00000000000E+00 0. -1.
         11    1    4    4    0    0 -0.76021689647E+01  0.45513102897E+02 -0.14409198039E+03  0.15130014647E+03  0.00000000000E+00 0.  1.
</event>
<event>
 8    1  0.7114239E-009  0.1388520E+03  0.7561462E-02  0.1214882E+00
          1   -1    0    0  501    0  0.00000000000E+00  0.00000000000E+00  0.35509885735E+03  0.35509885735E+03  0.00000000000E+00 0. -1.
         -1   -1    0    0    0  501 -0.00000000000E+00 -0.00000000000E+00 -0.77801074218E+02  0.77801074218E+02  0.00000000000E+00 0.  1.
         25    2    1    2    0    0 -0.90815648535E+02  0.15194168438E+01  0.26092241711E+03  0.30327780771E+03  0.12508848969E+03 0.  0.
         23    2    1    2    0    0  0.90815648535E+02 -0.15194168438E+01  0.16375366018E+02  0.12962212385E+03  0.91016216870E+02 0.  0.
          5    1    3    3  502    0 -0.37490198864E+02  0.61506469338E+02  0.14826970427E+03  0.16489371845E+03  0.41800000000E+01 0. -1.
         -5    1    3    3    0  502 -0.53325449670E+02 -0.59987052494E+02  0.11265271284E+03  0.13838408926E+03  0.41800000000E+01 0. -1.
        -11    1    4    4    0    0  0.10764438508E+03 -0.58489216223E+01  0.32618120217E+01  0.10785250549E+03  0.00000000000E+00 0.  1.
         11    1    4    4    0    0 -0.16828736542E+02  0.43295047785E+01  0.13113553997E+02  0.21769618363E+02  0.00000000000E+00 0. -1.
</event>
<event>
 8    1  0.7114239E-009  0.1046073E+03  0.7561462E-02  0.1270895E+00
         -4   -1    0    0    0  501 -0.00000000000E+00  0.00000000000E+00  0.12250443135E+02  0.12250443135E+02  0.00000000000E+00 0.  1.
          4   -1    0    0  501    0  0.00000000000E+00 -0.00000000000E+00 -0.11910158212E+04  0.11910158212E+04  0.00000000000E+00 0. -1.
         25    2    1    2    0    0 -0.30807441767E+02 -0.37234911712E+02 -0.76960650377E+03  0.78120265799E+03  0.12509150690E+03 0.  0.
         23    2    1    2    0    0  0.30807441767E+02  0.37234911712E+02 -0.40915887430E+03  0.42206360634E+03  0.91603309231E+02 0.  0.
          5    1    3    3  502    0 -0.64989584446E+02 -0.23505710097E+02 -0.22682385561E+03  0.23715543082E+03  0.41800000000E+01 0.  1.
         -5    1    3    3    0  502  0.34182142679E+02 -0.13729201615E+02 -0.54278264816E+03  0.54404722718E+03  0.41800000000E+01 0.  1.
        -11    1    4    4    0    0 -0.31107337291E+02  0.24732962184E+02 -0.13537057331E+03  0.14108358505E+03  0.00000000000E+00 0.  1.
         11    1    4    4    0    0  0.61914779058E+02  0.12501949528E+02 -0.27378830099E+03  0.28098002129E+03  0.00000000000E+00 0. -1.
</event>
<event>
 8    1  0.7114239E-009  0.7556706E+02  0.7561462E-02  0.1342124E+00
         -2   -1    0    0    0  501 -0.00000000000E+00  0.00000000000E+00  0.14041343611E+02  0.14041343611E+02  0.00000000000E+00 0.  1.
          2   -1    0    0  501    0  0.00000000000E+00 -0.00000000000E+00 -0.13177373350E+04  0.13177373350E+04  0.00000000000E+00 0. -1.
         25    2    1    2    0    0 -0.52148586616E+02 -0.12534460353E+02 -0.10217087278E+04  0.10307339550E+04  0.12508866313E+03 0.  0.
         23    2    1    2    0    0  0.52148586616E+02  0.12534460353E+02 -0.28198726353E+03  0.30104472361E+03  0.90744261708E+02 0.  0.
          5    1    3    3  502    0 -0.15797565244E+01  0.37805264926E+01  0.15762874536E+01  0.60617731213E+01  0.41800000000E+01 0.  1.
         -5    1    3    3    0  502 -0.50568830091E+02 -0.16314986846E+02 -0.10232850153E+04  0.10246721819E+04  0.41800000000E+01 0.  1.
        -11    1    4    4    0    0 -0.14101174455E+02  0.20892841566E+02 -0.24915383723E+02  0.35441928500E+02  0.00000000000E+00 0.  1.
         11    1    4    4    0    0  0.66249761071E+02 -0.83583812134E+01 -0.25707187981E+03  0.26560279511E+03  0.00000000000E+00 0. -1.
</event>
<event>
 8    1  0.7114239E-009  0.8794780E+02  0.7561462E-02  0.1307899E+00
         -3   -1    0    0    0  501 -0.00000000000E+00  0.00000000000E+00  0.13435940696E+03  0.13435940696E+03  0.00000000000E+00 0.  1.
          3   -1    0    0  501    0  0.00000000000E+00 -0.00000000000E+00 -0.89845696133E+02  0.89845696133E+02  0.00000000000E+00 0. -1.
         25    2    1    2    0    0 -0.51962780064E+01  0.97805364197E+01  0.67037321539E+01  0.12574779835E+03  0.12507960892E+03 0.  0.
         23    2    1    2    0    0  0.51962780064E+01 -0.97805364197E+01  0.37809978669E+02  0.98457304733E+02  0.90230738502E+02 0.  0.
          5    1    3    3  502    0 -0.32374497862E+02  0.59054565040E+02  0.13809481677E+02  0.68874697444E+02  0.41800000000E+01 0. -1.
         -5    1    3    3    0  502  0.27178219855E+02 -0.49274028620E+02 -0.71057495228E+01  0.56873100911E+02  0.41800000000E+01 0. -1.
        -11    1    4    4    0    0  0.90541672496E+01  0.20004563444E+02 -0.22278566102E+02  0.31280904890E+02  0.00000000000E+00 0. -1.
         11    1    4    4    0    0 -0.38578892432E+01 -0.29785099863E+02  0.60088544771E+02  0.67176399844E+02  0.00000000000E+00 0.  1.
</event>
<event>
 8    1  0.7114239E-009  0.2940592E+03  0.7561462E-02  0.1088249E+00
         -1   -1    0    0    0  501 -0.00000000000E+00  0.00000000000E+00  0.14239932894E+03  0.14239932894E+03  0.00000000000E+00 0.  1.
          1   -1    0    0  501    0  0.00000000000E+00 -0.00000000000E+00 -0.68526808301E+03  0.68526808301E+03  0.00000000000E+00 0. -1.
         25    2    1    2    0    0 -0.27872273121E+03  0.18909640389E+02 -0.16253685281E+03  0.34657041354E+03  0.12509551402E+03 0.  0.
         23    2    1    2    0    0  0.27872273121E+03 -0.18909640389E+02 -0.38033190126E+03  0.48109699841E+03  0.93584354314E+02 0.  0.
          5    1    3    3  502    0 -0.15756661485E+03  0.67203712680E+02 -0.12047913382E+03  0.20946663505E+03  0.41800000000E+01 0. -1.
         -5    1    3    3    0  502 -0.12115611636E+03 -0.48294072291E+02 -0.42057718989E+02  0.13710377849E+03  0.41800000000E+01 0. -1.
        -11    1    4    4    0    0  0.38191624687E+02  0.19194240391E+02 -0.10584536834E+03  0.11415016890E+03  0.00000000000E+00 0. -1.
         11    1    4    4    0    0  0.24053110652E+03 -0.38103880780E+02 -0.27448653292E+03  0.36694682951E+03  0.00000000000E+00 0.  1.
</event>
<event>
 8    1  0.7114239E-009  0.1171089E+03  0.7561462E-02  0.1247944E+00
         -2   -1    0    0    0  501 -0.00000000000E+00  0.00000000000E+00  0.25098374579E+02  0.25098374579E+02  0.00000000000E+00 0.  1.
          2   -1    0    0  501    0  0.00000000000E+00 -0.00000000000E+00 -0.65010559412E+03  0.65010559412E+03  0.00000000000E+00 0. -1.
         25    2    1    2    0    0  0.65368467507E+02 -0.11958394688E+02 -0.34488308796E+03  0.37283734959E+03  0.12508918873E+03 0.  0.
         23    2    1    2    0    0 -0.65368467507E+02  0.11958394688E+02 -0.28012413158E+03  0.30236661911E+03  0.92412139420E+02 0.  0.
          5    1    3    3  502    0 -0.27286954061E+02  0.20199067122E+02 -0.15886556996E+03  0.16250637493E+03  0.41800000000E+01 0.  1.
         -5    1    3    3    0  502  0.92655421568E+02 -0.32157461811E+02 -0.18601751800E+03  0.21033097466E+03  0.41800000000E+01 0.  1.
        -11    1    4    4    0    0 -0.42570010059E+02  0.44842874070E+02 -0.97823279139E+02  0.11572589621E+03  0.00000000000E+00 0. -1.
         11    1    4    4    0    0 -0.22798457448E+02 -0.32884479381E+02 -0.18230085244E+03  0.18664072291E+03  0.00000000000E+00 0.  1.
</event>
<event>
 8    1  0.7114239E-009  0.1410654E+03  0.7561462E-02  0.1211903E+00
         -2   -1    0    0    0  501 -0.00000000000E+00  0.00000000000E+00  0.15689595931E+03  0.15689595931E+03  0.00000000000E+00 0.  1.
          2   -1    0    0  501    0  0.00000000000E+00 -0.00000000000E+00 -0.15498035566E+03  0.15498035566E+03  0.00000000000E+00 0. -1.
         25    2    1    2    0    0 -0.77773385582E+02  0.81089003575E+02  0.10430771188E+02  0.16846465962E+03  0.12508962606E+03 0.  0.
         23    2    1    2    0    0  0.77773385582E+02 -0.81089003575E+02 -0.85151675371E+01  0.14341165535E+03  0.88714535483E+02 0.  0.
          5    1    3    3  502    0 -0.11763432985E+02  0.85924095685E+02 -0.28718882450E+02  0.91452584348E+02  0.41800000000E+01 0.  1.
         -5    1    3    3    0  502 -0.66009952597E+02 -0.48350921094E+01  0.39149653638E+02  0.77012075271E+02  0.41800000000E+01 0.  1.
        -11    1    4    4    0    0  0.36884012309E+02 -0.79987090377E+02 -0.34891561074E+02  0.94740624999E+02  0.00000000000E+00 0. -1.
         11    1    4    4    0    0  0.40889373273E+02 -0.11019131981E+01  0.26376393536E+02  0.48671030350E+02  0.00000000000E+00 0.  1.
</event>
<event>
 8    1  0.7114239E-009  0.1163566E+03  0.7561462E-02  0.1249231E+00
         -1   -1    0    0    0  501 -0.00000000000E+00  0.00000000000E+00  0.79274134175E+02  0.79274134175E+02  0.00000000000E+00 0.  1.
          1   -1    0    0  501    0  0.00000000000E+00 -0.00000000000E+00 -0.18712948516E+03  0.18712948516E+03  0.00000000000E+00 0. -1.
         25    2    1    2    0    0 -0.37103327647E+02  0.21489111785E+02 -0.98270190619E+02  0.16475030372E+03  0.12508874196E+03 0.  0.
         23    2    1    2    0    0  0.37103327647E+02 -0.21489111785E+02 -0.95851603666E+01  0.10165331562E+03  0.91668328383E+02 0.  0.
          5    1    3    3  502    0 -0.78005425999E+02 -0.11335311566E+02 -0.67083960103E+02  0.10359085807E+03  0.41800000000E+01 0.  1.
         -5    1    3    3    0  502  0.40902098352E+02  0.32824423350E+02 -0.31186230516E+02  0.61159445646E+02  0.41800000000E+01 0.  1.
        -11    1    4    4    0    0 -0.28859381181E+02  0.63838693548E+01 -0.39902320776E+01  0.29825150832E+02  0.00000000000E+00 0. -1.
         11    1    4    4    0    0  0.65962708829E+02 -0.27872981140E+02 -0.55949282890E+01  0.71828164784E+02  0.00000000000E+00 0.  1.
</event>
<event>
 8    1  0.7114239E-009  0.9655615E+02  0.7561462E-02  0.1287709E+00
          2   -1    0    0  501    0  0.00000000000E+00  0.00000000000E+00  0.29356823365E+02  0.29356823365E+02  0.00000000000E+00 0.  1.
         -2   -1    0    0    0  501 -0.00000000000E+00 -0.00000000000E+00 -0.42738131744E+03  0.42738131744E+03  0.00000000000E+00 0. -1.
         25    2    1    2    0    0 -0.67032764278E+01  0.24806381937E+02 -0.19577439162E+03  0.23374171816E+03  0.12508911980E+03 0.  0.
         23    2    1    2    0    0  0.67032764278E+01 -0.24806381937E+02 -0.20225010245E+03  0.22299642264E+03  0.90343843580E+02 0.  0.
          5    1    3    3  502    0 -0.10778083096E+01  0.67145961795E+02 -0.56039315971E+02  0.87564942703E+02  0.41800000000E+01 0. -1.
         -5    1    3    3    0  502 -0.56254681183E+01 -0.42339579859E+02 -0.13973507565E+03  0.14617677545E+03  0.41800000000E+01 0. -1.
        -11    1    4    4    0    0 -0.33364679096E+02 -0.26798735906E+02 -0.51299165795E+02  0.66805527231E+02  0.00000000000E+00 0.  1.
         11    1    4    4    0    0  0.40067955524E+02  0.19923539686E+01 -0.15095093665E+03  0.15619089541E+03  0.00000000000E+00 0. -1.
</event>
<event>
 8    1  0.7114239E-009  0.1231138E+03  0.7561462E-02  0.1238047E+00
          2   -1    0    0  501    0  0.00000000000E+00  0.00000000000E+00  0.61175412032E+02  0.61175412032E+02  0.00000000000E+00 0.  1.
         -2   -1    0    0    0  501 -0.00000000000E+00 -0.00000000000E+00 -0.29284757800E+03  0.29284757800E+03  0.00000000000E+00 0. -1.
         25    2    1    2    0    0  0.27379037170E+02 -0.55850581397E+02 -0.74670785436E+02  0.15840376832E+03  0.12508848269E+03 0.  0.
         23    2    1    2    0    0 -0.27379037170E+02  0.55850581397E+02 -0.15700138053E+03  0.19561922171E+03  0.98734731954E+02 0.  0.
          5    1    3    3  502    0  0.41941256344E+02 -0.91348910277E+02 -0.59845151462E+02  0.11705813490E+03  0.41800000000E+01 0. -1.
         -5    1    3    3    0  502 -0.14562219174E+02  0.35498328880E+02 -0.14825633974E+02  0.41345633424E+02  0.41800000000E+01 0. -1.
        -11    1    4    4    0    0  0.21094296441E+02  0.54605394126E+02 -0.45867610589E+02  0.74367708793E+02  0.00000000000E+00 0.  1.
         11    1    4    4    0    0 -0.48473333610E+02  0.12451872714E+01 -0.11113376994E+03  0.12125151291E+03  0.00000000000E+00 0. -1.
</event>
<event>
 8    1  0.7114239E-009  0.1088134E+03  0.7561462E-02  0.1262783E+00
          1   -1    0    0  501    0  0.00000000000E+00  0.00000000000E+00  0.31008075065E+03  0.31008075065E+03  0.00000000000E+00 0. -1.
         -1   -1    0    0    0  501 -0.00000000000E+00 -0.00000000000E+00 -0.56835646407E+02  0.56835646407E+02  0.00000000000E+00 0.  1.
         25    2    1    2    0    0 -0.31926527701E+02  0.37361414066E+02  0.21029206116E+03  0.24957082656E+03  0.12509063934E+03 0.  0.
         23    2    1    2    0    0  0.31926527701E+02 -0.37361414066E+02  0.42953043089E+02  0.11734557051E+03  0.97518411464E+02 0.  0.
          5    1    3    3  502    0  0.20180735481E+02  0.66854826766E+02  0.14431068149E+03  0.16037417229E+03  0.41800000000E+01 0. -1.
         -5    1    3    3    0  502 -0.52107263181E+02 -0.29493412700E+02  0.65981379667E+02  0.89196654263E+02  0.41800000000E+01 0. -1.
        -11    1    4    4    0    0 -0.23096883397E+02 -0.18118405000E+02  0.50656387006E+02  0.58547520587E+02  0.00000000000E+00 0. -1.
         11    1    4    4    0    0  0.55023411097E+02 -0.19243009066E+02 -0.77033439169E+01  0.58798049918E+02  0.00000000000E+00 0.  1.
</event>
<event>
 8    1  0.7114239E-009  0.1019475E+03  0.7561462E-02  0.1276253E+00
          1   -1    0    0  501    0  0.00000000000E+00  0.00000000000E+00  0.91740399015E+03  0.91740399015E+03  0.00000000000E+00 0. -1.
         -1   -1    0    0    0  501 -0.00000000000E+00 -0.00000000000E+00 -0.24836934529E+02  0.24836934529E+02  0.00000000000E+00 0.  1.
         25    2    1    2    0    0  0.66965208844E+02  0.15637249049E+02  0.72525770575E+03  0.73917142914E+03  0.12508716623E+03 0.  0.
         23    2    1    2    0    0 -0.66965208844E+02 -0.15637249049E+02  0.16730934987E+03  0.20306949554E+03  0.92281843882E+02 0.  0.
          5    1    3    3  502    0 -0.97467256275E+01  0.65154930100E+01  0.51469791250E+03  0.51484838918E+03  0.41800000000E+01 0. -1.
         -5    1    3    3    0  502  0.76711934471E+02  0.91217560392E+01  0.21055979325E+03  0.22432303996E+03  0.41800000000E+01 0. -1.
        -11    1    4    4    0    0 -0.16442048759E+01  0.32750587752E+02  0.60840437128E+02  0.69114855116E+02  0.00000000000E+00 0.  1.
         11    1    4    4    0    0 -0.65321003968E+02 -0.48387836802E+02  0.10646891274E+03  0.13395464042E+03  0.00000000000E+00 0. -1.
</event>
<event>
 8    1  0.7114239E-009  0.1156012E+03  0.7561462E-02  0.1250535E+00
         -1   -1    0    0    0  501 -0.00000000000E+00  0.00000000000E+00  0.14197381496E+03  0.14197381496E+03  0.00000000000E+00 0.  1.
          1   -1    0    0  501    0  0.00000000000E+00 -0.00000000000E+00 -0.11067993248E+03  0.11067993248E+03  0.00000000000E+00 0. -1.
         25    2    1    2    0    0 -0.58189896324E+02 -0.39954583253E+01  0.40028203245E+02  0.14370951189E+03  0.12509252188E+03 0.  0.
         23    2    1    2    0    0  0.58189896324E+02  0.39954583253E+01 -0.87343207635E+01  0.10894423555E+03  0.91599838312E+02 0.  0.
          5    1    3    3  502    0 -0.86376688271E+02  0.15857545284E+02 -0.35429061885E+01  0.87991014333E+02  0.41800000000E+01 0.  1.
         -5    1    3    3    0  502  0.28186791947E+02 -0.19853003609E+02  0.43571109433E+02  0.55718497555E+02  0.41800000000E+01 0.  1.
        -11    1    4    4    0    0  0.40036513123E+02  0.47079501914E+02 -0.64345454944E+01  0.62135378483E+02  0.00000000000E+00 0. -1.
         11    1    4    4    0    0  0.18153383201E+02 -0.43084043588E+02 -0.22997752692E+01  0.46808857067E+02  0.00000000000E+00 0.  1.
</event>
<event>
 8    1  0.7114239E-009  0.1132739E+03  0.7561462E-02  0.1254624E+00
         -2   -1    0    0    0  501 -0.00000000000E+00  0.00000000000E+00  0.91837159778E+01  0.91837159778E+01  0.00000000000E+00 0.  1.
          2   -1    0    0  501    0  0.00000000000E+00 -0.00000000000E+00 -0.15330305667E+04  0.15330305667E+04  0.00000000000E+00 0. -1.
         25    2    1    2    0    0  0.41152000753E+01 -0.21860849865E+02 -0.10502120204E+04  0.10578692640E+04  0.12508900937E+03 0.  0.
         23    2    1    2    0    0 -0.41152000753E+01  0.21860849865E+02 -0.47363483031E+03  0.48434501868E+03  0.98819598304E+02 0.  0.
          5    1    3    3  502    0 -0.49993839325E+02  0.23029223515E+02 -0.54116393777E+03  0.54397206642E+03  0.41800000000E+01 0. -1.
         -5    1    3    3    0  502  0.54109039401E+02 -0.44890073380E+02 -0.50904808265E+03  0.51389719758E+03  0.41800000000E+01 0. -1.
        -11    1    4    4    0    0  0.46756007796E+02  0.17250206048E+02 -0.25476680126E+03  0.25959548705E+03  0.00000000000E+00 0. -1.
         11    1    4    4    0    0 -0.50871207871E+02  0.46106438162E+01 -0.21886802905E+03  0.22474953163E+03  0.00000000000E+00 0.  1.
</event>
<event>
 8    1  0.7114239E-009  0.1844082E+03  0.7561462E-02  0.1163604E+00
          2   -1    0    0  501    0  0.00000000000E+00  0.00000000000E+00  0.14135111562E+04  0.14135111562E+04  0.00000000000E+00 0. -1.
         -2   -1    0    0    0  501 -0.00000000000E+00 -0.00000000000E+00 -0.24364146153E+02  0.24364146153E+02  0.00000000000E+00 0.  1.
         25    2    1    2    0    0 -0.76256636065E+02  0.12885206853E+03  0.79243504671E+03  0.81609952342E+03  0.12508876350E+03 0.  0.
         23    2    1    2    0    0  0.76256636065E+02 -0.12885206853E+03  0.59671196331E+03  0.62177577892E+03  0.90122261275E+02 0.  0.
          5    1    3    3  502    0 -0.55479739128E+02 -0.76910248679E+01  0.26293635602E+03  0.26886828194E+03  0.41800000000E+01 0.  1.
         -5    1    3    3    0  502 -0.20776896936E+02  0.13654309340E+03  0.52949869070E+03  0.54723124148E+03  0.41800000000E+01 0.  1.
        -11    1    4    4    0    0  0.95935418460E+02 -0.93217916394E+02  0.47198409574E+03  0.49057330858E+03  0.00000000000E+00 0. -1.
         11    1    4    4    0    0 -0.19678782395E+02 -0.35634152135E+02  0.12472786757E+03  0.13120247034E+03  0.00000000000E+00 0.  1.
</event>
<event>
 8    1  0.7114239E-009  0.9343483E+02  0.7561462E-02  0.1294741E+00
          2   -1    0    0  501    0  0.00000000000E+00  0.00000000000E+00  0.11980888042E+03  0.11980888042E+03  0.00000000000E+00 0. -1.
         -2   -1    0    0    0  501 -0.00000000000E+00 -0.00000000000E+00 -0.10357534271E+03  0.10357534271E+03  0.00000000000E+00 0.  1.
         25    2    1    2    0    0 -0.59079205930E+01 -0.27866489119E+01 -0.19999700123E+02  0.12685333397E+03  0.12509640841E+03 0.  0.
         23    2    1    2    0    0  0.59079205930E+01  0.27866489119E+01  0.36233237835E+02  0.96530889161E+02  0.89233940293E+02 0.  0.
          5    1    3    3  502    0 -0.51852828474E+02  0.28564722583E+01 -0.49449389415E+02  0.71830284477E+02  0.41800000000E+01 0. -1.
         -5    1    3    3    0  502  0.45944907881E+02 -0.56431211702E+01  0.29449689292E+02  0.55023049498E+02  0.41800000000E+01 0. -1.
        -11    1    4    4    0    0  0.41126841449E+02  0.23565635291E+02  0.11621718200E+02  0.48803899313E+02  0.00000000000E+00 0.  1.
         11    1    4    4    0    0 -0.35218920856E+02 -0.20778986379E+02  0.24611519636E+02  0.47726989848E+02  0.00000000000E+00 0. -1.
</event>
<event>
 8    1  0.7114239E-009  0.1136535E+03  0.7561462E-02  0.1253950E+00
         -2   -1    0    0    0  501 -0.00000000000E+00  0.00000000000E+00  0.21979906474E+03  0.21979906474E+03  0.00000000000E+00 0.  1.
          2   -1    0    0  501    0  0.00000000000E+00 -0.00000000000E+00 -0.61430003733E+02  0.61430003733E+02  0.00000000000E+00 0. -1.
         25    2    1    2    0    0 -0.18133738544E+02 -0.35128396643E+02  0.10765896318E+03  0.16970812351E+03  0.12509019988E+03 0.  0.
         23    2    1    2    0    0  0.18133738544E+02  0.35128396643E+02  0.50710097821E+02  0.11152094496E+03  0.91118441712E+02 0.  0.
          5    1    3    3  502    0 -0.31317078917E+02 -0.78136689389E+02  0.82768460474E+02  0.11812786339E+03  0.41800000000E+01 0.  1.
         -5    1    3    3    0  502  0.13183340373E+02  0.43008292746E+02  0.24890502708E+02  0.51580260114E+02  0.41800000000E+01 0.  1.
        -11    1    4    4    0    0  0.47325806442E+02  0.46660225020E+02  0.25209727854E+02  0.71080510217E+02  0.00000000000E+00 0.  1.
         11    1    4    4    0    0 -0.29192067898E+02 -0.11531828378E+02  0.25500369967E+02  0.40440434744E+02  0.00000000000E+00 0. -1.
</event>
<event>
 8    1  0.7114239E-009  0.1364402E+03  0.7561462E-02  0.1218201E+00
         -1   -1    0    0    0  501 -0.00000000000E+00  0.00000000000E+00  0.18518529340E+03  0.18518529340E+03  0.00000000000E+00 0.  1.
          1   -1    0    0  501    0  0.00000000000E+00 -0.00000000000E+00 -0.20878123685E+03  0.20878123685E+03  0.00000000000E+00 0. -1.
         25    2    1    2    0    0 -0.22077564028E+01  0.11661672439E+03  0.10226713258E+03  0.19927542662E+03  0.12509114538E+03 0.  0.
         23    2    1    2    0    0  0.22077564028E+01 -0.11661672439E+03 -0.12586307603E+03  0.19469110363E+03  0.91971611551E+02 0.  0.
          5    1    3    3  502    0 -0.28856950534E+02  0.12326188724E+03  0.11275520557E+03  0.16958014396E+03  0.41800000000E+01 0.  1.
         -5    1    3    3    0  502  0.26649194131E+02 -0.66451628574E+01 -0.10488072988E+02  0.29695282659E+02  0.41800000000E+01 0.  1.
        -11    1    4    4    0    0  0.75775050772E+01 -0.16303541137E+02 -0.83929423389E+02  0.85833397621E+02  0.00000000000E+00 0. -1.
         11    1    4    4    0    0 -0.53697486744E+01 -0.10031318325E+03 -0.41933652643E+02  0.10885770601E+03  0.00000000000E+00 0.  1.
</event>
<event>
 8    1  0.7114239E-009  0.1308341E+03  0.7561462E-02  0.1226223E+00
         -1   -1    0    0    0  501 -0.00000000000E+00  0.00000000000E+00  0.11933233736E+03  0.11933233736E+03  0.00000000000E+00 0.  1.
          1   -1    0    0  501    0  0.00000000000E+00 -0.00000000000E+00 -0.17995781979E+03  0.17995781979E+03  0.00000000000E+00 0. -1.
         25    2    1    2    0    0  0.17140265730E+02 -0.82231797528E+02 -0.84875428344E+02  0.17293661113E+03  0.12508947157E+03 0.  0.
         23    2    1    2    0    0 -0.17140265730E+02  0.82231797528E+02  0.24249945909E+02  0.12635354602E+03  0.91221167947E+02 0.  0.
          5    1    3    3  502    0 -0.46132256156E+02 -0.49594463266E+02 -0.84195898463E+01  0.68382437350E+02  0.41800000000E+01 0.  1.
         -5    1    3    3    0  502  0.63272521886E+02 -0.32637334262E+02 -0.76455838498E+02  0.10455417378E+03  0.41800000000E+01 0.  1.
        -11    1    4    4    0    0  0.32243303048E+02  0.78139704050E+01  0.15483015633E+02  0.36611644295E+02  0.00000000000E+00 0.  1.
         11    1    4    4    0    0 -0.49383568778E+02  0.74417827123E+02  0.87669302754E+01  0.89741901726E+02  0.00000000000E+00 0. -1.
</event>
<event>
 8    1  0.7114239E-009  0.1564687E+03  0.7561462E-02  0.1192742E+00
         -1   -1    0    0    0  501 -0.00000000000E+00  0.00000000000E+00  0.30287240578E+02  0.30287240578E+02  0.00000000000E+00 0.  1.
          1   -1    0    0  501    0  0.00000000000E+00 -0.00000000000E+00 -0.11468469939E+04  0.11468469939E+04  0.00000000000E+00 0. -1.
         25    2    1    2    0    0  0.13647645245E+03  0.58455478596E+02 -0.58898698670E+03  0.62015813905E+03  0.12509029493E+03 0.  0.
         23    2    1    2    0    0 -0.13647645245E+03 -0.58455478596E+02 -0.52757276659E+03  0.55697609539E+03  0.99229439856E+02 0.  0.
          5    1    3    3  502    0  0.51511244868E+02  0.27032492274E+02 -0.60832826890E+02  0.84274961963E+02  0.41800000000E+01 0.  1.
         -5    1    3    3    0  502  0.84965207584E+02  0.31422986323E+02 -0.52815415981E+03  0.53588317709E+03  0.41800000000E+01 0.  1.
        -11    1    4    4    0    0 -0.54148419913E+02  0.12121714014E+02 -0.86492583943E+02  0.10276163879E+03  0.00000000000E+00 0.  1.
         11    1    4    4    0    0 -0.82328032540E+02 -0.70577192610E+02 -0.44108018264E+03  0.45421445660E+03  0.00000000000E+00 0. -1.
</event>
<event>
 8    1  0.7114239E-009  0.1830420E+03  0.7561462E-02  0.1164891E+00
         -2   -1    0    0    0  501 -0.00000000000E+00  0.00000000000E+00  0.79641813791E+02  0.79641813791E+02  0.00000000000E+00 0.  1.
          2   -1    0    0  501    0  0.00000000000E+00 -0.00000000000E+00 -0.46515584343E+03  0.46515584343E+03  0.00000000000E+00 0. -1.
         25    2    1    2    0    0 -0.14434305577E+03  0.64487113332E+02 -0.18333015137E+03  0.27249106503E+03  0.12509168873E+03 0.  0.
         23    2    1    2    0    0  0.14434305577E+03 -0.64487113332E+02 -0.20218387827E+03  0.27230659219E+03  0.90989306964E+02 0.  0.
          5    1    3    3  502    0 -0.12167817844E+03  0.92546248998E+02 -0.17974997905E+03  0.23600405649E+03  0.41800000000E+01 0. -1.
         -5    1    3    3    0  502 -0.22664877322E+02 -0.28059135666E+02 -0.35801723186E+01  0.36487008540E+02  0.41800000000E+01 0. -1.
        -11    1    4    4    0    0 -0.55602470838E+01 -0.19583926389E+02 -0.57349748396E+01  0.21150329947E+02  0.00000000000E+00 0.  1.
         11    1    4    4    0    0  0.14990330285E+03 -0.44903186943E+02 -0.19644890343E+03  0.25115626224E+03  0.00000000000E+00 0. -1.
</event>
<event>
 8    1  0.7114239E-009  0.1422876E+03  0.7561462E-02  0.1210284E+00
          2   -1    0    0  501    0  0.00000000000E+00  0.00000000000E+00  0.23927786869E+03  0.23927786869E+03  0.00000000000E+00 0.  1.
         -2   -1    0    0    0  501 -0.00000000000E+00 -0.00000000000E+00 -0.15715522602E+03  0.15715522602E+03  0.00000000000E+00 0. -1.
         25    2    1    2    0    0  0.10896427226E+03  0.74030042377E+02 -0.50392860296E+02  0.18851902913E+03  0.12508526760E+03 0.  0.
         23    2    1    2    0    0 -0.10896427226E+03 -0.74030042377E+02  0.13251550297E+03  0.20791406558E+03  0.91182456296E+02 0.  0.
          5    1    3    3  502    0  0.67807194175E+02  0.83461772894E+02 -0.82260136839E+02  0.13545436733E+03  0.41800000000E+01 0.  1.
         -5    1    3    3    0  502  0.41157078085E+02 -0.94317305172E+01  0.31867276542E+02  0.53064661794E+02  0.41800000000E+01 0.  1.
        -11    1    4    4    0    0 -0.55373035049E+02 -0.21248606751E+02  0.11690903019E+03  0.13109308769E+03  0.00000000000E+00 0.  1.
         11    1    4    4    0    0 -0.53591237211E+02 -0.52781435626E+02  0.15606472785E+02  0.76820977899E+02  0.00000000000E+00 0. -1.
</event>
<event>
 8    1  0.7114239E-009  0.1329548E+03  0.7561462E-02  0.1223136E+00
         -1   -1    0    0    0  501 -0.00000000000E+00  0.00000000000E+00  0.49335214810E+03  0.49335214810E+03  0.00000000000E+00 0.  1.
          1   -1    0    0  501    0  0.00000000000E+00 -0.00000000000E+00 -0.41073996138E+02  0.41073996138E+02  0.00000000000E+00 0. -1.
         25    2    1    2    0    0 -0.26638569068E+02  0.91016917808E+02  0.28468639501E+03  0.32509526314E+03  0.12508754503E+03 0.  0.
         23    2    1    2    0    0  0.26638569068E+02 -0.91016917808E+02  0.16759175694E+03  0.20933088109E+03  0.82089756333E+02 0.  0.
          5    1    3    3  502    0 -0.70036623743E+02  0.80372093643E+02  0.15758626935E+03  0.19030424796E+03  0.41800000000E+01 0. -1.
         -5    1    3    3    0  502  0.43398054675E+02  0.10644824164E+02  0.12710012566E+03  0.13479101519E+03  0.41800000000E+01 0. -1.
        -11    1    4    4    0    0  0.10762885528E+02  0.84081241432E+01 -0.18804212600E+00  0.13659122093E+02  0.00000000000E+00 0. -1.
         11    1    4    4    0    0  0.15875683540E+02 -0.99425041951E+02  0.16777979907E+03  0.19567175900E+03  0.00000000000E+00 0.  1.
</event>
<event>
 8    1  0.7114239E-009  0.8391599E+02  0.7561462E-02  0.1318292E+00
         -2   -1    0    0    0  501 -0.00000000000E+00  0.00000000000E+00  0.11862281491E+03  0.11862281491E+03  0.00000000000E+00 0.  1.
          2   -1    0    0  501    0  0.00000000000E+00 -0.00000000000E+00 -0.10214113560E+03  0.10214113560E+03  0.00000000000E+00 0. -1.
         25    2    1    2    0    0  0.94540836742E+01 -0.48146752332E+01  0.13271188672E+02  0.12624748952E+03  0.12509893431E+03 0.  0.
         23    2    1    2    0    0 -0.94540836742E+01  0.48146752332E+01  0.32104906375E+01  0.94516460983E+02  0.93864228281E+02 0.  0.
          5    1    3    3  502    0  0.57813166173E+02 -0.20345484479E+02 -0.20899201412E+02  0.64888750499E+02  0.41800000000E+01 0.  1.
         -5    1    3    3    0  502 -0.48359082499E+02  0.15530809246E+02  0.34170390084E+02  0.61358739023E+02  0.41800000000E+01 0.  1.
        -11    1    4    4    0    0  0.17022928426E+02 -0.14743523519E+02 -0.36529849543E+02  0.42913651506E+02  0.00000000000E+00 0. -1.
         11    1    4    4    0    0 -0.26477012100E+02  0.19558198752E+02  0.39740340181E+02  0.51602809476E+02  0.00000000000E+00 0.  1.
</event>
<event>
 8    1  0.7114239E-009  0.8494416E+02  0.7561462E-02  0.1315579E+00
         -2   -1    0    0    0  501 -0.00000000000E+00  0.00000000000E+00  0.59827438502E+02  0.59827438502E+02  0.00000000000E+00 0. -1.
          2   -1    0    0  501    0  0.00000000000E+00 -0.00000000000E+00 -0.25543988954E+03  0.25543988954E+03  0.00000000000E+00 0.  1.
         25    2    1    2    0    0  0.34789565480E+02 -0.53984611718E+01 -0.17183414961E+03  0.21543948571E+03  0.12509092606E+03 0.  0.
         23    2    1    2    0    0 -0.34789565480E+02  0.53984611718E+01 -0.23778301428E+02  0.99827842332E+02  0.90336776766E+02 0.  0.
          5    1    3    3  502    0  0.61519970881E+02  0.42048240355E+02 -0.11009820939E+03  0.13301071177E+03  0.41800000000E+01 0. -1.
         -5    1    3    3    0  502 -0.26730405402E+02 -0.47446701527E+02 -0.61735940224E+02  0.82428773945E+02  0.41800000000E+01 0. -1.
        -11    1    4    4    0    0 -0.14559349632E+02 -0.77644433550E+01 -0.56674322301E+02  0.59027451670E+02  0.00000000000E+00 0.  1.
         11    1    4    4    0    0 -0.20230215847E+02  0.13162904527E+02  0.32896020874E+02  0.40800390662E+02  0.00000000000E+00 0. -1.
</event>
<event>
 8    1  0.7114239E-009  0.9592602E+02  0.7561462E-02  0.1289104E+00
         -2   -1    0    0    0  501 -0.00000000000E+00  0.00000000000E+00  0.29327945898E+02  0.29327945898E+02  0.00000000000E+00 0.  1.
          2   -1    0    0  501    0  0.00000000000E+00 -0.00000000000E+00 -0.61956319490E+03  0.61956319490E+03  0.00000000000E+00 0. -1.
         25    2    1    2    0    0 -0.77012957381E+02  0.21063022194E+02 -0.31956660477E+03  0.35234322971E+03  0.12509312583E+03 0.  0.
         23    2    1    2    0    0  0.77012957381E+02 -0.21063022194E+02 -0.27066864423E+03  0.29654791109E+03  0.91129040874E+02 0.  0.
          5    1    3    3  502    0 -0.27267424501E+02  0.11341230336E+02 -0.29383644218E+03  0.29534634431E+03  0.41800000000E+01 0.  1.
         -5    1    3    3    0  502 -0.49745532880E+02  0.97217918576E+01 -0.25730162589E+02  0.56996885400E+02  0.41800000000E+01 0.  1.
        -11    1    4    4    0    0  0.91506456374E+02 -0.83475982944E+01 -0.16254818820E+03  0.18672179156E+03  0.00000000000E+00 0.  1.
         11    1    4    4    0    0 -0.14493498994E+02 -0.12715423899E+02 -0.10812045603E+03  0.10982611953E+03  0.00000000000E+00 0. -1.
</event>
<event>
 8    1  0.7114239E-009  0.1260738E+03  0.7561462E-02  0.1233401E+00
          2   -1    0    0  501    0  0.00000000000E+00  0.00000000000E+00  0.41029838504E+03  0.41029838504E+03  0.00000000000E+00 0. -1.
         -2   -1    0    0    0  501 -0.00000000000E+00 -0.00000000000E+00 -0.42539923280E+02  0.42539923280E+02  0.00000000000E+00 0.  1.
         25    2    1    2    0    0 -0.31751372725E+02 -0.64785609044E+02  0.16440662499E+03  0.21882040722E+03  0.12508999747E+03 0.  0.
         23    2    1    2    0    0  0.31751372725E+02  0.64785609044E+02  0.20335183677E+03  0.23401790110E+03  0.90592956177E+02 0.  0.
          5    1    3    3  502    0 -0.53522103564E+02  0.17824708198E+02  0.85052998560E+02  0.10214607558E+03  0.41800000000E+01 0.  1.
         -5    1    3    3    0  502  0.21770730839E+02 -0.82610317242E+02  0.79353626434E+02  0.11667433164E+03  0.41800000000E+01 0.  1.
        -11    1    4    4    0    0  0.60187678899E+02  0.39469824753E+02  0.16481714123E+03  0.17984747371E+03  0.00000000000E+00 0.  1.
         11    1    4    4    0    0 -0.28436306174E+02  0.25315784291E+02  0.38534695537E+02  0.54170427387E+02  0.00000000000E+00 0. -1.
</event>
<event>
 8    1  0.7114239E-009  0.7428427E+02  0.7561462E-02  0.1346102E+00
          3   -1    0    0  501    0  0.00000000000E+00  0.00000000000E+00  0.45684777365E+03  0.45684777365E+03  0.00000000000E+00 0. -1.
         -3   -1    0    0    0  501 -0.00000000000E+00 -0.00000000000E+00 -0.49603123730E+02  0.49603123730E+02  0.00000000000E+00 0.  1.
         25    2    1    2    0    0 -0.30653197904E+02 -0.35206125346E+02  0.37712876771E+03  0.40007122412E+03  0.12510710265E+03 0.  0.
         23    2    1    2    0    0  0.30653197904E+02  0.35206125346E+02  0.30115882208E+02  0.10637967325E+03  0.90722536984E+02 0.  0.
          5    1    3    3  502    0 -0.74238624226E+01 -0.32597118489E+01  0.35398150037E+03  0.35409901787E+03  0.41800000000E+01 0.  1.
         -5    1    3    3    0  502 -0.23229335481E+02 -0.31946413497E+02  0.23147267337E+02  0.45972206249E+02  0.41800000000E+01 0.  1.
        -11    1    4    4    0    0  0.29856265369E+02 -0.25349358928E+02  0.22954256335E+02  0.45396965358E+02  0.00000000000E+00 0. -1.
         11    1    4    4    0    0  0.79693253487E+00  0.60555484274E+02  0.71616258732E+01  0.60982707895E+02  0.00000000000E+00 0.  1.
</event>
<event>
 8    1  0.7114239E-009  0.9684951E+02  0.7561462E-02  0.1287064E+00
         -2   -1    0    0    0  501 -0.00000000000E+00  0.00000000000E+00  0.83885292018E+02  0.83885292018E+02  0.00000000000E+00 0. -1.
          2   -1    0    0  501    0  0.00000000000E+00 -0.00000000000E+00 -0.14853345793E+03  0.14853345793E+03  0.00000000000E+00 0.  1.
         25    2    1    2    0    0 -0.34768672524E+01  0.29140608884E+02 -0.53624012600E+02  0.13924109802E+03  0.12510509565E+03 0.  0.
         23    2    1    2    0    0  0.34768672524E+01 -0.29140608884E+02 -0.11024153316E+02  0.93177651932E+02  0.87745536474E+02 0.  0.
          5    1    3    3  502    0  0.32474606242E+02 -0.26148651304E+02 -0.59636462116E+02  0.72885746407E+02  0.41800000000E+01 0. -1.
         -5    1    3    3    0  502 -0.35951473494E+02  0.55289260188E+02  0.60124495164E+01  0.66355351613E+02  0.41800000000E+01 0. -1.
        -11    1    4    4    0    0 -0.24203026856E+02 -0.46934944809E+02  0.10520800572E+02  0.53845731474E+02  0.00000000000E+00 0.  1.
         11    1    4    4    0    0  0.27679894109E+02  0.17794335925E+02 -0.21544953888E+02  0.39331920458E+02  0.00000000000E+00 0. -1.
</event>
<event>
 8    1  0.7114239E-009  0.9807434E+02  0.7561462E-02  0.1284398E+00
          2   -1    0    0  501    0  0.00000000000E+00  0.00000000000E+00  0.38951275935E+03  0.38951275935E+03  0.00000000000E+00 0. -1.
         -2   -1    0    0    0  501 -0.00000000000E+00 -0.00000000000E+00 -0.39274434448E+02  0.39274434448E+02  0.00000000000E+00 0.  1.
         25    2    1    2    0    0 -0.44499330162E+02  0.31075183563E+02  0.23738646225E+03  0.27375985127E+03  0.12508503625E+03 0.  0.
         23    2    1    2    0    0  0.44499330162E+02 -0.31075183563E+02  0.11285186266E+03  0.15502734253E+03  0.91389696393E+02 0.  0.
          5    1    3    3  502    0 -0.14113165287E+01 -0.42970359461E+02  0.41424904083E+02  0.59849299785E+02  0.41800000000E+01 0.  1.
         -5    1    3    3    0  502 -0.43088013633E+02  0.74045543024E+02  0.19596155816E+03  0.21391055149E+03  0.41800000000E+01 0.  1.
        -11    1    4    4    0    0  0.39200901988E+02 -0.37875994625E+01  0.60323500037E+00  0.39388075846E+02  0.00000000000E+00 0.  1.
         11    1    4    4    0    0  0.52984281739E+01 -0.27287584100E+02  0.11224862766E+03  0.11563926668E+03  0.00000000000E+00 0. -1.
</event>
<event>
 8    1  0.7114239E-009  0.1274967E+03  0.7561462E-02  0.1231218E+00
         -2   -1    0    0    0  501 -0.00000000000E+00  0.00000000000E+00  0.34929413303E+03  0.34929413303E+03  0.00000000000E+00 0.  1.
          2   -1    0    0  501    0  0.00000000000E+00 -0.00000000000E+00 -0.58392049142E+02  0.58392049142E+02  0.00000000000E+00 0. -1.
         25    2    1    2    0    0 -0.64370499102E+02  0.30403428865E+02  0.24610295527E+03  0.28510093025E+03  0.12509175110E+03 0.  0.
         23    2    1    2    0    0  0.64370499102E+02 -0.30403428865E+02  0.44799128613E+02  0.12258525192E+03  0.89175402565E+02 0.  0.
          5    1    3    3  502    0  0.20361104549E+02 -0.32299793193E+02  0.63226679109E+02  0.73979298252E+02  0.41800000000E+01 0. -1.
         -5    1    3    3    0  502 -0.84731603651E+02  0.62703222057E+02  0.18287627616E+03  0.21112163200E+03  0.41800000000E+01 0. -1.
        -11    1    4    4    0    0  0.31295612218E+02 -0.59377592207E+02  0.13118510569E+02  0.68390124433E+02  0.00000000000E+00 0. -1.
         11    1    4    4    0    0  0.33074886884E+02  0.28974163343E+02  0.31680618044E+02  0.54195127488E+02  0.00000000000E+00 0.  1.
</event>
<event>
 8    1  0.7114239E-009  0.1514455E+03  0.7561462E-02  0.1198708E+00
          1   -1    0    0  501    0  0.00000000000E+00  0.00000000000E+00  0.39312275949E+03  0.39312275949E+03  0.00000000000E+00 0. -1.
         -1   -1    0    0    0  501 -0.00000000000E+00 -0.00000000000E+00 -0.66075695860E+02  0.66075695860E+02  0.00000000000E+00 0.  1.
         25    2    1    2    0    0 -0.11467575884E+03 -0.27875192475E+02  0.15279366028E+03  0.23004449830E+03  0.12508801922E+03 0.  0.
         23    2    1    2    0    0  0.11467575884E+03  0.27875192475E+02  0.17425340334E+03  0.22915395705E+03  0.90662734535E+02 0.  0.
          5    1    3    3  502    0 -0.19953688287E+02  0.37759328697E+02  0.59309666804E+01  0.43319341473E+02  0.41800000000E+01 0.  1.
         -5    1    3    3    0  502 -0.94722070553E+02 -0.65634521171E+02  0.14686269360E+03  0.18672515683E+03  0.41800000000E+01 0.  1.
        -11    1    4    4    0    0  0.89912999677E+02  0.56982338034E+02  0.14985273783E+03  0.18381288691E+03  0.00000000000E+00 0.  1.
         11    1    4    4    0    0  0.24762759162E+02 -0.29107145559E+02  0.24400665515E+02  0.45341070140E+02  0.00000000000E+00 0. -1.
</event>
<event>
 8    1  0.7114239E-009  0.2581286E+03  0.7561462E-02  0.1108273E+00
         -2   -1    0    0    0  501 -0.00000000000E+00  0.00000000000E+00  0.43476627045E+02  0.43476627045E+02  0.00000000000E+00 0.  1.
          2   -1    0    0  501    0  0.00000000000E+00 -0.00000000000E+00 -0.15554124037E+04  0.15554124037E+04  0.00000000000E+00 0. -1.
         25    2    1    2    0    0  0.20054943013E+03  0.12086452856E+03 -0.86454893579E+03  0.90439034787E+03  0.12509488706E+03 0.  0.
         23    2    1    2    0    0 -0.20054943013E+03 -0.12086452856E+03 -0.64738684082E+03  0.69449868282E+03  0.91599075239E+02 0.  0.
          5    1    3    3  502    0  0.96066503416E+02 -0.10748301663E+02 -0.34621688118E+03  0.35948282335E+03  0.41800000000E+01 0.  1.
         -5    1    3    3    0  502  0.10448292672E+03  0.13161283022E+03 -0.51833205460E+03  0.54490752452E+03  0.41800000000E+01 0.  1.
        -11    1    4    4    0    0 -0.87358705846E+02 -0.21612768706E+01 -0.22995665207E+03  0.24600056186E+03  0.00000000000E+00 0.  1.
         11    1    4    4    0    0 -0.11319072429E+03 -0.11870325169E+03 -0.41743018875E+03  0.44849812096E+03  0.00000000000E+00 0. -1.
</event>
<event>
 8    1  0.7114239E-009  0.1969698E+03  0.7561462E-02  0.1152321E+00
         -1   -1    0    0    0  501 -0.00000000000E+00  0.00000000000E+00  0.42782294016E+02  0.42782294016E+02  0.00000000000E+00 0.  1.
          1   -1    0    0  501    0  0.00000000000E+00 -0.00000000000E+00 -0.99842409383E+03  0.99842409383E+03  0.00000000000E+00 0. -1.
         25    2    1    2    0    0 -0.17221209627E+03  0.29141840242E+02 -0.46234427568E+03  0.50981965894E+03  0.12509037706E+03 0.  0.
         23    2    1    2    0    0  0.17221209627E+03 -0.29141840242E+02 -0.49329752414E+03  0.53138672891E+03  0.92320936874E+02 0.  0.
          5    1    3    3  502    0 -0.88720525575E+02  0.73973033202E+02 -0.20201188454E+03  0.23274366843E+03  0.41800000000E+01 0. -1.
         -5    1    3    3    0  502 -0.83491570697E+02 -0.44831192959E+02 -0.26033239114E+03  0.27707599051E+03  0.41800000000E+01 0. -1.
        -11    1    4    4    0    0  0.15019804903E+03 -0.42443568250E+01 -0.30301936495E+03  0.33822803555E+03  0.00000000000E+00 0.  1.
         11    1    4    4    0    0  0.22014047241E+02 -0.24897483417E+02 -0.19027815918E+03  0.19315869335E+03  0.00000000000E+00 0. -1.
</event>
<event>
 8    1  0.7114239E-009  0.1029996E+03  0.7561462E-02  0.1274112E+00
          4   -1    0    0  501    0  0.00000000000E+00  0.00000000000E+00  0.30545182961E+03  0.30545182961E+03  0.00000000000E+00 0. -1.
         -4   -1    0    0    0  501 -0.00000000000E+00 -0.00000000000E+00 -0.41442463380E+02  0.41442463380E+02  0.00000000000E+00 0.  1.
         25    2    1    2    0    0 -0.24971670072E+02  0.61397325133E+01  0.12919989076E+03  0.18166421792E+03  0.12509194889E+03 0.  0.
         23    2    1    2    0    0  0.24971670072E+02 -0.61397325133E+01  0.13480947546E+03  0.16523007507E+03  0.92011425433E+02 0.  0.
          5    1    3    3  502    0 -0.54154291977E+02  0.47806833300E+02  0.51952824265E+02  0.89077208077E+02  0.41800000000E+01 0. -1.
         -5    1    3    3    0  502  0.29182621905E+02 -0.41667100786E+02  0.77247066497E+02  0.92587009842E+02  0.41800000000E+01 0. -1.
        -11    1    4    4    0    0 -0.14037513864E+01 -0.39806742844E+02  0.24119468127E+02  0.46564965763E+02  0.00000000000E+00 0.  1.
         11    1    4    4    0    0  0.26375421458E+02  0.33667010331E+02  0.11069000734E+03  0.11866510930E+03  0.00000000000E+00 0. -1.
</event>
<event>
 8    1  0.7114239E-009  0.1023289E+03  0.7561462E-02  0.1275474E+00
          2   -1    0    0  501    0  0.00000000000E+00  0.00000000000E+00  0.33464197739E+03  0.33464197739E+03  0.00000000000E+00 0.  1.
         -2   -1    0    0    0  501 -0.00000000000E+00 -0.00000000000E+00 -0.61918331921E+02  0.61918331921E+02  0.00000000000E+00 0. -1.
         25    2    1    2    0    0  0.68361466487E+02 -0.28664790114E+02  0.66155265513E+02  0.15974756202E+03  0.12509118323E+03 0.  0.
         23    2    1    2    0    0 -0.68361466487E+02  0.28664790114E+02  0.20656837995E+03  0.23681274729E+03  0.88965281938E+02 0.  0.
          5    1    3    3  502    0  0.46823817830E+02 -0.52467981193E+02  0.93709942450E+02  0.11723644775E+03  0.41800000000E+01 0.  1.
         -5    1    3    3    0  502  0.21537648658E+02  0.23803191079E+02 -0.27554676937E+02  0.42511114268E+02  0.41800000000E+01 0.  1.
        -11    1    4    4    0    0 -0.58419530164E+02  0.50899128336E+02  0.94872584798E+02  0.12249232676E+03  0.00000000000E+00 0. -1.
         11    1    4    4    0    0 -0.99419363235E+01 -0.22234338222E+02  0.11169579515E+03  0.11432042053E+03  0.00000000000E+00 0.  1.
</event>
<event>
 8    1  0.7114239E-009  0.1098872E+03  0.7561462E-02  0.1260779E+00
          4   -1    0    0  501    0  0.00000000000E+00  0.00000000000E+00  0.32536733873E+03  0.32536733873E+03  0.00000000000E+00 0. -1.
         -4   -1    0    0    0  501 -0.00000000000E+00 -0.00000000000E+00 -0.48935517071E+02  0.48935517071E+02  0.00000000000E+00 0.  1.
         25    2    1    2    0    0 -0.20167498305E+02 -0.59547985944E+02  0.15847964809E+03  0.21146154487E+03  0.12508994957E+03 0.  0.
         23    2    1    2    0    0  0.20167498305E+02  0.59547985944E+02  0.11795217358E+03  0.16284131094E+03  0.93015518480E+02 0.  0.
          5    1    3    3  502    0  0.48497461393E+02 -0.34115268792E+02  0.10511847613E+03  0.12076101088E+03  0.41800000000E+01 0.  1.
         -5    1    3    3    0  502 -0.68664959698E+02 -0.25432717153E+02  0.53361171957E+02  0.90700533983E+02  0.41800000000E+01 0.  1.
        -11    1    4    4    0    0 -0.14677148196E+02  0.48136119601E+02  0.11562502036E+03  0.12610174473E+03  0.00000000000E+00 0. -1.
         11    1    4    4    0    0  0.34844646500E+02  0.11411866343E+02  0.23271532143E+01  0.36739566209E+02  0.00000000000E+00 0.  1.
</event>
<event>
 8    1  0.7114239E-009  0.1003045E+03  0.7561462E-02  0.1279657E+00
          1   -1    0    0  501    0  0.00000000000E+00  0.00000000000E+00  0.10208340251E+03  0.10208340251E+03  0.00000000000E+00 0. -1.
         -1   -1    0    0    0  501 -0.00000000000E+00 -0.00000000000E+00 -0.14148327174E+03  0.14148327174E+03  0.00000000000E+00 0.  1.
         25    2    1    2    0    0 -0.47905260321E+01  0.36136700576E+02 -0.59395279983E+02  0.14319042901E+03  0.12508752698E+03 0.  0.
         23    2    1    2    0    0  0.47905260321E+01 -0.36136700576E+02  0.19995410757E+02  0.10037624524E+03  0.91360625483E+02 0.  0.
          5    1    3    3  502    0 -0.45375111717E+02 -0.28572324998E+02 -0.25359351001E+02  0.59462993554E+02  0.41800000000E+01 0. -1.
         -5    1    3    3    0  502  0.40584585685E+02  0.64709025575E+02 -0.34035928983E+02  0.83727435455E+02  0.41800000000E+01 0. -1.
        -11    1    4    4    0    0 -0.14119226349E+02  0.12050659844E+02  0.40614924637E+02  0.44655828944E+02  0.00000000000E+00 0. -1.
         11    1    4    4    0    0  0.18909752381E+02 -0.48187360420E+02 -0.20619513880E+02  0.55720416295E+02  0.00000000000E+00 0.  1.
</event>
<event>
 8    1  0.7114239E-009  0.1896592E+03  0.7561462E-02  0.1158769E+00
         -1   -1    0    0    0  501 -0.00000000000E+00  0.00000000000E+00  0.18843897484E+02  0.18843897484E+02  0.00000000000E+00 0.  1.
          1   -1    0    0  501    0  0.00000000000E+00 -0.00000000000E+00 -0.23721097644E+04  0.23721097644E+04  0.00000000000E+00 0. -1.
         25    2    1    2    0    0  0.46033748215E+02  0.15732665944E+03 -0.16930676471E+04  0.17055782589E+04  0.12509338899E+03 0.  0.
         23    2    1    2    0    0 -0.46033748215E+02 -0.15732665944E+03 -0.66019821982E+03  0.68537540295E+03  0.83707644610E+02 0.  0.
          5    1    3    3  502    0 -0.35719667802E+02  0.86807003608E+02 -0.61918243242E+03  0.62627127314E+03  0.41800000000E+01 0.  1.
         -5    1    3    3    0  502  0.81753416017E+02  0.70519655834E+02 -0.10738852146E+04  0.10793069858E+04  0.41800000000E+01 0.  1.
        -11    1    4    4    0    0  0.17389160891E+02 -0.46111083730E+02 -0.27715694923E+03  0.28150415532E+03  0.00000000000E+00 0. -1.
         11    1    4    4    0    0 -0.63422909106E+02 -0.11121557571E+03 -0.38304127059E+03  0.40387124763E+03  0.00000000000E+00 0.  1.
</event>
<event>
 8    1  0.7114239E-009  0.1621714E+03  0.7561462E-02  0.1186267E+00
          3   -1    0    0  501    0  0.00000000000E+00  0.00000000000E+00  0.12365303806E+03  0.12365303806E+03  0.00000000000E+00 0. -1.
         -3   -1    0    0    0  501 -0.00000000000E+00 -0.00000000000E+00 -0.53361982157E+03  0.53361982157E+03  0.00000000000E+00 0.  1.
         25    2    1    2    0    0  0.13143274493E+03 -0.91829876118E+01  0.34593668911E+02  0.18494325944E+03  0.12509353933E+03 0.  0.
         23    2    1    2    0    0 -0.13143274493E+03  0.91829876118E+01 -0.44456045242E+03  0.47232960019E+03  0.90013119388E+02 0.  0.
          5    1    3    3  502    0  0.15172354543E+03 -0.13280946533E+02  0.10234671134E+02  0.15270441602E+03  0.41800000000E+01 0. -1.
         -5    1    3    3    0  502 -0.20290800500E+02  0.40979589207E+01  0.24358997777E+02  0.32238843418E+02  0.41800000000E+01 0. -1.
        -11    1    4    4    0    0 -0.33366500960E+02  0.36112021939E+02 -0.22573436498E+03  0.23102684920E+03  0.00000000000E+00 0.  1.
         11    1    4    4    0    0 -0.98066243971E+02 -0.26929034327E+02 -0.21882608743E+03  0.24130275099E+03  0.00000000000E+00 0. -1.
</event>
<event>
 8    1  0.7114239E-009  0.1082611E+03  0.7561462E-02  0.1263824E+00
          1   -1    0    0  501    0  0.00000000000E+00  0.00000000000E+00  0.58045791049E+03  0.58045791049E+03  0.00000000000E+00 0. -1.
         -1   -1    0    0    0  501 -0.00000000000E+00 -0.00000000000E+00 -0.24767761271E+02  0.24767761271E+02  0.00000000000E+00 0.  1.
         25    2    1    2    0    0 -0.49214647616E+01 -0.41514524252E+02  0.23754097995E+03  0.27170024304E+03  0.12509048076E+03 0.  0.
         23    2    1    2    0    0  0.49214647616E+01  0.41514524252E+02  0.31814916927E+03  0.33352542872E+03  0.90954060677E+02 0.  0.
          5    1    3    3  502    0 -0.52945320215E+02  0.14156015441E+02  0.72538434698E+02  0.91010420361E+02  0.41800000000E+01 0.  1.
         -5    1    3    3    0  502  0.48023855453E+02 -0.55670539693E+02  0.16500254525E+03  0.18068982268E+03  0.41800000000E+01 0.  1.
        -11    1    4    4    0    0  0.24942387342E+02  0.57253312987E+02  0.28478861872E+03  0.29155552111E+03  0.00000000000E+00 0. -1.
         11    1    4    4    0    0 -0.20020922580E+02 -0.15738788736E+02  0.33360550548E+02  0.41969907609E+02  0.00000000000E+00 0.  1.
</event>
<event>
 8    1  0.7114239E-009  0.8847500E+02  0.7561462E-02  0.1306587E+00
          2   -1    0    0  501    0  0.00000000000E+00  0.00000000000E+00  0.11294734752E+03  0.11294734752E+03  0.00000000000E+00 0. -1.
         -2   -1    0    0    0  501 -0.00000000000E+00 -0.00000000000E+00 -0.14479981361E+03  0.14479981361E+03  0.00000000000E+00 0.  1.
         25    2    1    2    0    0 -0.44894430103E+02 -0.14454129577E+02  0.30677851955E+02  0.13716133621E+03  0.12509064647E+03 0.  0.
         23    2    1    2    0    0  0.44894430103E+02  0.14454129577E+02 -0.62530318038E+02  0.12058582492E+03  0.91686797198E+02 0.  0.
          5    1    3    3  502    0  0.73473974924E+00 -0.62875423907E+02 -0.17191985535E+01  0.63041944907E+02  0.41800000000E+01 0. -1.
         -5    1    3    3    0  502 -0.45629169853E+02  0.48421294329E+02  0.32397050508E+02  0.74119391306E+02  0.41800000000E+01 0. -1.
        -11    1    4    4    0    0  0.18395636877E+02  0.43145528118E+01  0.23409544095E+02  0.30083576530E+02  0.00000000000E+00 0. -1.
         11    1    4    4    0    0  0.26498793226E+02  0.10139576765E+02 -0.85939862133E+02  0.90502248386E+02  0.00000000000E+00 0.  1.
</event>
<event>
 8    1  0.7114239E-009  0.9590145E+02  0.7561462E-02  0.1289159E+00
         -1   -1    0    0    0  501 -0.00000000000E+00  0.00000000000E+00  0.99211976069E+02  0.99211976069E+02  0.00000000000E+00 0.  1.
          1   -1    0    0  501    0  0.00000000000E+00 -0.00000000000E+00 -0.17091910636E+03  0.17091910636E+03  0.00000000000E+00 0. -1.
         25    2    1    2    0    0 -0.52592825836E+02 -0.38008849603E+02 -0.43782167878E+02  0.14756266472E+03  0.12508870380E+03 0.  0.
         23    2    1    2    0    0  0.52592825836E+02  0.38008849603E+02 -0.27924962415E+02  0.12256841771E+03  0.10016254548E+03 0.  0.
          5    1    3    3  502    0  0.19213045274E+02  0.15664083904E+02 -0.51679862038E+02  0.57469863176E+02  0.41800000000E+01 0. -1.
         -5    1    3    3    0  502 -0.71805871110E+02 -0.53672933508E+02  0.78976941597E+01  0.90092801545E+02  0.41800000000E+01 0. -1.
        -11    1    4    4    0    0 -0.29973763274E+00  0.21509410162E+02 -0.56335431352E+02  0.60302780979E+02  0.00000000000E+00 0. -1.
         11    1    4    4    0    0  0.52892563469E+02  0.16499439441E+02  0.28410468938E+02  0.62265636731E+02  0.00000000000E+00 0.  1.
</event>
<event>
 8    1  0.7114239E-009  0.1172672E+03  0.7561462E-02  0.1247675E+00
          1   -1    0    0  501    0  0.00000000000E+00  0.00000000000E+00  0.69671421667E+03  0.69671421667E+03  0.00000000000E+00 0. -1.
         -1   -1    0    0    0  501 -0.00000000000E+00 -0.00000000000E+00 -0.45329320075E+02  0.45329320075E+02  0.00000000000E+00 0.  1.
         25    2    1    2    0    0  0.90080404549E+02 -0.50796932422E+01  0.56992864378E+03  0.59042984164E+03  0.12509379012E+03 0.  0.
         23    2    1    2    0    0 -0.90080404549E+02  0.50796932422E+01  0.81456252818E+02  0.15161369511E+03  0.90616272576E+02 0.  0.
          5    1    3    3  502    0  0.33151779798E+02  0.28010832211E+02  0.46113915388E+03  0.46319589686E+03  0.41800000000E+01 0.  1.
         -5    1    3    3    0  502  0.56928624751E+02 -0.33090525453E+02  0.10878948990E+03  0.12723394477E+03  0.41800000000E+01 0.  1.
        -11    1    4    4    0    0 -0.10240792609E+03 -0.12832342081E+02  0.78498965870E+02  0.12966934862E+03  0.00000000000E+00 0.  1.
         11    1    4    4    0    0  0.12327521542E+02  0.17912035323E+02  0.29572869477E+01  0.21944346490E+02  0.00000000000E+00 0. -1.
</event>
<event>
 8    1  0.7114239E-009  0.1215801E+03  0.7561462E-02  0.1240513E+00
          2   -1    0    0  501    0  0.00000000000E+00  0.00000000000E+00  0.25720757657E+03  0.25720757657E+03  0.00000000000E+00 0.  1.
         -2   -1    0    0    0  501 -0.00000000000E+00 -0.00000000000E+00 -0.69252128588E+02  0.69252128588E+02  0.00000000000E+00 0. -1.
         25    2    1    2    0    0 -0.28017578640E+00 -0.62357006034E+02  0.54920772023E+02  0.15017713256E+03  0.12509358595E+03 0.  0.
         23    2    1    2    0    0  0.28017578640E+00  0.62357006034E+02  0.13303467596E+03  0.17628257259E+03  0.97410706255E+02 0.  0.
          5    1    3    3  502    0 -0.14843971398E+02  0.30440206379E+02  0.43758554765E+02  0.55490838581E+02  0.41800000000E+01 0.  1.
         -5    1    3    3    0  502  0.14563795612E+02 -0.92797212413E+02  0.11162217258E+02  0.94686293983E+02  0.41800000000E+01 0.  1.
        -11    1    4    4    0    0  0.11611795389E+02  0.87060858191E+02  0.93259421342E+02  0.12810833888E+03  0.00000000000E+00 0.  1.
         11    1    4    4    0    0 -0.11331619603E+02 -0.24703852158E+02  0.39775254617E+02  0.48174233716E+02  0.00000000000E+00 0. -1.
</event>
<event>
 8    1  0.7114239E-009  0.1437435E+03  0.7561462E-02  0.1208379E+00
          2   -1    0    0  501    0  0.00000000000E+00  0.00000000000E+00  0.21029686776E+03  0.21029686776E+03  0.00000000000E+00 0. -1.
         -2   -1    0    0    0  501 -0.00000000000E+00 -0.00000000000E+00 -0.10618283107E+03  0.10618283107E+03  0.00000000000E+00 0.  1.
         25    2    1    2    0    0 -0.96531496230E+02 -0.31620081777E+02  0.86063558899E+02  0.18268199388E+03  0.12509042882E+03 0.  0.
         23    2    1    2    0    0  0.96531496230E+02  0.31620081777E+02  0.18050477794E+02  0.13379770494E+03  0.85192997151E+02 0.  0.
          5    1    3    3  502    0 -0.11885622865E+03  0.13211309209E+01  0.76905311662E+02  0.14163491038E+03  0.41800000000E+01 0.  1.
         -5    1    3    3    0  502  0.22324732422E+02 -0.32941212698E+02  0.91582472370E+01  0.41047083504E+02  0.41800000000E+01 0.  1.
        -11    1    4    4    0    0  0.74769840840E+02 -0.15747615189E+02 -0.54779881308E+01  0.76606297635E+02  0.00000000000E+00 0. -1.
         11    1    4    4    0    0  0.21761655390E+02  0.47367696966E+02  0.23528465925E+02  0.57191407308E+02  0.00000000000E+00 0.  1.
</event>
<event>
 8    1  0.7114239E-009  0.1103597E+03  0.7561462E-02  0.1259905E+00
          2   -1    0    0  501    0  0.00000000000E+00  0.00000000000E+00  0.63419751972E+02  0.63419751972E+02  0.00000000000E+00 0. -1.
         -2   -1    0    0    0  501 -0.00000000000E+00 -0.00000000000E+00 -0.26172984130E+03  0.26172984130E+03  0.00000000000E+00 0.  1.
         25    2    1    2    0    0 -0.47647452550E+02  0.14386066808E+01 -0.47157157800E+02  0.14192819294E+03  0.12508982811E+03 0.  0.
         23    2    1    2    0    0  0.47647452550E+02 -0.14386066808E+01 -0.15115293153E+03  0.18322140033E+03  0.91926729010E+02 0.  0.
          5    1    3    3  502    0  0.37203940782E+02  0.69758172991E+01 -0.41916221313E+02  0.56632475187E+02  0.41800000000E+01 0. -1.
         -5    1    3    3    0  502 -0.84851393332E+02 -0.55372106183E+01 -0.52409364876E+01  0.85295717753E+02  0.41800000000E+01 0. -1.
        -11    1    4    4    0    0  0.34192134609E+01 -0.39198892492E+02 -0.32313258912E+02  0.50915527050E+02  0.00000000000E+00 0. -1.
         11    1    4    4    0    0  0.44228239089E+02  0.37760285811E+02 -0.11883967262E+03  0.13230587328E+03  0.00000000000E+00 0.  1.
</event>
<event>
 8    1  0.7114239E-009  0.1310672E+03  0.7561462E-02  0.1225881E+00
         -1   -1    0    0    0  501 -0.00000000000E+00  0.00000000000E+00  0.44446797831E+03  0.44446797831E+03  0.00000000000E+00 0.  1.
          1   -1    0    0  501    0  0.00000000000E+00 -0.00000000000E+00 -0.52878661127E+02  0.52878661127E+02  0.00000000000E+00 0. -1.
         25    2    1    2    0    0  0.95010907213E+02 -0.48018753482E+02  0.21139488193E+03  0.26770035218E+03  0.12507121682E+03 0.  0.
         23    2    1    2    0    0 -0.95010907213E+02  0.48018753482E+02  0.18019443525E+03  0.22964628725E+03  0.94522534768E+02 0.  0.
          5    1    3    3  502    0  0.88278048509E+02 -0.19417742364E+02  0.21909028502E+03  0.23704026653E+03  0.41800000000E+01 0. -1.
         -5    1    3    3    0  502  0.67328587040E+01 -0.28601011118E+02 -0.76954030897E+01  0.30660085649E+02  0.41800000000E+01 0.  1.
        -11    1    4    4    0    0 -0.24477521354E+02 -0.28723638529E+02  0.55668763361E+02  0.67254796677E+02  0.00000000000E+00 0.  1.
         11    1    4    4    0    0 -0.70533385859E+02  0.76742392010E+02  0.12452567189E+03  0.16239149058E+03  0.00000000000E+00 0. -1.
</event>
<event>
 8    1  0.7114239E-009  0.1024155E+03  0.7561462E-02  0.1275297E+00
         -2   -1    0    0    0  501 -0.00000000000E+00  0.00000000000E+00  0.12327436127E+03  0.12327436127E+03  0.00000000000E+00 0.  1.
          2   -1    0    0  501    0  0.00000000000E+00 -0.00000000000E+00 -0.11306216774E+03  0.11306216774E+03  0.00000000000E+00 0. -1.
         25    2    1    2    0    0  0.98112719134E+01  0.13296700628E+02  0.52400590533E+02  0.13662782850E+03  0.12509307865E+03 0.  0.
         23    2    1    2    0    0 -0.98112719134E+01 -0.13296700628E+02 -0.42188397004E+02  0.99708700522E+02  0.88819484426E+02 0.  0.
          5    1    3    3  502    0  0.16200205031E-01  0.68186910187E+02  0.16826449885E+02  0.70356640049E+02  0.41800000000E+01 0.  1.
         -5    1    3    3    0  502  0.97950717084E+01 -0.54890209559E+02  0.35574140648E+02  0.66271188447E+02  0.41800000000E+01 0.  1.
        -11    1    4    4    0    0  0.34108975656E+02 -0.13495142290E+02  0.28600690142E+01  0.36792948788E+02  0.00000000000E+00 0.  1.
         11    1    4    4    0    0 -0.43920247569E+02  0.19844166219E+00 -0.45048466019E+02  0.62915751734E+02  0.00000000000E+00 0. -1.
</event>
<event>
 8    1  0.7114239E-009  0.1542745E+03  0.7561462E-02  0.1195317E+00
          1   -1    0    0  501    0  0.00000000000E+00  0.00000000000E+00  0.79078543170E+03  0.79078543170E+03  0.00000000000E+00 0. -1.
         -1   -1    0    0    0  501 -0.00000000000E+00 -0.00000000000E+00 -0.52741912637E+02  0.52741912637E+02  0.00000000000E+00 0.  1.
         25    2    1    2    0    0 -0.24060219301E+02 -0.14897367449E+03  0.55545527749E+03  0.58902490843E+03  0.12509087744E+03 0.  0.
         23    2    1    2    0    0  0.24060219301E+02  0.14897367449E+03  0.18258824157E+03  0.25450243590E+03  0.93064354490E+02 0.  0.
          5    1    3    3  502    0 -0.20842771235E+02 -0.10849992041E+03  0.52889543766E+03  0.54032815050E+03  0.41800000000E+01 0. -1.
         -5    1    3    3    0  502 -0.32174480659E+01 -0.40473754083E+02  0.26559839827E+02  0.48696757934E+02  0.41800000000E+01 0. -1.
        -11    1    4    4    0    0  0.31353170059E+02  0.58233795451E+02  0.21629803815E+02  0.69584801633E+02  0.00000000000E+00 0.  1.
         11    1    4    4    0    0 -0.72929507573E+01  0.90739879039E+02  0.16095843776E+03  0.18491763427E+03  0.00000000000E+00 0. -1.
</event>
<event>
 8    1  0.7114239E-009  0.1131675E+03  0.7561462E-02  0.1254814E+00
          1   -1    0    0  501    0  0.00000000000E+00  0.00000000000E+00  0.60116491086E+03  0.60116491086E+03  0.00000000000E+00 0. -1.
         -1   -1    0    0    0  501 -0.00000000000E+00 -0.00000000000E+00 -0.37237093640E+02  0.37237093640E+02  0.00000000000E+00 0.  1.
         25    2    1    2    0    0 -0.40241371515E+02  0.95937516447E+02  0.32959638639E+03  0.36756587942E+03  0.12509005855E+03 0.  0.
         23    2    1    2    0    0  0.40241371515E+02 -0.95937516447E+02  0.23433143083E+03  0.27083612508E+03  0.87278932915E+02 0.  0.
          5    1    3    3  502    0 -0.26514381065E+02  0.47584116382E+02  0.30781568504E+03  0.31262634069E+03  0.41800000000E+01 0.  1.
         -5    1    3    3    0  502 -0.13726990450E+02  0.48353400066E+02  0.21780701352E+02  0.54939538732E+02  0.41800000000E+01 0.  1.
        -11    1    4    4    0    0  0.10095774003E+02 -0.89969277573E+02  0.10851948057E+03  0.14132541606E+03  0.00000000000E+00 0.  1.
         11    1    4    4    0    0  0.30145597511E+02 -0.59682388745E+01  0.12581195026E+03  0.12951070902E+03  0.00000000000E+00 0. -1.
</event>
<event>
 8    1  0.7114239E-009  0.8609098E+02  0.7561462E-02  0.1312604E+00
          1   -1    0    0  501    0  0.00000000000E+00  0.00000000000E+00  0.37274601832E+03  0.37274601832E+03  0.00000000000E+00 0. -1.
         -1   -1    0    0    0  501 -0.00000000000E+00 -0.00000000000E+00 -0.32624424617E+02  0.32624424617E+02  0.00000000000E+00 0.  1.
         25    2    1    2    0    0  0.21086424785E+02 -0.34541365405E+01  0.19924750997E+03  0.23622736124E+03  0.12508887881E+03 0.  0.
         23    2    1    2    0    0 -0.21086424785E+02  0.34541365405E+01  0.14087408374E+03  0.16914308170E+03  0.91144425215E+02 0.  0.
          5    1    3    3  502    0  0.32468807720E+02  0.44924655865E+02  0.37724309785E+02  0.67179194161E+02  0.41800000000E+01 0.  1.
         -5    1    3    3    0  502 -0.11382382935E+02 -0.48378792406E+02  0.16152320018E+03  0.16904816708E+03  0.41800000000E+01 0.  1.
        -11    1    4    4    0    0  0.95790869841E+01  0.26617716896E+02  0.60232867523E+01  0.28923031368E+02  0.00000000000E+00 0.  1.
         11    1    4    4    0    0 -0.30665511769E+02 -0.23163580355E+02  0.13485079699E+03  0.14022005033E+03  0.00000000000E+00 0. -1.
</event>
<event>
 8    1  0.7114239E-009  0.1225113E+03  0.7561462E-02  0.1239011E+00
          1   -1    0    0  501    0  0.00000000000E+00  0.00000000000E+00  0.14146890485E+03  0.14146890485E+03  0.00000000000E+00 0. -1.
         -1   -1    0    0    0  501 -0.00000000000E+00 -0.00000000000E+00 -0.17887469795E+03  0.17887469795E+03  0.00000000000E+00 0.  1.
         25    2    1    2    0    0  0.29829876894E+02 -0.10674442485E+03  0.16465902471E+02  0.16793676799E+03  0.12508972103E+03 0.  0.
         23    2    1    2    0    0 -0.29829876894E+02  0.10674442485E+03 -0.53871695570E+02  0.15240683480E+03  0.89674354850E+02 0.  0.
          5    1    3    3  502    0  0.52714313855E+02 -0.50422670705E+02 -0.41334124779E+02  0.83947762790E+02  0.41800000000E+01 0.  1.
         -5    1    3    3    0  502 -0.22884436961E+02 -0.56321754145E+02  0.57800027250E+02  0.83989005203E+02  0.41800000000E+01 0.  1.
        -11    1    4    4    0    0 -0.55458320387E+01  0.30526556865E+02  0.25168799860E+02  0.39951162854E+02  0.00000000000E+00 0. -1.
         11    1    4    4    0    0 -0.24284044855E+02  0.76217867985E+02 -0.79040495429E+02  0.11245567194E+03  0.00000000000E+00 0.  1.
</event>
<event>
 8    1  0.7114239E-009  0.9394632E+02  0.7561462E-02  0.1293567E+00
          2   -1    0    0  501    0  0.00000000000E+00  0.00000000000E+00  0.13926888743E+03  0.13926888743E+03  0.00000000000E+00 0. -1.
         -2   -1    0    0    0  501 -0.00000000000E+00 -0.00000000000E+00 -0.93706059947E+02  0.93706059947E+02  0.00000000000E+00 0.  1.
         25    2    1    2    0    0 -0.25237645116E+02 -0.19595072191E+02  0.50143183740E+02  0.13850289341E+03  0.12509119482E+03 0.  0.
         23    2    1    2    0    0  0.25237645116E+02  0.19595072191E+02 -0.45803562591E+01  0.94472053969E+02  0.88786731737E+02 0.  0.
          5    1    3    3  502    0  0.21702586647E+02 -0.61931040930E+02  0.25814739061E+02  0.70642262496E+02  0.41800000000E+01 0. -1.
         -5    1    3    3    0  502 -0.46940231763E+02  0.42335968739E+02  0.24328444680E+02  0.67860630910E+02  0.41800000000E+01 0. -1.
        -11    1    4    4    0    0  0.34025382311E+02 -0.33752650535E+01 -0.39192934308E+02  0.52011586740E+02  0.00000000000E+00 0.  1.
         11    1    4    4    0    0 -0.87877371954E+01  0.22970337244E+02  0.34612578049E+02  0.42460467229E+02  0.00000000000E+00 0. -1.
</event>
<event>
 8    1  0.7114239E-009  0.1015549E+03  0.7561462E-02  0.1277060E+00
          4   -1    0    0  501    0  0.00000000000E+00  0.00000000000E+00  0.17757081309E+03  0.17757081309E+03  0.00000000000E+00 0. -1.
         -4   -1    0    0    0  501 -0.00000000000E+00 -0.00000000000E+00 -0.80888462891E+02  0.80888462891E+02  0.00000000000E+00 0.  1.
         25    2    1    2    0    0 -0.24549232503E+02 -0.35055333627E+02  0.27166389746E+02  0.13498859985E+03  0.12510942460E+03 0.  0.
         23    2    1    2    0    0  0.24549232503E+02  0.35055333627E+02  0.69515960456E+02  0.12347067614E+03  0.92633675711E+02 0.  0.
          5    1    3    3  502    0  0.18720789082E+02 -0.71579013164E+02  0.24861238110E+02  0.78163780805E+02  0.41800000000E+01 0.  1.
         -5    1    3    3    0  502 -0.43270021584E+02  0.36523679538E+02  0.23051516358E+01  0.56824819040E+02  0.41800000000E+01 0.  1.
        -11    1    4    4    0    0 -0.13087143730E+02  0.31874393990E+02  0.77545477752E+02  0.84856063090E+02  0.00000000000E+00 0. -1.
         11    1    4    4    0    0  0.37636376232E+02  0.31809396362E+01 -0.80295172963E+01  0.38614613049E+02  0.00000000000E+00 0.  1.
</event>
<event>
 8    1  0.7114239E-009  0.1129976E+03  0.7561462E-02  0.1255117E+00
          1   -1    0    0  501    0  0.00000000000E+00  0.00000000000E+00  0.35844886539E+03  0.35844886539E+03  0.00000000000E+00 0. -1.
         -1   -1    0    0    0  501 -0.00000000000E+00 -0.00000000000E+00 -0.73581780787E+02  0.73581780787E+02  0.00000000000E+00 0.  1.
         25    2    1    2    0    0 -0.89688540201E+02 -0.21414690196E+02  0.48385949710E+02  0.16276206662E+03  0.12509063515E+03 0.  0.
         23    2    1    2    0    0  0.89688540201E+02  0.21414690196E+02  0.23648113490E+03  0.26926857956E+03  0.89886692994E+02 0.  0.
          5    1    3    3  502    0 -0.95653555256E+02 -0.11275306258E+02 -0.15520311900E+02  0.97647773378E+02  0.41800000000E+01 0.  1.
         -5    1    3    3    0  502  0.59650150551E+01 -0.10139383938E+02  0.63906261610E+02  0.65114293241E+02  0.41800000000E+01 0.  1.
        -11    1    4    4    0    0  0.36288646691E+02  0.45771814871E+02  0.17400572265E+03  0.18354813110E+03  0.00000000000E+00 0. -1.
         11    1    4    4    0    0  0.53399893510E+02 -0.24357124674E+02  0.62475412252E+02  0.85720448467E+02  0.00000000000E+00 0.  1.
</event>
<event>
 8    1  0.7114239E-009  0.9778019E+02  0.7561462E-02  0.1285034E+00
          2   -1    0    0  501    0  0.00000000000E+00  0.00000000000E+00  0.68373102778E+02  0.68373102778E+02  0.00000000000E+00 0. -1.
         -2   -1    0    0    0  501 -0.00000000000E+00 -0.00000000000E+00 -0.20109164761E+03  0.20109164761E+03  0.00000000000E+00 0.  1.
         25    2    1    2    0    0  0.37262645197E+02 -0.17757012666E+02 -0.98095786365E+02  0.16424090524E+03  0.12509386646E+03 0.  0.
         23    2    1    2    0    0 -0.37262645197E+02  0.17757012666E+02 -0.34622758461E+02  0.10522384514E+03  0.90385319365E+02 0.  0.
          5    1    3    3  502    0 -0.14794389285E+02 -0.48841841212E+02 -0.28840299216E+01  0.51285372534E+02  0.41800000000E+01 0. -1.
         -5    1    3    3    0  502  0.52057034481E+02  0.31084828546E+02 -0.95211756444E+02  0.11295553271E+03  0.41800000000E+01 0. -1.
        -11    1    4    4    0    0  0.10164369833E+02 -0.20345818718E+02  0.14549733592E+02  0.26999287046E+02  0.00000000000E+00 0. -1.
         11    1    4    4    0    0 -0.47427015030E+02  0.38102831384E+02 -0.49172492053E+02  0.78224558093E+02  0.00000000000E+00 0.  1.
</event>
<event>
 8    1  0.7114239E-009  0.1141340E+03  0.7561462E-02  0.1253100E+00
         -2   -1    0    0    0  501 -0.00000000000E+00  0.00000000000E+00  0.39227068716E+02  0.39227068716E+02  0.00000000000E+00 0.  1.
          2   -1    0    0  501    0  0.00000000000E+00 -0.00000000000E+00 -0.40682984542E+03  0.40682984542E+03  0.00000000000E+00 0. -1.
         25    2    1    2    0    0  0.21633313861E+02  0.61010613161E+02 -0.22257926498E+03  0.26340057369E+03  0.12509211740E+03 0.  0.
         23    2    1    2    0    0 -0.21633313861E+02 -0.61010613161E+02 -0.14502351172E+03  0.18265634044E+03  0.90228734691E+02 0.  0.
          5    1    3    3  502    0 -0.26736010663E+02 -0.23050491204E+02 -0.10541237896E+03  0.11124469178E+03  0.41800000000E+01 0.  1.
         -5    1    3    3    0  502  0.48369324524E+02  0.84061104364E+02 -0.11716688602E+03  0.15215588191E+03  0.41800000000E+01 0.  1.
        -11    1    4    4    0    0  0.25341523371E+02 -0.30406545389E+02 -0.17354515693E+02  0.43219556039E+02  0.00000000000E+00 0.  1.
         11    1    4    4    0    0 -0.46974837232E+02 -0.30604067772E+02 -0.12766899603E+03  0.13943678440E+03  0.00000000000E+00 0. -1.
</event>
<event>
 8    1  0.7114239E-009  0.2952036E+03  0.7561462E-02  0.1087663E+00
          2   -1    0    0  501    0  0.00000000000E+00  0.00000000000E+00  0.22871071526E+04  0.22871071526E+04  0.00000000000E+00 0. -1.
         -2   -1    0    0    0  501 -0.00000000000E+00 -0.00000000000E+00 -0.40379344678E+02  0.40379344678E+02  0.00000000000E+00 0.  1.
         25    2    1    2    0    0 -0.95441477563E+02 -0.26154176587E+03  0.93855885651E+03  0.98694146751E+03  0.12509021636E+03 0.  0.
         23    2    1    2    0    0  0.95441477563E+02  0.26154176587E+03  0.13081689515E+04  0.13405450298E+04  0.90784362402E+02 0.  0.
          5    1    3    3  502    0 -0.75048980979E+02 -0.62080048391E+02  0.21433447406E+03  0.23546341780E+03  0.41800000000E+01 0. -1.
         -5    1    3    3    0  502 -0.20392496584E+02 -0.19946171748E+03  0.72422438245E+03  0.75147804971E+03  0.41800000000E+01 0. -1.
        -11    1    4    4    0    0 -0.16304138010E+02  0.57155987191E+02  0.23676492004E+03  0.24411116146E+03  0.00000000000E+00 0.  1.
         11    1    4    4    0    0  0.11174561557E+03  0.20438577868E+03  0.10714040314E+04  0.10964338684E+04  0.00000000000E+00 0. -1.
</event>
<event>
 8    1  0.7114239E-009  0.1811489E+03  0.7561462E-02  0.1166696E+00
         -1   -1    0    0    0  501 -0.00000000000E+00  0.00000000000E+00  0.35383492041E+02  0.35383492041E+02  0.00000000000E+00 0.  1.
          1   -1    0    0  501    0  0.00000000000E+00 -0.00000000000E+00 -0.18536824100E+04  0.18536824100E+04  0.00000000000E+00 0. -1.
         25    2    1    2    0    0  0.15837568601E+03  0.68119098438E+02 -0.15033079794E+04  0.15183232213E+04  0.12508978344E+03 0.  0.
         23    2    1    2    0    0 -0.15837568601E+03 -0.68119098438E+02 -0.31499093854E+03  0.37074268073E+03  0.92237597844E+02 0.  0.
          5    1    3    3  502    0  0.36335967861E+02  0.56365864573E+02 -0.90933777488E+03  0.91181690841E+03  0.41800000000E+01 0. -1.
         -5    1    3    3    0  502  0.12203971815E+03  0.11753233865E+02 -0.59397020457E+03  0.60650631293E+03  0.41800000000E+01 0. -1.
        -11    1    4    4    0    0 -0.12651151907E+03 -0.53112291746E+02 -0.30451084660E+03  0.33399541268E+03  0.00000000000E+00 0.  1.
         11    1    4    4    0    0 -0.31864166938E+02 -0.15006806692E+02 -0.10480091940E+02  0.36747268046E+02  0.00000000000E+00 0. -1.
</event>
<event>
 8    1  0.7114239E-009  0.1087174E+03  0.7561462E-02  0.1262964E+00
          2   -1    0    0  501    0  0.00000000000E+00  0.00000000000E+00  0.72301580294E+03  0.72301580294E+03  0.00000000000E+00 0. -1.
         -2   -1    0    0    0  501 -0.00000000000E+00 -0.00000000000E+00 -0.20748518334E+02  0.20748518334E+02  0.00000000000E+00 0.  1.
         25    2    1    2    0    0 -0.23636729047E+02  0.29909734642E+02  0.52135669780E+03  0.53750826134E+03  0.12509611296E+03 0.  0.
         23    2    1    2    0    0  0.23636729047E+02 -0.29909734642E+02  0.18091058680E+03  0.20625605994E+03  0.91431037706E+02 0.  0.
          5    1    3    3  502    0  0.33594148312E+02 -0.29341899942E+02  0.24664582598E+03  0.25068137100E+03  0.41800000000E+01 0. -1.
         -5    1    3    3    0  502 -0.57230877359E+02  0.59251634585E+02  0.27471087182E+03  0.28682689034E+03  0.41800000000E+01 0. -1.
        -11    1    4    4    0    0  0.23731950956E+00  0.27840131950E+02  0.10188223744E+03  0.10561779951E+03  0.00000000000E+00 0. -1.
         11    1    4    4    0    0  0.23399409537E+02 -0.57749866593E+02  0.79028349360E+02  0.10063826042E+03  0.00000000000E+00 0.  1.
</event>
<event>
 8    1  0.7114239E-009  0.7305049E+02  0.7561462E-02  0.1350017E+00
          1   -1    0    0  501    0  0.00000000000E+00  0.00000000000E+00  0.15089000765E+03  0.15089000765E+03  0.00000000000E+00 0. -1.
         -1   -1    0    0    0  501 -0.00000000000E+00 -0.00000000000E+00 -0.94450088238E+02  0.94450088238E+02  0.00000000000E+00 0.  1.
         25    2    1    2    0    0  0.64784021163E+01  0.33587333864E+02 -0.67754637986E+01  0.12985810455E+03  0.12508853552E+03 0.  0.
         23    2    1    2    0    0 -0.64784021163E+01 -0.33587333864E+02  0.63215383214E+02  0.11548199134E+03  0.90387095088E+02 0.  0.
          5    1    3    3  502    0  0.55237464001E+02  0.70923409172E+01  0.29764696913E+02  0.63284186897E+02  0.41800000000E+01 0. -1.
         -5    1    3    3    0  502 -0.48759061885E+02  0.26494992947E+02 -0.36540160711E+02  0.66573917655E+02  0.41800000000E+01 0. -1.
        -11    1    4    4    0    0 -0.12090019922E+01 -0.19904295685E+02 -0.21606512224E+02  0.29402109500E+02  0.00000000000E+00 0.  1.
         11    1    4    4    0    0 -0.52694001241E+01 -0.13683038179E+02  0.84821895439E+02  0.86079881838E+02  0.00000000000E+00 0. -1.
</event>
<event>
 8    1  0.7114239E-009  0.9263963E+02  0.7561462E-02  0.1296582E+00
         -1   -1    0    0    0  501 -0.00000000000E+00  0.00000000000E+00  0.44706855168E+02  0.44706855168E+02  0.00000000000E+00 0.  1.
          1   -1    0    0  501    0  0.00000000000E+00 -0.00000000000E+00 -0.34268885701E+03  0.34268885701E+03  0.00000000000E+00 0. -1.
         25    2    1    2    0    0 -0.17535112368E+02 -0.10051463623E+02 -0.25317947213E+03  0.28311802836E+03  0.12508981088E+03 0.  0.
         23    2    1    2    0    0  0.17535112368E+02  0.10051463623E+02 -0.44802529709E+02  0.10427768382E+03  0.91967693171E+02 0.  0.
          5    1    3    3  502    0 -0.51096797863E+02 -0.47094796289E+02 -0.19060836241E+03  0.20292319436E+03  0.41800000000E+01 0. -1.
         -5    1    3    3    0  502  0.33561685494E+02  0.37043332666E+02 -0.62571109723E+02  0.80194833999E+02  0.41800000000E+01 0. -1.
        -11    1    4    4    0    0  0.24991201618E+02 -0.21571551276E+02 -0.59943105179E+02  0.68432944123E+02  0.00000000000E+00 0. -1.
         11    1    4    4    0    0 -0.74560892498E+01  0.31623014899E+02  0.15140575470E+02  0.35844739694E+02  0.00000000000E+00 0.  1.
</event>
<event>
 8    1  0.7114239E-009  0.1283452E+03  0.7561462E-02  0.1229932E+00
          1   -1    0    0  501    0  0.00000000000E+00  0.00000000000E+00  0.17450296406E+03  0.17450296406E+03  0.00000000000E+00 0. -1.
         -1   -1    0    0    0  501 -0.00000000000E+00 -0.00000000000E+00 -0.13255307207E+03  0.13255307207E+03  0.00000000000E+00 0.  1.
         25    2    1    2    0    0 -0.69239476751E+02  0.74335013978E+02 -0.45037313400E+01  0.16120469621E+03  0.12508745356E+03 0.  0.
         23    2    1    2    0    0  0.69239476751E+02 -0.74335013978E+02  0.46453623328E+02  0.14585133993E+03  0.93780993786E+02 0.  0.
          5    1    3    3  502    0 -0.64479807224E+02  0.17291796181E+02  0.48861344867E+02  0.82834504748E+02  0.41800000000E+01 0. -1.
         -5    1    3    3    0  502 -0.47596695275E+01  0.57043217797E+02 -0.53365076207E+02  0.78370191458E+02  0.41800000000E+01 0. -1.
        -11    1    4    4    0    0  0.11855212722E+02  0.19263092915E+02 -0.70871520946E+01  0.23703175782E+02  0.00000000000E+00 0.  1.
         11    1    4    4    0    0  0.57384264029E+02 -0.93598106893E+02  0.53540775423E+02  0.12214816415E+03  0.00000000000E+00 0. -1.
</event>
<event>
 8    1  0.7114239E-009  0.1044057E+03  0.7561462E-02  0.1271295E+00
          2   -1    0    0  501    0  0.00000000000E+00  0.00000000000E+00  0.38241886273E+03  0.38241886273E+03  0.00000000000E+00 0. -1.
         -2   -1    0    0    0  501 -0.00000000000E+00 -0.00000000000E+00 -0.45401587155E+02  0.45401587155E+02  0.00000000000E+00 0.  1.
         25    2    1    2    0    0 -0.74517775173E+02 -0.72746622851E+01  0.17237123545E+03  0.22575560866E+03  0.12509169638E+03 0.  0.
         23    2    1    2    0    0  0.74517775173E+02  0.72746622851E+01  0.16464604012E+03  0.20206484122E+03  0.90089189155E+02 0.  0.
          5    1    3    3  502    0 -0.90107069541E+02  0.25762644912E+02  0.16258232292E+03  0.18770583896E+03  0.41800000000E+01 0.  1.
         -5    1    3    3    0  502  0.15589294369E+02 -0.33037307198E+02  0.97889125357E+01  0.38049769702E+02  0.41800000000E+01 0.  1.
        -11    1    4    4    0    0  0.20995022189E+02 -0.81642214834E+01 -0.53682069781E+01  0.23157355534E+02  0.00000000000E+00 0.  1.
         11    1    4    4    0    0  0.53522752984E+02  0.15438883769E+02  0.17001424710E+03  0.17890748569E+03  0.00000000000E+00 0. -1.
</event>
<event>
 8    1  0.7114239E-009  0.1077736E+03  0.7561462E-02  0.1264749E+00
          1   -1    0    0  501    0  0.00000000000E+00  0.00000000000E+00  0.27601499184E+03  0.27601499184E+03  0.00000000000E+00 0. -1.
         -1   -1    0    0    0  501 -0.00000000000E+00 -0.00000000000E+00 -0.51211837388E+02  0.51211837388E+02  0.00000000000E+00 0.  1.
         25    2    1    2    0    0 -0.37396121474E+02  0.16292829764E+02  0.16706742751E+03  0.21265874336E+03  0.12509312366E+03 0.  0.
         23    2    1    2    0    0  0.37396121474E+02 -0.16292829764E+02  0.57735726935E+02  0.11456808587E+03  0.90158227200E+02 0.  0.
          5    1    3    3  502    0  0.11426813442E+02  0.59100562877E+02  0.11283006159E+03  0.12795133370E+03  0.41800000000E+01 0. -1.
         -5    1    3    3    0  502 -0.48822934916E+02 -0.42807733113E+02  0.54237365929E+02  0.84707409658E+02  0.41800000000E+01 0. -1.
        -11    1    4    4    0    0 -0.12953422744E+02 -0.34302700400E+02  0.47694136904E+02  0.60159763218E+02  0.00000000000E+00 0. -1.
         11    1    4    4    0    0  0.50349544218E+02  0.18009870635E+02  0.10041590031E+02  0.54408322650E+02  0.00000000000E+00 0.  1.
</event>
<event>
 8    1  0.7114239E-009  0.1247221E+03  0.7561462E-02  0.1235504E+00
         -1   -1    0    0    0  501 -0.00000000000E+00  0.00000000000E+00  0.66485568268E+03  0.66485568268E+03  0.00000000000E+00 0.  1.
          1   -1    0    0  501    0  0.00000000000E+00 -0.00000000000E+00 -0.27108278441E+02  0.27108278441E+02  0.00000000000E+00 0. -1.
         25    2    1    2    0    0 -0.53797978164E+02  0.46525218796E+02  0.26120806016E+03  0.29822120444E+03  0.12508963846E+03 0.  0.
         23    2    1    2    0    0  0.53797978164E+02 -0.46525218796E+02  0.37653934408E+03  0.39374275668E+03  0.90513326952E+02 0.  0.
          5    1    3    3  502    0 -0.89170873563E+02  0.14415871859E+02  0.20674036624E+03  0.22565086636E+03  0.41800000000E+01 0. -1.
         -5    1    3    3    0  502  0.35372895399E+02  0.32109346937E+02  0.54467693915E+02  0.72570338087E+02  0.41800000000E+01 0. -1.
        -11    1    4    4    0    0  0.66661926053E+02 -0.41638261174E+01  0.17303346436E+03  0.18547703260E+03  0.00000000000E+00 0. -1.
         11    1    4    4    0    0 -0.12863947889E+02 -0.42361392679E+02  0.20350587972E+03  0.20826572408E+03  0.00000000000E+00 0.  1.
</event>
<event>
 8    1  0.7114239E-009  0.1152329E+03  0.7561462E-02  0.1251175E+00
         -2   -1    0    0    0  501 -0.00000000000E+00  0.00000000000E+00  0.27422997054E+03  0.27422997054E+03  0.00000000000E+00 0.  1.
          2   -1    0    0  501    0  0.00000000000E+00 -0.00000000000E+00 -0.68665076603E+02  0.68665076603E+02  0.00000000000E+00 0. -1.
         25    2    1    2    0    0 -0.29311724719E+02  0.36540656333E+02  0.20020681830E+03  0.24067590904E+03  0.12509087228E+03 0.  0.
         23    2    1    2    0    0  0.29311724719E+02 -0.36540656333E+02  0.53580756446E+01  0.10221913811E+03  0.90695349657E+02 0.  0.
          5    1    3    3  502    0 -0.76816683018E+02  0.13479342532E+02  0.14134463064E+03  0.16148768521E+03  0.41800000000E+01 0.  1.
         -5    1    3    3    0  502  0.47504958299E+02  0.23061313801E+02  0.58862187656E+02  0.79188223827E+02  0.41800000000E+01 0.  1.
        -11    1    4    4    0    0  0.42768103763E+02  0.15613891623E+02  0.14076548171E+02  0.47655571757E+02  0.00000000000E+00 0.  1.
         11    1    4    4    0    0 -0.13456379044E+02 -0.52154547957E+02 -0.87184725262E+01  0.54563566349E+02  0.00000000000E+00 0. -1.
</event>
<event>
 8    1  0.7114239E-009  0.1938811E+03  0.7561462E-02  0.1155007E+00
          2   -1    0    0  501    0  0.00000000000E+00  0.00000000000E+00  0.10824844413E+03  0.10824844413E+03  0.00000000000E+00 0. -1.
         -2   -1    0    0    0  501 -0.00000000000E+00 -0.00000000000E+00 -0.41403509234E+03  0.41403509234E+03  0.00000000000E+00 0.  1.
         25    2    1    2    0    0  0.15683682665E+03  0.87292785905E+02 -0.12664481739E+03  0.25279462344E+03  0.12509352982E+03 0.  0.
         23    2    1    2    0    0 -0.15683682665E+03 -0.87292785905E+02 -0.17914183082E+03  0.26948891303E+03  0.91184746677E+02 0.  0.
          5    1    3    3  502    0  0.66140377368E+02  0.50311006334E+00  0.10191210894E+02  0.67053231224E+02  0.41800000000E+01 0.  1.
         -5    1    3    3    0  502  0.90696449287E+02  0.86789675841E+02 -0.13683602829E+03  0.18574139222E+03  0.41800000000E+01 0.  1.
        -11    1    4    4    0    0 -0.55800052819E+02 -0.75907034434E+02 -0.11743047146E+03  0.15055045466E+03  0.00000000000E+00 0.  1.
         11    1    4    4    0    0 -0.10103677384E+03 -0.11385751470E+02 -0.61711359365E+02  0.11893845837E+03  0.00000000000E+00 0. -1.
</event>
<event>
 8    1  0.7114239E-009  0.1015197E+03  0.7561462E-02  0.1277132E+00
          2   -1    0    0  501    0  0.00000000000E+00  0.00000000000E+00  0.12884091830E+04  0.12884091830E+04  0.00000000000E+00 0. -1.
         -2   -1    0    0    0  501 -0.00000000000E+00 -0.00000000000E+00 -0.16538125227E+02  0.16538125227E+02  0.00000000000E+00 0.  1.
         25    2    1    2    0    0 -0.77057019706E+02  0.49973242401E+02  0.85135661526E+03  0.86538476647E+03  0.12509036112E+03 0.  0.
         23    2    1    2    0    0  0.77057019706E+02 -0.49973242401E+02  0.42051444251E+03  0.43956254176E+03  0.89150000075E+02 0.  0.
          5    1    3    3  502    0 -0.67998708712E+02  0.40786484144E+02  0.84760165372E+03  0.85131274951E+03  0.41800000000E+01 0.  1.
         -5    1    3    3    0  502 -0.90583109942E+01  0.91867582571E+01  0.37549615411E+01  0.14072016967E+02  0.41800000000E+01 0.  1.
        -11    1    4    4    0    0  0.45720886980E+02 -0.61545788218E+02  0.37693320823E+03  0.38465169572E+03  0.00000000000E+00 0. -1.
         11    1    4    4    0    0  0.31336132727E+02  0.11572545818E+02  0.43581234277E+02  0.54910846033E+02  0.00000000000E+00 0.  1.
</event>
<event>
 8    1  0.7114239E-009  0.2239043E+03  0.7561462E-02  0.1131005E+00
         -2   -1    0    0    0  501 -0.00000000000E+00  0.00000000000E+00  0.53268199874E+02  0.53268199874E+02  0.00000000000E+00 0.  1.
          2   -1    0    0  501    0  0.00000000000E+00 -0.00000000000E+00 -0.99632630967E+03  0.99632630967E+03  0.00000000000E+00 0. -1.
         25    2    1    2    0    0  0.20196838439E+03  0.99415137219E+01 -0.45014944847E+03  0.50909012571E+03  0.12509263825E+03 0.  0.
         23    2    1    2    0    0 -0.20196838439E+03 -0.99415137219E+01 -0.49290866132E+03  0.54050438384E+03  0.91082262567E+02 0.  0.
          5    1    3    3  502    0  0.55057426313E+02  0.56715205912E+02 -0.10912455977E+03  0.13480940887E+03  0.41800000000E+01 0.  1.
         -5    1    3    3    0  502  0.14691095807E+03 -0.46773692190E+02 -0.34102488870E+03  0.37428071684E+03  0.41800000000E+01 0.  1.
        -11    1    4    4    0    0 -0.14775729836E+03  0.25094295530E+02 -0.27440189281E+03  0.31266330400E+03  0.00000000000E+00 0.  1.
         11    1    4    4    0    0 -0.54211086023E+02 -0.35035809252E+02 -0.21850676851E+03  0.22784107984E+03  0.00000000000E+00 0. -1.
</event>
<event>
 8    1  0.7114239E-009  0.1147815E+03  0.7561462E-02  0.1251963E+00
         -2   -1    0    0    0  501 -0.00000000000E+00  0.00000000000E+00  0.80287074909E+03  0.80287074909E+03  0.00000000000E+00 0.  1.
          2   -1    0    0  501    0  0.00000000000E+00 -0.00000000000E+00 -0.17240479335E+02  0.17240479335E+02  0.00000000000E+00 0. -1.
         25    2    1    2    0    0 -0.12062623386E+02  0.44612888793E+02  0.47912388748E+03  0.49733605739E+03  0.12509051800E+03 0.  0.
         23    2    1    2    0    0  0.12062623386E+02 -0.44612888793E+02  0.30650638227E+03  0.32277517104E+03  0.90010176838E+02 0.  0.
          5    1    3    3  502    0  0.54305031214E+02  0.36052622070E+02  0.26671452855E+03  0.27459595793E+03  0.41800000000E+01 0.  1.
         -5    1    3    3    0  502 -0.66367654600E+02  0.85602667229E+01  0.21240935893E+03  0.22274009945E+03  0.41800000000E+01 0.  1.
        -11    1    4    4    0    0 -0.66466153058E+01 -0.67392977652E+02  0.25040569828E+03  0.25940124261E+03  0.00000000000E+00 0.  1.
         11    1    4    4    0    0  0.18709238691E+02  0.22780088860E+02  0.56100683990E+02  0.63373928433E+02  0.00000000000E+00 0. -1.
</event>
<event>
 8    1  0.7114239E-009  0.6792734E+02  0.7561462E-02  0.1367286E+00
          1   -1    0    0  501    0  0.00000000000E+00  0.00000000000E+00  0.86957075202E+02  0.86957075202E+02  0.00000000000E+00 0. -1.
         -1   -1    0    0    0  501 -0.00000000000E+00 -0.00000000000E+00 -0.18849494344E+03  0.18849494344E+03  0.00000000000E+00 0.  1.
         25    2    1    2    0    0  0.50576112770E+02  0.43994755943E+02 -0.65748351722E+02  0.15640458243E+03  0.12508423529E+03 0.  0.
         23    2    1    2    0    0 -0.50576112770E+02 -0.43994755943E+02 -0.35789516511E+02  0.11904743621E+03  0.91640170459E+02 0.  0.
          5    1    3    3  502    0  0.27914600016E+02  0.29471398027E+02  0.33930484814E+02  0.53071069288E+02  0.41800000000E+01 0.  1.
         -5    1    3    3    0  502  0.22661512754E+02  0.14523357917E+02 -0.99678836536E+02  0.10333351314E+03  0.41800000000E+01 0.  1.
        -11    1    4    4    0    0 -0.44766443719E+02 -0.33871511175E+02 -0.66009363541E+02  0.86651888771E+02  0.00000000000E+00 0.  1.
         11    1    4    4    0    0 -0.58096690509E+01 -0.10123244768E+02  0.30219847030E+02  0.32395547435E+02  0.00000000000E+00 0. -1.
</event>
<event>
 8    1  0.7114239E-009  0.1449549E+03  0.7561462E-02  0.1206813E+00
          2   -1    0    0  501    0  0.00000000000E+00  0.00000000000E+00  0.88288891126E+03  0.88288891126E+03  0.00000000000E+00 0. -1.
         -2   -1    0    0    0  501 -0.00000000000E+00 -0.00000000000E+00 -0.25502095583E+02  0.25502095583E+02  0.00000000000E+00 0.  1.
         25    2    1    2    0    0  0.10275133025E+03  0.16048124471E+01  0.52359889432E+03  0.54805418745E+03  0.12508868434E+03 0.  0.
         23    2    1    2    0    0 -0.10275133025E+03 -0.16048124471E+01  0.33378792136E+03  0.36033681940E+03  0.88700821188E+02 0.  0.
          5    1    3    3  502    0  0.61401193477E+02  0.60530021236E+02  0.34041556628E+03  0.35118972109E+03  0.41800000000E+01 0. -1.
         -5    1    3    3    0  502  0.41350136775E+02 -0.58925208789E+02  0.18318332805E+03  0.19686446636E+03  0.41800000000E+01 0. -1.
        -11    1    4    4    0    0 -0.26244631073E+02 -0.38458609047E+02  0.78210590917E+02  0.91020557028E+02  0.00000000000E+00 0. -1.
         11    1    4    4    0    0 -0.76506699179E+02  0.36853796600E+02  0.25557733044E+03  0.26931626237E+03  0.00000000000E+00 0.  1.
</event>
<event>
 8    1  0.7114239E-009  0.1108897E+03  0.7561462E-02  0.1258931E+00
         -2   -1    0    0    0  501 -0.00000000000E+00  0.00000000000E+00  0.81373018224E+02  0.81373018224E+02  0.00000000000E+00 0.  1.
          2   -1    0    0  501    0  0.00000000000E+00 -0.00000000000E+00 -0.21717114296E+03  0.21717114296E+03  0.00000000000E+00 0. -1.
         25    2    1    2    0    0  0.21820785625E+02 -0.60683434257E+02 -0.11860789125E+03  0.18404873225E+03  0.12508988008E+03 0.  0.
         23    2    1    2    0    0 -0.21820785625E+02  0.60683434257E+02 -0.17190233485E+02  0.11449542893E+03  0.93032646100E+02 0.  0.
          5    1    3    3  502    0 -0.28083265592E+02 -0.67113737809E+02 -0.23845137326E+02  0.76674549775E+02  0.41800000000E+01 0.  1.
         -5    1    3    3    0  502  0.49904051217E+02  0.64303035527E+01 -0.94762753925E+02  0.10737418248E+03  0.41800000000E+01 0.  1.
        -11    1    4    4    0    0 -0.46200072993E+02  0.18644374017E+02  0.19606481007E+02  0.53539457641E+02  0.00000000000E+00 0.  1.
         11    1    4    4    0    0  0.24379287368E+02  0.42039060240E+02 -0.36796714493E+02  0.60955971290E+02  0.00000000000E+00 0. -1.
</event>
<event>
 8    1  0.7114239E-009  0.1172716E+03  0.7561462E-02  0.1247667E+00
          1   -1    0    0  501    0  0.00000000000E+00  0.00000000000E+00  0.19945583141E+03  0.19945583141E+03  0.00000000000E+00 0. -1.
         -1   -1    0    0    0  501 -0.00000000000E+00 -0.00000000000E+00 -0.11359286325E+03  0.11359286325E+03  0.00000000000E+00 0.  1.
         25    2    1    2    0    0  0.47312067791E+02  0.90525067238E+02  0.19837368626E+02  0.16270880333E+03  0.12508962359E+03 0.  0.
         23    2    1    2    0    0 -0.47312067791E+02 -0.90525067238E+02  0.66025599537E+02  0.15033989133E+03  0.88371282510E+02 0.  0.
          5    1    3    3  502    0  0.47099974226E+02  0.17359074278E+02  0.60638786370E+02  0.78830703690E+02  0.41800000000E+01 0. -1.
         -5    1    3    3    0  502  0.21209356525E+00  0.73165992960E+02 -0.40801417744E+02  0.83878099641E+02  0.41800000000E+01 0. -1.
        -11    1    4    4    0    0 -0.60066598552E+01 -0.58007317241E+02  0.77045558854E+02  0.96627878768E+02  0.00000000000E+00 0. -1.
         11    1    4    4    0    0 -0.41305407936E+02 -0.32517749997E+02 -0.11019959317E+02  0.53712012557E+02  0.00000000000E+00 0.  1.
</event>
<event>
 8    1  0.7114239E-009  0.1855396E+03  0.7561462E-02  0.1162547E+00
          1   -1    0    0  501    0  0.00000000000E+00  0.00000000000E+00  0.27753324229E+03  0.27753324229E+03  0.00000000000E+00 0. -1.
         -1   -1    0    0    0  501 -0.00000000000E+00 -0.00000000000E+00 -0.15084961360E+03  0.15084961360E+03  0.00000000000E+00 0.  1.
         25    2    1    2    0    0 -0.12572506085E+03  0.11296600173E+03  0.27859552080E+02  0.21211340380E+03  0.12509129849E+03 0.  0.
         23    2    1    2    0    0  0.12572506085E+03 -0.11296600173E+03  0.98824076613E+02  0.21626945209E+03  0.91859508582E+02 0.  0.
          5    1    3    3  502    0 -0.77824683711E+01  0.43675935062E+02  0.56839758685E+02  0.72224543507E+02  0.41800000000E+01 0.  1.
         -5    1    3    3    0  502 -0.11794259247E+03  0.69290066670E+02 -0.28980206605E+02  0.13988886029E+03  0.41800000000E+01 0.  1.
        -11    1    4    4    0    0  0.93546906373E+02 -0.26233719570E+02  0.32522509004E+02  0.10245460129E+03  0.00000000000E+00 0.  1.
         11    1    4    4    0    0  0.32178154473E+02 -0.86732282161E+02  0.66301567609E+02  0.11381485080E+03  0.00000000000E+00 0. -1.
</event>
<event>
 8    1  0.7114239E-009  0.1268002E+03  0.7561462E-02  0.1232282E+00
          1   -1    0    0  501    0  0.00000000000E+00  0.00000000000E+00  0.10134189154E+04  0.10134189154E+04  0.00000000000E+00 0. -1.
         -1   -1    0    0    0  501 -0.00000000000E+00 -0.00000000000E+00 -0.17763608842E+02  0.17763608842E+02  0.00000000000E+00 0.  1.
         25    2    1    2    0    0  0.70082400490E+02 -0.29574191246E+02  0.57354725585E+03  0.59193761464E+03  0.12509000478E+03 0.  0.
         23    2    1    2    0    0 -0.70082400490E+02  0.29574191246E+02  0.42210805067E+03  0.43924490956E+03  0.94734938034E+02 0.  0.
          5    1    3    3  502    0 -0.33791086995E+02  0.10552544677E+01  0.20407311225E+03  0.20689673430E+03  0.41800000000E+01 0. -1.
         -5    1    3    3    0  502  0.10387348748E+03 -0.30629445713E+02  0.36947414360E+03  0.38504088034E+03  0.41800000000E+01 0. -1.
        -11    1    4    4    0    0 -0.51392306586E+02 -0.22299276133E+02  0.12382127893E+03  0.13590487853E+03  0.00000000000E+00 0. -1.
         11    1    4    4    0    0 -0.18690093904E+02  0.51873467378E+02  0.29828677174E+03  0.30334003103E+03  0.00000000000E+00 0.  1.
</event>
<event>
 8    1  0.7114239E-009  0.1217727E+03  0.7561462E-02  0.1240201E+00
          3   -1    0    0  501    0  0.00000000000E+00  0.00000000000E+00  0.48205090527E+02  0.48205090527E+02  0.00000000000E+00 0. -1.
         -3   -1    0    0    0  501 -0.00000000000E+00 -0.00000000000E+00 -0.40292059198E+03  0.40292059198E+03  0.00000000000E+00 0.  1.
         25    2    1    2    0    0 -0.27835197508E+02 -0.82111384768E+02 -0.21259179631E+03  0.26145486597E+03  0.12508516039E+03 0.  0.
         23    2    1    2    0    0  0.27835197508E+02  0.82111384768E+02 -0.14212370514E+03  0.18967081654E+03  0.90877903561E+02 0.  0.
          5    1    3    3  502    0  0.80320704258E+01  0.14743085940E+02 -0.12434326217E+03  0.12554119637E+03  0.41800000000E+01 0. -1.
         -5    1    3    3    0  502 -0.35867267934E+02 -0.96854470708E+02 -0.88248534140E+02  0.13591366960E+03  0.41800000000E+01 0. -1.
        -11    1    4    4    0    0 -0.13382733162E+02  0.80523811957E+02 -0.74806843106E+02  0.11072147766E+03  0.00000000000E+00 0. -1.
         11    1    4    4    0    0  0.41217930670E+02  0.15875728113E+01 -0.67316862034E+02  0.78949338884E+02  0.00000000000E+00 0.  1.
</event>
<event>
 8    1  0.7114239E-009  0.2204364E+03  0.7561462E-02  0.1133558E+00
          2   -1    0    0  501    0  0.00000000000E+00  0.00000000000E+00  0.11538163262E+04  0.11538163262E+04  0.00000000000E+00 0.  1.
         -2   -1    0    0    0  501 -0.00000000000E+00 -0.00000000000E+00 -0.13090888318E+03  0.13090888318E+03  0.00000000000E+00 0. -1.
         25    2    1    2    0    0  0.41675561300E+02 -0.19671462251E+03  0.10368413167E+04  0.10635418156E+04  0.12509109655E+03 0.  0.
         23    2    1    2    0    0 -0.41675561300E+02  0.19671462251E+03 -0.13933873685E+02  0.22118339376E+03  0.91073847615E+02 0.  0.
          5    1    3    3  502    0  0.69330045443E+02 -0.48324489318E+02  0.42511648399E+03  0.43345519818E+03  0.41800000000E+01 0. -1.
         -5    1    3    3    0  502 -0.27654484144E+02 -0.14839013319E+03  0.61172483270E+03  0.63008661743E+03  0.41800000000E+01 0. -1.
        -11    1    4    4    0    0 -0.45322739246E+02  0.11719549315E+03  0.31479880410E+02  0.12953731964E+03  0.00000000000E+00 0.  1.
         11    1    4    4    0    0  0.36471779464E+01  0.79519129357E+02 -0.45413754095E+02  0.91646074121E+02  0.00000000000E+00 0. -1.
</event>
<event>
 8    1  0.7114239E-009  0.2027437E+03  0.7561462E-02  0.1147445E+00
         -2   -1    0    0    0  501 -0.00000000000E+00  0.00000000000E+00  0.20055657685E+03  0.20055657685E+03  0.00000000000E+00 0.  1.
          2   -1    0    0  501    0  0.00000000000E+00 -0.00000000000E+00 -0.25544292535E+03  0.25544292535E+03  0.00000000000E+00 0. -1.
         25    2    1    2    0    0 -0.18212278913E+03  0.60081107167E+02 -0.80314736185E+02  0.24264515835E+03  0.12509103191E+03 0.  0.
         23    2    1    2    0    0  0.18212278913E+03 -0.60081107167E+02  0.25428387686E+02  0.21335434385E+03  0.89972347857E+02 0.  0.
          5    1    3    3  502    0 -0.17972660981E+03  0.28877324753E+02 -0.97664280486E+02  0.20661882354E+03  0.41800000000E+01 0. -1.
         -5    1    3    3    0  502 -0.23961793157E+01  0.31203782415E+02  0.17349544301E+02  0.36026334809E+02  0.41800000000E+01 0. -1.
        -11    1    4    4    0    0  0.32082881430E+02 -0.87192311988E+01  0.42378555908E+02  0.53863515244E+02  0.00000000000E+00 0.  1.
         11    1    4    4    0    0  0.15003990770E+03 -0.51361875968E+02 -0.16950168223E+02  0.15949082860E+03  0.00000000000E+00 0. -1.
</event>
<event>
 8    1  0.7114239E-009  0.7835196E+02  0.7561462E-02  0.1333794E+00
          4   -1    0    0  501    0  0.00000000000E+00  0.00000000000E+00  0.10534070383E+02  0.10534070383E+02  0.00000000000E+00 0. -1.
         -4   -1    0    0    0  501 -0.00000000000E+00 -0.00000000000E+00 -0.13521339117E+04  0.13521339117E+04  0.00000000000E+00 0.  1.
         25    2    1    2    0    0  0.20436812738E+02  0.13229028156E+02 -0.10010592372E+04  0.10091379473E+04  0.12508848769E+03 0.  0.
         23    2    1    2    0    0 -0.20436812738E+02 -0.13229028156E+02 -0.34054060406E+03  0.35353003475E+03  0.91776423742E+02 0.  0.
          5    1    3    3  502    0 -0.14004305168E+02 -0.14573438912E+02 -0.87885822386E+03  0.87910053790E+03  0.41800000000E+01 0.  1.
         -5    1    3    3    0  502  0.34441117907E+02  0.27802467068E+02 -0.12220101338E+03  0.13003740942E+03  0.41800000000E+01 0.  1.
        -11    1    4    4    0    0 -0.30957817161E+02 -0.46974205880E+02 -0.16108293680E+03  0.17062436810E+03  0.00000000000E+00 0. -1.
         11    1    4    4    0    0  0.10521004423E+02  0.33745177724E+02 -0.17945766727E+03  0.18290566665E+03  0.00000000000E+00 0.  1.
</event>
<event>
 8    1  0.7114239E-009  0.1101968E+03  0.7561462E-02  0.1260206E+00
          1   -1    0    0  501    0  0.00000000000E+00  0.00000000000E+00  0.10745151479E+04  0.10745151479E+04  0.00000000000E+00 0. -1.
         -1   -1    0    0    0  501 -0.00000000000E+00 -0.00000000000E+00 -0.29508258951E+02  0.29508258951E+02  0.00000000000E+00 0.  1.
         25    2    1    2    0    0 -0.92682797815E+02  0.10710678411E+02  0.88334204397E+03  0.89702004153E+03  0.12508784360E+03 0.  0.
         23    2    1    2    0    0  0.92682797815E+02 -0.10710678411E+02  0.16166484498E+03  0.20700336532E+03  0.89498891110E+02 0.  0.
          5    1    3    3  502    0  0.14437381943E+02 -0.68679918303E+01  0.44882527577E+03  0.44912938880E+03  0.41800000000E+01 0. -1.
         -5    1    3    3    0  502 -0.10712017976E+03  0.17578670242E+02  0.43451676820E+03  0.44789065273E+03  0.41800000000E+01 0. -1.
        -11    1    4    4    0    0  0.40018960402E+02 -0.14180563693E+02  0.14585417679E+03  0.15190801975E+03  0.00000000000E+00 0. -1.
         11    1    4    4    0    0  0.52663837413E+02  0.34698852817E+01  0.15810668190E+02  0.55095345571E+02  0.00000000000E+00 0.  1.
</event>
<event>
 8    1  0.7114239E-009  0.9078560E+02  0.7561462E-02  0.1300960E+00
         -3   -1    0    0    0  501 -0.00000000000E+00  0.00000000000E+00  0.57668639467E+02  0.57668639467E+02  0.00000000000E+00 0.  1.
          3   -1    0    0  501    0  0.00000000000E+00 -0.00000000000E+00 -0.28832953498E+03  0.28832953498E+03  0.00000000000E+00 0. -1.
         25    2    1    2    0    0  0.16691084655E+02  0.16717732087E+02 -0.21553017564E+03  0.25031856261E+03  0.12509217124E+03 0.  0.
         23    2    1    2    0    0 -0.16691084655E+02 -0.16717732087E+02 -0.15130719876E+02  0.95679611833E+02  0.91474447599E+02 0.  0.
          5    1    3    3  502    0  0.48895675576E+02 -0.19361492922E+02 -0.34839554174E+02  0.63221210311E+02  0.41800000000E+01 0.  1.
         -5    1    3    3    0  502 -0.32204590921E+02  0.36079225009E+02 -0.18069062146E+03  0.18709735230E+03  0.41800000000E+01 0.  1.
        -11    1    4    4    0    0 -0.44440923327E+02 -0.25412712640E+02  0.15455248195E+02  0.53475848068E+02  0.00000000000E+00 0.  1.
         11    1    4    4    0    0  0.27749838672E+02  0.86949805530E+01 -0.30585968070E+02  0.42203763765E+02  0.00000000000E+00 0. -1.
</event>
<event>
 8    1  0.7114239E-009  0.1230747E+03  0.7561462E-02  0.1238109E+00
          1   -1    0    0  501    0  0.00000000000E+00  0.00000000000E+00  0.36653198564E+03  0.36653198564E+03  0.00000000000E+00 0. -1.
         -1   -1    0    0    0  501 -0.00000000000E+00 -0.00000000000E+00 -0.65493469126E+02  0.65493469126E+02  0.00000000000E+00 0.  1.
         25    2    1    2    0    0  0.67507174771E+02  0.49661183185E+02  0.26185843885E+03  0.30206505895E+03  0.12509998433E+03 0.  0.
         23    2    1    2    0    0 -0.67507174771E+02 -0.49661183185E+02  0.39180077669E+02  0.12996039582E+03  0.91275266283E+02 0.  0.
          5    1    3    3  502    0  0.10093289687E+03  0.39901703579E+02  0.23136398566E+03  0.25559022258E+03  0.41800000000E+01 0. -1.
         -5    1    3    3    0  502 -0.33425722100E+02  0.97594796056E+01  0.30494453193E+02  0.46474836370E+02  0.41800000000E+01 0. -1.
        -11    1    4    4    0    0 -0.26219445694E+02  0.11532916731E+02 -0.20342583251E+02  0.35132437919E+02  0.00000000000E+00 0.  1.
         11    1    4    4    0    0 -0.41287729077E+02 -0.61194099915E+02  0.59522660921E+02  0.94827957902E+02  0.00000000000E+00 0. -1.
</event>
<event>
 8    1  0.7114239E-009  0.9583708E+02  0.7561462E-02  0.1289302E+00
         -2   -1    0    0    0  501 -0.00000000000E+00  0.00000000000E+00  0.85590017092E+01  0.85590017092E+01  0.00000000000E+00 0.  1.
          2   -1    0    0  501    0  0.00000000000E+00 -0.00000000000E+00 -0.23164528584E+04  0.23164528584E+04  0.00000000000E+00 0. -1.
         25    2    1    2    0    0 -0.26242979864E+02 -0.35530293304E+02 -0.18897665313E+04  0.18944172159E+04  0.12509176364E+03 0.  0.
         23    2    1    2    0    0  0.26242979864E+02  0.35530293304E+02 -0.41812732536E+03  0.43059464418E+03  0.92898824810E+02 0.  0.
          5    1    3    3  502    0 -0.47383382244E+02 -0.47609022355E+02 -0.18015592662E+04  0.18028158714E+04  0.41800000000E+01 0. -1.
         -5    1    3    3    0  502  0.21140402379E+02  0.12078729051E+02 -0.88207265098E+02  0.91601344555E+02  0.41800000000E+01 0. -1.
        -11    1    4    4    0    0  0.34962294000E+02  0.62341990374E+02 -0.34259894202E+03  0.34997560035E+03  0.00000000000E+00 0.  1.
         11    1    4    4    0    0 -0.87193141360E+01 -0.26811697070E+02 -0.75528383339E+02  0.80619043833E+02  0.00000000000E+00 0. -1.
</event>
<event>
 8    1  0.7114239E-009  0.1324602E+03  0.7561462E-02  0.1223850E+00
          2   -1    0    0  501    0  0.00000000000E+00  0.00000000000E+00  0.65882857427E+03  0.65882857427E+03  0.00000000000E+00 0.  1.
         -2   -1    0    0    0  501 -0.00000000000E+00 -0.00000000000E+00 -0.32987070144E+02  0.32987070144E+02  0.00000000000E+00 0. -1.
         25    2    1    2    0    0  0.92713137057E+02 -0.30175895014E+02  0.28880782099E+03  0.32949086830E+03  0.12509182389E+03 0.  0.
         23    2    1    2    0    0 -0.92713137057E+02  0.30175895014E+02  0.33703368313E+03  0.36232477611E+03  0.90450148681E+02 0.  0.
          5    1    3    3  502    0  0.12285927703E+03 -0.13990125530E+02  0.21571848248E+03  0.24868064188E+03  0.41800000000E+01 0. -1.
         -5    1    3    3    0  502 -0.30146139974E+02 -0.16185769484E+02  0.73089338516E+02  0.80810226419E+02  0.41800000000E+01 0. -1.
        -11    1    4    4    0    0 -0.50212836629E+02  0.38679301613E+02  0.29575542041E+03  0.30247096726E+03  0.00000000000E+00 0.  1.
         11    1    4    4    0    0 -0.42500300428E+02 -0.85034065992E+01  0.41278262720E+02  0.59853808847E+02  0.00000000000E+00 0. -1.
</event>
<event>
 8    1  0.7114239E-009  0.1396714E+03  0.7561462E-02  0.1213772E+00
          3   -1    0    0  501    0  0.00000000000E+00  0.00000000000E+00  0.95719756516E+03  0.95719756516E+03  0.00000000000E+00 0. -1.
         -3   -1    0    0    0  501 -0.00000000000E+00 -0.00000000000E+00 -0.26337742531E+02  0.26337742531E+02  0.00000000000E+00 0.  1.
         25    2    1    2    0    0 -0.29034478360E+02 -0.10385327624E+03  0.64625406113E+03  0.66702338465E+03  0.12508948884E+03 0.  0.
         23    2    1    2    0    0  0.29034478360E+02  0.10385327624E+03  0.28460576150E+03  0.31651192304E+03  0.86895650240E+02 0.  0.
          5    1    3    3  502    0 -0.50980823095E+02 -0.11233154521E+03  0.37656547066E+03  0.39627824374E+03  0.41800000000E+01 0. -1.
         -5    1    3    3    0  502  0.21946344735E+02  0.84782689619E+01  0.26968859048E+03  0.27074514091E+03  0.41800000000E+01 0. -1.
        -11    1    4    4    0    0  0.42647505138E+02  0.20067264954E+02  0.59321429906E+02  0.75766330671E+02  0.00000000000E+00 0.  1.
         11    1    4    4    0    0 -0.13613026778E+02  0.83786011291E+02  0.22528433159E+03  0.24074559237E+03  0.00000000000E+00 0. -1.
</event>
<event>
 8    1  0.7114239E-009  0.2055265E+03  0.7561462E-02  0.1145158E+00
         -1   -1    0    0    0  501 -0.00000000000E+00  0.00000000000E+00  0.15962763946E+03  0.15962763946E+03  0.00000000000E+00 0.  1.
          1   -1    0    0  501    0  0.00000000000E+00 -0.00000000000E+00 -0.33374235056E+03  0.33374235056E+03  0.00000000000E+00 0. -1.
         25    2    1    2    0    0  0.10438290979E+02  0.19310901433E+03 -0.25920568898E+02  0.23177502228E+03  0.12509090985E+03 0.  0.
         23    2    1    2    0    0 -0.10438290979E+02 -0.19310901433E+03 -0.14819414221E+03  0.26159496774E+03  0.95238511276E+02 0.  0.
          5    1    3    3  502    0  0.30743282706E+02  0.11458812235E+03  0.41979491204E+02  0.12591797845E+03  0.41800000000E+01 0. -1.
         -5    1    3    3    0  502 -0.20304991726E+02  0.78520891983E+02 -0.67900060103E+02  0.10585704383E+03  0.41800000000E+01 0. -1.
        -11    1    4    4    0    0  0.37443668171E+02 -0.86938469493E+02 -0.40473032461E+02  0.10294849256E+03  0.00000000000E+00 0.  1.
         11    1    4    4    0    0 -0.47881959150E+02 -0.10617054484E+03 -0.10772110975E+03  0.15864647518E+03  0.00000000000E+00 0. -1.
</event>
<event>
 8    1  0.7114239E-009  0.2519208E+03  0.7561462E-02  0.1112097E+00
         -1   -1    0    0    0  501 -0.00000000000E+00  0.00000000000E+00  0.35443253273E+03  0.35443253273E+03  0.00000000000E+00 0.  1.
          1   -1    0    0  501    0  0.00000000000E+00 -0.00000000000E+00 -0.18978057113E+03  0.18978057113E+03  0.00000000000E+00 0. -1.
         25    2    1    2    0    0  0.21294265668E+03 -0.97810838030E+02  0.10673682590E+03  0.28627465246E+03  0.12509552977E+03 0.  0.
         23    2    1    2    0    0 -0.21294265668E+03  0.97810838030E+02  0.57915135704E+02  0.25793845140E+03  0.90920551551E+02 0.  0.
          5    1    3    3  502    0 -0.10337374199E+02 -0.19994796476E+02  0.29814858792E+02  0.37590575897E+02  0.41800000000E+01 0. -1.
         -5    1    3    3    0  502  0.22328003088E+03 -0.77816041555E+02  0.76921967110E+02  0.24868407657E+03  0.41800000000E+01 0. -1.
        -11    1    4    4    0    0 -0.11364194714E+03  0.13968716619E+02 -0.27150329949E+01  0.11452942241E+03  0.00000000000E+00 0. -1.
         11    1    4    4    0    0 -0.99300709545E+02  0.83842121412E+02  0.60630168699E+02  0.14340902899E+03  0.00000000000E+00 0.  1.
</event>
<event>
 8    1  0.7114239E-009  0.1078157E+03  0.7561462E-02  0.1264669E+00
          1   -1    0    0  501    0  0.00000000000E+00  0.00000000000E+00  0.31626650371E+03  0.31626650371E+03  0.00000000000E+00 0. -1.
         -1   -1    0    0    0  501 -0.00000000000E+00 -0.00000000000E+00 -0.39526816988E+02  0.39526816988E+02  0.00000000000E+00 0.  1.
         25    2    1    2    0    0 -0.35581194579E+01 -0.20343460906E+02  0.13377248165E+03  0.18430757676E+03  0.12509072463E+03 0.  0.
         23    2    1    2    0    0  0.35581194579E+01  0.20343460906E+02  0.14296720507E+03  0.17148574393E+03  0.92418732039E+02 0.  0.
          5    1    3    3  502    0  0.45265935799E+02 -0.51403839528E+02  0.76877449743E+02  0.10304840776E+03  0.41800000000E+01 0. -1.
         -5    1    3    3    0  502 -0.48824055257E+02  0.31060378623E+02  0.56895031910E+02  0.81259169008E+02  0.41800000000E+01 0. -1.
        -11    1    4    4    0    0 -0.37064873770E+02 -0.98814341525E+01  0.33712884012E+02  0.51068641620E+02  0.00000000000E+00 0.  1.
         11    1    4    4    0    0  0.40622993228E+02  0.30224895058E+02  0.10925432106E+03  0.12041710231E+03  0.00000000000E+00 0. -1.
</event>
<event>
 8    1  0.7114239E-009  0.1071028E+03  0.7561462E-02  0.1266031E+00
          2   -1    0    0  501    0  0.00000000000E+00  0.00000000000E+00  0.18673276013E+02  0.18673276013E+02  0.00000000000E+00 0.  1.
         -2   -1    0    0    0  501 -0.00000000000E+00 -0.00000000000E+00 -0.65950786496E+03  0.65950786496E+03  0.00000000000E+00 0. -1.
         25    2    1    2    0    0 -0.22974243666E+02  0.12546738963E+02 -0.44174309629E+03  0.45985841536E+03  0.12509021754E+03 0.  0.
         23    2    1    2    0    0  0.22974243666E+02 -0.12546738963E+02 -0.19909149266E+03  0.21832272562E+03  0.85686367301E+02 0.  0.
          5    1    3    3  502    0 -0.71528310214E+02  0.25119362147E+02 -0.29949164649E+03  0.30896601793E+03  0.41800000000E+01 0. -1.
         -5    1    3    3    0  502  0.48554066547E+02 -0.12572623185E+02 -0.14225144980E+03  0.15089239743E+03  0.41800000000E+01 0. -1.
        -11    1    4    4    0    0  0.26418487623E+01  0.35594011367E+02 -0.10194291329E+03  0.10801051143E+03  0.00000000000E+00 0. -1.
         11    1    4    4    0    0  0.20332394904E+02 -0.48140750329E+02 -0.97148579369E+02  0.11031221418E+03  0.00000000000E+00 0.  1.
</event>
<event>
 8    1  0.7114239E-009  0.1027628E+03  0.7561462E-02  0.1274591E+00
         -1   -1    0    0    0  501 -0.00000000000E+00  0.00000000000E+00  0.26734902879E+02  0.26734902879E+02  0.00000000000E+00 0.  1.
          1   -1    0    0  501    0  0.00000000000E+00 -0.00000000000E+00 -0.56099675640E+03  0.56099675640E+03  0.00000000000E+00 0. -1.
         25    2    1    2    0    0  0.55755038465E+02 -0.84058050894E+01 -0.30739026333E+03  0.33662328650E+03  0.12508869313E+03 0.  0.
         23    2    1    2    0    0 -0.55755038465E+02  0.84058050894E+01 -0.22687159019E+03  0.25110837278E+03  0.91681048050E+02 0.  0.
          5    1    3    3  502    0 -0.15949770242E+02  0.23956472626E+02 -0.12966685171E+02  0.31842033160E+02  0.41800000000E+01 0. -1.
         -5    1    3    3    0  502  0.71704808707E+02 -0.32362277715E+02 -0.29442357816E+03  0.30478125334E+03  0.41800000000E+01 0. -1.
        -11    1    4    4    0    0 -0.32210383498E+02 -0.35442973369E+02 -0.16440542266E+03  0.17123917824E+03  0.00000000000E+00 0.  1.
         11    1    4    4    0    0 -0.23544654967E+02  0.43848778458E+02 -0.62466167534E+02  0.79869194538E+02  0.00000000000E+00 0. -1.
</event>
<event>
 8    1  0.7114239E-009  0.9951654E+02  0.7561462E-02  0.1281316E+00
          1   -1    0    0  501    0  0.00000000000E+00  0.00000000000E+00  0.33461277310E+03  0.33461277310E+03  0.00000000000E+00 0. -1.
         -1   -1    0    0    0  501 -0.00000000000E+00 -0.00000000000E+00 -0.45930629211E+02  0.45930629211E+02  0.00000000000E+00 0.  1.
         25    2    1    2    0    0  0.49423670847E+02 -0.19254252325E+02  0.11886581072E+03  0.18052662711E+03  0.12508939469E+03 0.  0.
         23    2    1    2    0    0 -0.49423670847E+02  0.19254252325E+02  0.16981633317E+03  0.20001677521E+03  0.91409506512E+02 0.  0.
          5    1    3    3  502    0  0.43396545129E+02  0.23897343272E+02  0.12665937218E+03  0.13606767472E+03  0.41800000000E+01 0. -1.
         -5    1    3    3    0  502  0.60271257181E+01 -0.43151595597E+02 -0.77935614525E+01  0.44458952384E+02  0.41800000000E+01 0. -1.
        -11    1    4    4    0    0 -0.71575826095E+02 -0.61495877253E+01  0.11072526180E+03  0.13198863554E+03  0.00000000000E+00 0. -1.
         11    1    4    4    0    0  0.22152155248E+02  0.25403840050E+02  0.59091071368E+02  0.68028139669E+02  0.00000000000E+00 0.  1.
</event>
<event>
 8    1  0.7114239E-009  0.1391210E+03  0.7561462E-02  0.1214517E+00
          2   -1    0    0  501    0  0.00000000000E+00  0.00000000000E+00  0.14821155206E+03  0.14821155206E+03  0.00000000000E+00 0. -1.
         -2   -1    0    0    0  501 -0.00000000000E+00 -0.00000000000E+00 -0.20252862883E+03  0.20252862883E+03  0.00000000000E+00 0.  1.
         25    2    1    2    0    0 -0.12793068068E+03 -0.33955513417E+02 -0.58033912999E+01  0.18220874906E+03  0.12508842046E+03 0.  0.
         23    2    1    2    0    0  0.12793068068E+03  0.33955513417E+02 -0.48513685477E+02  0.16853143183E+03  0.92358160901E+02 0.  0.
          5    1    3    3  502    0 -0.93249364639E+02 -0.19671254416E+02 -0.62540218912E+02  0.11406644396E+03  0.41800000000E+01 0.  1.
         -5    1    3    3    0  502 -0.34681316041E+02 -0.14284259002E+02  0.56736827612E+02  0.68142305105E+02  0.41800000000E+01 0.  1.
        -11    1    4    4    0    0  0.10876965558E+03  0.50380875314E+02 -0.71597306231E+01  0.12008468810E+03  0.00000000000E+00 0. -1.
         11    1    4    4    0    0  0.19161025100E+02 -0.16425361896E+02 -0.41353954854E+02  0.48446743733E+02  0.00000000000E+00 0.  1.
</event>
<event>
 8    1  0.7114239E-009  0.8283917E+02  0.7561462E-02  0.1321182E+00
         -1   -1    0    0    0  501 -0.00000000000E+00  0.00000000000E+00  0.13083324910E+03  0.13083324910E+03  0.00000000000E+00 0.  1.
          1   -1    0    0  501    0  0.00000000000E+00 -0.00000000000E+00 -0.89160113245E+02  0.89160113245E+02  0.00000000000E+00 0. -1.
         25    2    1    2    0    0 -0.35778911747E+01  0.60600608868E+01  0.29031712702E+02  0.12861170480E+03  0.12509438287E+03 0.  0.
         23    2    1    2    0    0  0.35778911747E+01 -0.60600608868E+01  0.12641423151E+02  0.91381657544E+02  0.90229020348E+02 0.  0.
          5    1    3    3  502    0 -0.23821188707E+02  0.61449483115E+02  0.18284680703E+02  0.68522185859E+02  0.41800000000E+01 0. -1.
         -5    1    3    3    0  502  0.20243297532E+02 -0.55389422228E+02  0.10747031999E+02  0.60089518940E+02  0.41800000000E+01 0. -1.
        -11    1    4    4    0    0  0.19184433501E+02 -0.13271935118E+02  0.47274088041E+02  0.52716469445E+02  0.00000000000E+00 0.  1.
         11    1    4    4    0    0 -0.15606542327E+02  0.72118742314E+01 -0.34632664891E+02  0.38665188099E+02  0.00000000000E+00 0. -1.
</event>
<event>
 8    1  0.7114239E-009  0.8116594E+02  0.7561462E-02  0.1325775E+00
         -2   -1    0    0    0  501 -0.00000000000E+00  0.00000000000E+00  0.71087525653E+02  0.71087525653E+02  0.00000000000E+00 0.  1.
          2   -1    0    0  501    0  0.00000000000E+00 -0.00000000000E+00 -0.22865099901E+03  0.22865099901E+03  0.00000000000E+00 0. -1.
         25    2    1    2    0    0 -0.98105561001E+01 -0.32507563283E+02 -0.15755087986E+03  0.20401647631E+03  0.12508978447E+03 0.  0.
         23    2    1    2    0    0  0.98105561001E+01  0.32507563283E+02 -0.12593498364E-01  0.95722048358E+02  0.89497048563E+02 0.  0.
          5    1    3    3  502    0  0.39428659518E+02 -0.77349470851E+01 -0.14046436327E+03  0.14615799104E+03  0.41800000000E+01 0. -1.
         -5    1    3    3    0  502 -0.49239215618E+02 -0.24772616198E+02 -0.17086516595E+02  0.57858485266E+02  0.41800000000E+01 0. -1.
        -11    1    4    4    0    0 -0.21853540301E+02  0.83264020368E+00  0.33345290191E+02  0.39877047174E+02  0.00000000000E+00 0.  1.
         11    1    4    4    0    0  0.31664096401E+02  0.31674923080E+02 -0.33357883689E+02  0.55845001184E+02  0.00000000000E+00 0. -1.
</event>
<event>
 8    1  0.7114239E-009  0.1188057E+03  0.7561462E-02  0.1245080E+00
         -2   -1    0    0    0  501 -0.00000000000E+00  0.00000000000E+00  0.47869340051E+02  0.47869340051E+02  0.00000000000E+00 0.  1.
          2   -1    0    0  501    0  0.00000000000E+00 -0.00000000000E+00 -0.56304438521E+03  0.56304438521E+03  0.00000000000E+00 0. -1.
         25    2    1    2    0    0  0.55396112206E+02 -0.86317866657E+02 -0.14777880971E+03  0.21909048487E+03  0.12507022271E+03 0.  0.
         23    2    1    2    0    0 -0.55396112206E+02  0.86317866657E+02 -0.36739623545E+03  0.39182324040E+03  0.89587691892E+02 0.  0.
          5    1    3    3  502    0  0.64492620365E+02 -0.95923817851E+02 -0.60148550906E+02  0.13036869827E+03  0.41800000000E+01 0. -1.
         -5    1    3    3    0  502 -0.90965081585E+01  0.96059511935E+01 -0.87630258801E+02  0.88721786595E+02  0.41800000000E+01 0. -1.
        -11    1    4    4    0    0 -0.16628502887E+02  0.40290636198E+01 -0.44879048584E+01  0.17688463809E+02  0.00000000000E+00 0.  1.
         11    1    4    4    0    0 -0.38767609320E+02  0.82288803037E+02 -0.36290833059E+03  0.37413477659E+03  0.00000000000E+00 0. -1.
</event>
<event>
 8    1  0.7114239E-009  0.1259557E+03  0.7561462E-02  0.1233583E+00
          1   -1    0    0  501    0  0.00000000000E+00  0.00000000000E+00  0.86067029750E+02  0.86067029750E+02  0.00000000000E+00 0. -1.
         -1   -1    0    0    0  501 -0.00000000000E+00 -0.00000000000E+00 -0.27877414346E+03  0.27877414346E+03  0.00000000000E+00 0.  1.
         25    2    1    2    0    0 -0.10663073587E+03  0.12398203489E+02 -0.76566870268E+02  0.18175089434E+03  0.12508825960E+03 0.  0.
         23    2    1    2    0    0  0.10663073587E+03 -0.12398203489E+02 -0.11614024344E+03  0.18309027887E+03  0.92247844353E+02 0.  0.
          5    1    3    3  502    0  0.65297202713E+01  0.28517292045E+02 -0.59058113981E+02  0.66039430793E+02  0.41800000000E+01 0. -1.
         -5    1    3    3    0  502 -0.11316045614E+03 -0.16119088556E+02 -0.17508756286E+02  0.11571146355E+03  0.41800000000E+01 0. -1.
        -11    1    4    4    0    0  0.59911906199E+02 -0.11355498910E+01 -0.12076165466E+03  0.13481136159E+03  0.00000000000E+00 0.  1.
         11    1    4    4    0    0  0.46718829669E+02 -0.11262653598E+02  0.46214112187E+01  0.48278917277E+02  0.00000000000E+00 0. -1.
</event>
<event>
 8    1  0.7114239E-009  0.1396636E+03  0.7561462E-02  0.1213782E+00
         -2   -1    0    0    0  501 -0.00000000000E+00  0.00000000000E+00  0.23255056279E+02  0.23255056279E+02  0.00000000000E+00 0.  1.
          2   -1    0    0  501    0  0.00000000000E+00 -0.00000000000E+00 -0.86887979223E+03  0.86887979223E+03  0.00000000000E+00 0. -1.
         25    2    1    2    0    0  0.72470185162E+02  0.51202122501E+02 -0.38754005900E+03  0.41678583041E+03  0.12509814553E+03 0.  0.
         23    2    1    2    0    0 -0.72470185162E+02 -0.51202122501E+02 -0.45808467695E+03  0.47534901809E+03  0.90782887504E+02 0.  0.
          5    1    3    3  502    0  0.48277731995E+02 -0.36969670876E+02 -0.13332595456E+03  0.14659733466E+03  0.41800000000E+01 0.  1.
         -5    1    3    3    0  502  0.24192453167E+02  0.88171793377E+02 -0.25421410444E+03  0.27018849575E+03  0.41800000000E+01 0.  1.
        -11    1    4    4    0    0 -0.29610964666E+02  0.25440126106E+02 -0.13263052642E+03  0.13825652166E+03  0.00000000000E+00 0.  1.
         11    1    4    4    0    0 -0.42859220496E+02 -0.76642248607E+02 -0.32545415053E+03  0.33709249643E+03  0.00000000000E+00 0. -1.
</event>
<event>
 8    1  0.7114239E-009  0.1090714E+03  0.7561462E-02  0.1262299E+00
          2   -1    0    0  501    0  0.00000000000E+00  0.00000000000E+00  0.31206246369E+03  0.31206246369E+03  0.00000000000E+00 0. -1.
         -2   -1    0    0    0  501 -0.00000000000E+00 -0.00000000000E+00 -0.46449865564E+02  0.46449865564E+02  0.00000000000E+00 0.  1.
         25    2    1    2    0    0  0.24927025467E+02  0.37347871221E+02  0.19280496035E+03  0.23417567382E+03  0.12509305892E+03 0.  0.
         23    2    1    2    0    0 -0.24927025467E+02 -0.37347871221E+02  0.72807637781E+02  0.12433665544E+03  0.90235423659E+02 0.  0.
          5    1    3    3  502    0 -0.23896667680E+02 -0.36619024179E+02  0.70807231848E+02  0.83325507139E+02  0.41800000000E+01 0. -1.
         -5    1    3    3    0  502  0.48823693148E+02  0.73966895400E+02  0.12199772850E+03  0.15085016668E+03  0.41800000000E+01 0. -1.
        -11    1    4    4    0    0 -0.31940723237E+02  0.13125617430E+02  0.63859679323E+02  0.72598555613E+02  0.00000000000E+00 0. -1.
         11    1    4    4    0    0  0.70136977700E+01 -0.50473488650E+02  0.89479584578E+01  0.51738099825E+02  0.00000000000E+00 0.  1.
</event>
<event>
 8    1  0.7114239E-009  0.1473533E+03  0.7561462E-02  0.1203763E+00
         -2   -1    0    0    0  501 -0.00000000000E+00  0.00000000000E+00  0.25679595634E+02  0.25679595634E+02  0.00000000000E+00 0. -1.
          2   -1    0    0  501    0  0.00000000000E+00 -0.00000000000E+00 -0.12131510136E+04  0.12131510136E+04  0.00000000000E+00 0.  1.
         25    2    1    2    0    0  0.11502178901E+03 -0.69447862996E+02 -0.72911232786E+03  0.75186762728E+03  0.12508846748E+03 0.  0.
         23    2    1    2    0    0 -0.11502178901E+03  0.69447862996E+02 -0.45835909010E+03  0.48696298194E+03  0.94799117534E+02 0.  0.
          5    1    3    3  502    0  0.73289261421E+02 -0.74019534265E+02 -0.24950051451E+03  0.27040374707E+03  0.41800000000E+01 0. -1.
         -5    1    3    3    0  502  0.41732527590E+02  0.45716712691E+01 -0.47961181335E+03  0.48146388021E+03  0.41800000000E+01 0. -1.
        -11    1    4    4    0    0 -0.59533460202E+02  0.20251226259E+00 -0.29609834454E+03  0.30202401152E+03  0.00000000000E+00 0.  1.
         11    1    4    4    0    0 -0.55488328809E+02  0.69245350733E+02 -0.16226074555E+03  0.18493897042E+03  0.00000000000E+00 0. -1.
</event>
<event>
 8    1  0.7114239E-009  0.1222667E+03  0.7561462E-02  0.1239404E+00
          1   -1    0    0  501    0  0.00000000000E+00  0.00000000000E+00  0.12045457837E+03  0.12045457837E+03  0.00000000000E+00 0. -1.
         -1   -1    0    0    0  501 -0.00000000000E+00 -0.00000000000E+00 -0.20783076189E+03  0.20783076189E+03  0.00000000000E+00 0.  1.
         25    2    1    2    0    0 -0.71769020250E+02  0.85992588204E+02 -0.74514051941E+02  0.18370157072E+03  0.12509358759E+03 0.  0.
         23    2    1    2    0    0  0.71769020250E+02 -0.85992588204E+02 -0.12862131577E+02  0.14458376953E+03  0.90518034062E+02 0.  0.
          5    1    3    3  502    0 -0.76900751272E+02  0.47516553299E+02 -0.10169664938E+03  0.13612945779E+03  0.41800000000E+01 0. -1.
         -5    1    3    3    0  502  0.51317310224E+01  0.38476034905E+02  0.27182597438E+02  0.47572112932E+02  0.41800000000E+01 0. -1.
        -11    1    4    4    0    0  0.45055567985E+02 -0.33652517340E+02 -0.49849144850E+02  0.75149406998E+02  0.00000000000E+00 0.  1.
         11    1    4    4    0    0  0.26713452265E+02 -0.52340070864E+02  0.36987013273E+02  0.69434362537E+02  0.00000000000E+00 0. -1.
</event>
<event>
 8    1  0.7114239E-009  0.9949862E+02  0.7561462E-02  0.1281354E+00
          1   -1    0    0  501    0  0.00000000000E+00  0.00000000000E+00  0.44157769920E+03  0.44157769920E+03  0.00000000000E+00 0. -1.
         -1   -1    0    0    0  501 -0.00000000000E+00 -0.00000000000E+00 -0.39304319716E+02  0.39304319716E+02  0.00000000000E+00 0.  1.
         25    2    1    2    0    0 -0.47155106580E+02 -0.45449313286E+02  0.28521847964E+03  0.31825425416E+03  0.12508774923E+03 0.  0.
         23    2    1    2    0    0  0.47155106580E+02  0.45449313286E+02  0.11705489985E+03  0.16262776476E+03  0.91960296527E+02 0.  0.
          5    1    3    3  502    0  0.13249878801E+02 -0.18326728567E+02 -0.23628254787E+01  0.23118901627E+02  0.41800000000E+01 0. -1.
         -5    1    3    3    0  502 -0.60404985381E+02 -0.27122584719E+02  0.28758130512E+03  0.29513535254E+03  0.41800000000E+01 0. -1.
        -11    1    4    4    0    0  0.15006434658E+02  0.68480677802E+02  0.55280743081E+02  0.89279095364E+02  0.00000000000E+00 0.  1.
         11    1    4    4    0    0  0.32148671922E+02 -0.23031364517E+02  0.61774156764E+02  0.73348669393E+02  0.00000000000E+00 0. -1.
</event>
<event>
 8    1  0.7114239E-009  0.9812007E+02  0.7561462E-02  0.1284300E+00
         -2   -1    0    0    0  501 -0.00000000000E+00  0.00000000000E+00  0.25689575492E+03  0.25689575492E+03  0.00000000000E+00 0.  1.
          2   -1    0    0  501    0  0.00000000000E+00 -0.00000000000E+00 -0.49257232369E+02  0.49257232369E+02  0.00000000000E+00 0. -1.
         25    2    1    2    0    0 -0.39811689998E+01 -0.26044177249E+02  0.11542364377E+03  0.17223340318E+03  0.12509028242E+03 0.  0.
         23    2    1    2    0    0  0.39811689998E+01  0.26044177249E+02  0.92214878786E+02  0.13391958411E+03  0.93470435236E+02 0.  0.
          5    1    3    3  502    0 -0.23742825522E+02  0.44032440444E+02  0.25048246569E+02  0.56102269397E+02  0.41800000000E+01 0.  1.
         -5    1    3    3    0  502  0.19761656523E+02 -0.70076617694E+02  0.90375397200E+02  0.11613113379E+03  0.41800000000E+01 0.  1.
        -11    1    4    4    0    0 -0.32070350315E+02  0.15002073177E+02  0.12250176314E+01  0.35426970476E+02  0.00000000000E+00 0. -1.
         11    1    4    4    0    0  0.36051519315E+02  0.11042104072E+02  0.90989861155E+02  0.98492613633E+02  0.00000000000E+00 0.  1.
</event>
<event>
 8    1  0.7114239E-009  0.1144958E+03  0.7561462E-02  0.1252464E+00
         -2   -1    0    0    0  501 -0.00000000000E+00  0.00000000000E+00  0.34428845556E+02  0.34428845556E+02  0.00000000000E+00 0.  1.
          2   -1    0    0  501    0  0.00000000000E+00 -0.00000000000E+00 -0.56213901697E+03  0.56213901697E+03  0.00000000000E+00 0. -1.
         25    2    1    2    0    0 -0.73187360885E+02  0.42278801937E+02 -0.24822612630E+03  0.29053279745E+03  0.12509680144E+03 0.  0.
         23    2    1    2    0    0  0.73187360885E+02 -0.42278801937E+02 -0.27948404511E+03  0.30603506507E+03  0.91663747992E+02 0.  0.
          5    1    3    3  502    0  0.26763331116E+02  0.21435356547E+02 -0.18683180615E+02  0.39271924330E+02  0.41800000000E+01 0.  1.
         -5    1    3    3    0  502 -0.99950692001E+02  0.20843445391E+02 -0.22954294569E+03  0.25126087312E+03  0.41800000000E+01 0.  1.
        -11    1    4    4    0    0  0.39509505024E+01 -0.18712183591E+02 -0.21802395344E+01  0.19248617328E+02  0.00000000000E+00 0.  1.
         11    1    4    4    0    0  0.69236410383E+02 -0.23566618346E+02 -0.27730380557E+03  0.28678644774E+03  0.00000000000E+00 0. -1.
</event>
<event>
 8    1  0.7114239E-009  0.1226040E+03  0.7561462E-02  0.1238862E+00
          2   -1    0    0  501    0  0.00000000000E+00  0.00000000000E+00  0.17273055234E+04  0.17273055234E+04  0.00000000000E+00 0. -1.
         -2   -1    0    0    0  501 -0.00000000000E+00 -0.00000000000E+00 -0.23254447732E+02  0.23254447732E+02  0.00000000000E+00 0.  1.
         25    2    1    2    0    0  0.64848886512E+02 -0.73987242152E+02  0.14938531093E+04  0.15023061845E+04  0.12508904754E+03 0.  0.
         23    2    1    2    0    0 -0.64848886512E+02  0.73987242152E+02  0.21019796640E+03  0.24825378664E+03  0.88132102091E+02 0.  0.
          5    1    3    3  502    0  0.16572019237E+02 -0.65873868943E+02  0.13169429325E+04  0.13187001776E+04  0.41800000000E+01 0. -1.
         -5    1    3    3    0  502  0.48276867275E+02 -0.81133732086E+01  0.17691017678E+03  0.18360600695E+03  0.41800000000E+01 0. -1.
        -11    1    4    4    0    0  0.13513086944E+02  0.40695606420E+02  0.43556832324E+02  0.61122283521E+02  0.00000000000E+00 0.  1.
         11    1    4    4    0    0 -0.78361973455E+02  0.33291635732E+02  0.16664113407E+03  0.18713150312E+03  0.00000000000E+00 0. -1.
</event>
<event>
 8    1  0.7114239E-009  0.1095560E+03  0.7561462E-02  0.1261394E+00
          4   -1    0    0  501    0  0.00000000000E+00  0.00000000000E+00  0.99433466001E+02  0.99433466001E+02  0.00000000000E+00 0. -1.
         -4   -1    0    0    0  501 -0.00000000000E+00 -0.00000000000E+00 -0.17252788622E+03  0.17252788622E+03  0.00000000000E+00 0.  1.
         25    2    1    2    0    0 -0.41690098934E+02  0.49358994995E+02 -0.76295788891E+02  0.16012369843E+03  0.12507668312E+03 0.  0.
         23    2    1    2    0    0  0.41690098934E+02 -0.49358994995E+02  0.32013686743E+01  0.11183765379E+03  0.91230681834E+02 0.  0.
          5    1    3    3  502    0  0.12884495359E+02  0.51281438238E+02 -0.89271275833E+02  0.10383943960E+03  0.41800000000E+01 0.  1.
         -5    1    3    3    0  502 -0.54574594293E+02 -0.19224432426E+01  0.12975486941E+02  0.56284258826E+02  0.41800000000E+01 0.  1.
        -11    1    4    4    0    0 -0.19066975805E+02  0.13897977327E+02  0.49634081860E+01  0.24110967649E+02  0.00000000000E+00 0. -1.
         11    1    4    4    0    0  0.60757074739E+02 -0.63256972322E+02 -0.17620395116E+01  0.87726686142E+02  0.00000000000E+00 0.  1.
</event>
<event>
 8    1  0.7114239E-009  0.1197714E+03  0.7561462E-02  0.1243475E+00
         -2   -1    0    0    0  501 -0.00000000000E+00  0.00000000000E+00  0.21312449900E+02  0.21312449900E+02  0.00000000000E+00 0.  1.
          2   -1    0    0  501    0  0.00000000000E+00 -0.00000000000E+00 -0.11853040275E+04  0.11853040275E+04  0.00000000000E+00 0. -1.
         25    2    1    2    0    0  0.82802182398E+02  0.56965322760E+02 -0.85140409327E+03  0.86639445911E+03  0.12509667992E+03 0.  0.
         23    2    1    2    0    0 -0.82802182398E+02 -0.56965322760E+02 -0.31258748432E+03  0.34022201828E+03  0.89100151310E+02 0.  0.
          5    1    3    3  502    0  0.60804062048E+02 -0.68197206657E+01 -0.67004748971E+03  0.67284823951E+03  0.41800000000E+01 0. -1.
         -5    1    3    3    0  502  0.21998120350E+02  0.63785043426E+02 -0.18135660356E+03  0.19354621959E+03  0.41800000000E+01 0. -1.
        -11    1    4    4    0    0 -0.23310995449E+02 -0.43899026643E+02 -0.49397527611E+02  0.70075978646E+02  0.00000000000E+00 0.  1.
         11    1    4    4    0    0 -0.59491186949E+02 -0.13066296116E+02 -0.26318995671E+03  0.27014603964E+03  0.00000000000E+00 0. -1.
</event>
<event>
 8    1  0.7114239E-009  0.8754386E+02  0.7561462E-02  0.1308911E+00
         -1   -1    0    0    0  501 -0.00000000000E+00  0.00000000000E+00  0.83136028322E+02  0.83136028322E+02  0.00000000000E+00 0.  1.
          1   -1    0    0  501    0  0.00000000000E+00 -0.00000000000E+00 -0.19745508356E+03  0.19745508356E+03  0.00000000000E+00 0. -1.
         25    2    1    2    0    0  0.28749712038E+02 -0.48491124664E+02 -0.26860951019E+02  0.13981267786E+03  0.12509252210E+03 0.  0.
         23    2    1    2    0    0 -0.28749712038E+02  0.48491124664E+02 -0.87458104216E+02  0.14077843402E+03  0.94824640148E+02 0.  0.
          5    1    3    3  502    0 -0.24975768038E+02 -0.27449174235E+02 -0.61816305382E+02  0.72221701492E+02  0.41800000000E+01 0. -1.
         -5    1    3    3    0  502  0.53725480076E+02 -0.21041950430E+02  0.34955354364E+02  0.67590976365E+02  0.41800000000E+01 0. -1.
        -11    1    4    4    0    0  0.91737103259E+01  0.39987523663E+02  0.41805741733E+01  0.41238770718E+02  0.00000000000E+00 0.  1.
         11    1    4    4    0    0 -0.37923422364E+02  0.85036010008E+01 -0.91638678390E+02  0.99539663304E+02  0.00000000000E+00 0. -1.
</event>
<event>
 8    1  0.7114239E-009  0.1393794E+03  0.7561462E-02  0.1214166E+00
          2   -1    0    0  501    0  0.00000000000E+00  0.00000000000E+00  0.13679190630E+04  0.13679190630E+04  0.00000000000E+00 0. -1.
         -2   -1    0    0    0  501 -0.00000000000E+00 -0.00000000000E+00 -0.15173990754E+02  0.15173990754E+02  0.00000000000E+00 0.  1.
         25    2    1    2    0    0  0.88437217992E+02 -0.29909613979E+02  0.80635683059E+03  0.82132501945E+03  0.12509085814E+03 0.  0.
         23    2    1    2    0    0 -0.88437217992E+02  0.29909613979E+02  0.54638824168E+03  0.56176803433E+03  0.91255066806E+02 0.  0.
          5    1    3    3  502    0 -0.18432029724E+02 -0.41574387822E+02  0.17464321763E+03  0.18051563729E+03  0.41800000000E+01 0. -1.
         -5    1    3    3    0  502  0.10686924772E+03  0.11664773842E+02  0.63171361296E+03  0.64080938216E+03  0.41800000000E+01 0. -1.
        -11    1    4    4    0    0 -0.57338735886E+02 -0.24880609603E+02  0.19486750104E+03  0.20464632499E+03  0.00000000000E+00 0.  1.
         11    1    4    4    0    0 -0.31098482106E+02  0.54790223583E+02  0.35152074064E+03  0.35712170935E+03  0.00000000000E+00 0. -1.
</event>
<event>
 8    1  0.7114239E-009  0.1156147E+03  0.7561462E-02  0.1250512E+00
          2   -1    0    0  501    0  0.00000000000E+00  0.00000000000E+00  0.49410714983E+03  0.49410714983E+03  0.00000000000E+00 0. -1.
         -2   -1    0    0    0  501 -0.00000000000E+00 -0.00000000000E+00 -0.38031773507E+02  0.38031773507E+02  0.00000000000E+00 0.  1.
         25    2    1    2    0    0 -0.82557868630E+02  0.32341562740E+01  0.27415524230E+03  0.31246439710E+03  0.12508653459E+03 0.  0.
         23    2    1    2    0    0  0.82557868630E+02 -0.32341562740E+01  0.18192013403E+03  0.21967452624E+03  0.91300059555E+02 0.  0.
          5    1    3    3  502    0 -0.22917269270E+02  0.61104673840E+02  0.10048704228E+03  0.11989203669E+03  0.41800000000E+01 0.  1.
         -5    1    3    3    0  502 -0.59640599361E+02 -0.57870517566E+02  0.17366820001E+03  0.19257236040E+03  0.41800000000E+01 0.  1.
        -11    1    4    4    0    0  0.38272451660E+02 -0.20035998055E+01  0.66569562814E+01  0.38898715084E+02  0.00000000000E+00 0.  1.
         11    1    4    4    0    0  0.44285416970E+02 -0.12305564684E+01  0.17526317775E+03  0.18077581116E+03  0.00000000000E+00 0. -1.
</event>
<event>
 8    1  0.7114239E-009  0.1166240E+03  0.7561462E-02  0.1248773E+00
         -1   -1    0    0    0  501 -0.00000000000E+00  0.00000000000E+00  0.18154479318E+02  0.18154479318E+02  0.00000000000E+00 0.  1.
          1   -1    0    0  501    0  0.00000000000E+00 -0.00000000000E+00 -0.92163120086E+03  0.92163120086E+03  0.00000000000E+00 0. -1.
         25    2    1    2    0    0 -0.56536588360E+02  0.38101409688E+02 -0.54426719125E+03  0.56260426212E+03  0.12509467231E+03 0.  0.
         23    2    1    2    0    0  0.56536588360E+02 -0.38101409688E+02 -0.35920953029E+03  0.37718141806E+03  0.92661924392E+02 0.  0.
          5    1    3    3  502    0 -0.93280499248E+02  0.33271920814E+02 -0.45827634741E+03  0.46887413583E+03  0.41800000000E+01 0. -1.
         -5    1    3    3    0  502  0.36743910888E+02  0.48294888740E+01 -0.85990843834E+02  0.93730126285E+02  0.41800000000E+01 0. -1.
        -11    1    4    4    0    0  0.16654056116E+02  0.20206538288E+02 -0.27263112932E+02  0.37801310843E+02  0.00000000000E+00 0.  1.
         11    1    4    4    0    0  0.39882532245E+02 -0.58307947976E+02 -0.33194641736E+03  0.33938010721E+03  0.00000000000E+00 0. -1.
</event>
<event>
 8    1  0.7114239E-009  0.1070079E+03  0.7561462E-02  0.1266213E+00
         -2   -1    0    0    0  501 -0.00000000000E+00  0.00000000000E+00  0.28989905045E+02  0.28989905045E+02  0.00000000000E+00 0.  1.
          2   -1    0    0  501    0  0.00000000000E+00 -0.00000000000E+00 -0.50584372977E+03  0.50584372977E+03  0.00000000000E+00 0. -1.
         25    2    1    2    0    0 -0.13229804976E+02  0.12278133659E+02 -0.15541635482E+03  0.20032428139E+03  0.12509913695E+03 0.  0.
         23    2    1    2    0    0  0.13229804976E+02 -0.12278133659E+02 -0.32143746990E+03  0.33450935342E+03  0.90822244846E+02 0.  0.
          5    1    3    3  502    0 -0.65926725198E+02 -0.38109686654E+01 -0.56448874479E+02  0.86975884057E+02  0.41800000000E+01 0. -1.
         -5    1    3    3    0  502  0.52696920222E+02  0.16089102324E+02 -0.98967480339E+02  0.11334839734E+03  0.41800000000E+01 0. -1.
        -11    1    4    4    0    0  0.22588219691E+02  0.36499146322E+02 -0.15122111057E+03  0.15719490970E+03  0.00000000000E+00 0. -1.
         11    1    4    4    0    0 -0.93584147149E+01 -0.48777279981E+02 -0.17021635933E+03  0.17731444372E+03  0.00000000000E+00 0.  1.
</event>
<event>
 8    1  0.7114239E-009  0.1799328E+03  0.7561462E-02  0.1167868E+00
          3   -1    0    0  501    0  0.00000000000E+00  0.00000000000E+00  0.40022401876E+03  0.40022401876E+03  0.00000000000E+00 0. -1.
         -3   -1    0    0    0  501 -0.00000000000E+00 -0.00000000000E+00 -0.86883493137E+02  0.86883493137E+02  0.00000000000E+00 0.  1.
         25    2    1    2    0    0  0.18394872701E+02  0.14207591600E+03  0.10198923143E+03  0.21580822460E+03  0.12508976468E+03 0.  0.
         23    2    1    2    0    0 -0.18394872701E+02 -0.14207591600E+03  0.21135129419E+03  0.27129928730E+03  0.91706032969E+02 0.  0.
          5    1    3    3  502    0  0.38920711181E+02 -0.68931458681E+01  0.22034979840E+02  0.45446121455E+02  0.41800000000E+01 0. -1.
         -5    1    3    3    0  502 -0.20525838480E+02  0.14896906187E+03  0.79954251590E+02  0.17036210314E+03  0.41800000000E+01 0. -1.
        -11    1    4    4    0    0  0.34152398047E+02 -0.87472959919E+02  0.12632859256E+03  0.15740653833E+03  0.00000000000E+00 0.  1.
         11    1    4    4    0    0 -0.52547270748E+02 -0.54602956083E+02  0.85022701630E+02  0.11389274897E+03  0.00000000000E+00 0. -1.
</event>
<event>
 8    1  0.7114239E-009  0.1080988E+03  0.7561462E-02  0.1264132E+00
         -2   -1    0    0    0  501 -0.00000000000E+00  0.00000000000E+00  0.73455719306E+02  0.73455719306E+02  0.00000000000E+00 0.  1.
          2   -1    0    0  501    0  0.00000000000E+00 -0.00000000000E+00 -0.16122327855E+03  0.16122327855E+03  0.00000000000E+00 0. -1.
         25    2    1    2    0    0 -0.10204039272E+02  0.66407070153E+01 -0.43553108531E+02  0.13301271496E+03  0.12508911892E+03 0.  0.
         23    2    1    2    0    0  0.10204039272E+02 -0.66407070153E+01 -0.44214450714E+02  0.10166628289E+03  0.90735296430E+02 0.  0.
          5    1    3    3  502    0  0.18815988984E+02 -0.54266236856E+02 -0.25933215239E+02  0.63157501190E+02  0.41800000000E+01 0.  1.
         -5    1    3    3    0  502 -0.29020028257E+02  0.60906943871E+02 -0.17619893292E+02  0.69855213774E+02  0.41800000000E+01 0.  1.
        -11    1    4    4    0    0 -0.35752544573E+02 -0.22678730486E+02 -0.15111797364E+02  0.44954818201E+02  0.00000000000E+00 0.  1.
         11    1    4    4    0    0  0.45956583845E+02  0.16038023471E+02 -0.29102653351E+02  0.56711464693E+02  0.00000000000E+00 0. -1.
</event>
<event>
 8    1  0.7114239E-009  0.1234066E+03  0.7561462E-02  0.1237581E+00
          1   -1    0    0  501    0  0.00000000000E+00  0.00000000000E+00  0.23886136790E+03  0.23886136790E+03  0.00000000000E+00 0. -1.
         -1   -1    0    0    0  501 -0.00000000000E+00 -0.00000000000E+00 -0.79242142224E+02  0.79242142224E+02  0.00000000000E+00 0.  1.
         25    2    1    2    0    0  0.59906034642E+02 -0.47386273436E+02  0.12930125052E+03  0.19544964267E+03  0.12509019761E+03 0.  0.
         23    2    1    2    0    0 -0.59906034642E+02  0.47386273436E+02  0.30317975158E+02  0.12265386745E+03  0.91052730256E+02 0.  0.
          5    1    3    3  502    0 -0.25730559846E+02 -0.32062883288E+02  0.91703890822E+02  0.10058412492E+03  0.41800000000E+01 0.  1.
         -5    1    3    3    0  502  0.85636594488E+02 -0.15323390148E+02  0.37597359696E+02  0.94865517746E+02  0.41800000000E+01 0.  1.
        -11    1    4    4    0    0 -0.73249524337E+02  0.43974157077E+01  0.23965559860E+02  0.77195713222E+02  0.00000000000E+00 0. -1.
         11    1    4    4    0    0  0.13343489695E+02  0.42988857728E+02  0.63524152980E+01  0.45458154232E+02  0.00000000000E+00 0.  1.
</event>
<event>
 8    1  0.7114239E-009  0.1300863E+03  0.7561462E-02  0.1227328E+00
         -2   -1    0    0    0  501 -0.00000000000E+00  0.00000000000E+00  0.18562451709E+03  0.18562451709E+03  0.00000000000E+00 0.  1.
          2   -1    0    0  501    0  0.00000000000E+00 -0.00000000000E+00 -0.13233223120E+03  0.13233223120E+03  0.00000000000E+00 0. -1.
         25    2    1    2    0    0 -0.75656243740E+02 -0.72546799958E+02 -0.56507472948E+01  0.16329816026E+03  0.12508977895E+03 0.  0.
         23    2    1    2    0    0  0.75656243740E+02  0.72546799958E+02  0.58943033189E+02  0.15465858803E+03  0.97252723807E+02 0.  0.
          5    1    3    3  502    0 -0.85944279998E+02 -0.67584561508E+02  0.39661950733E+02  0.11638142014E+03  0.41800000000E+01 0. -1.
         -5    1    3    3    0  502  0.10288036258E+02 -0.49622384503E+01 -0.45312698028E+02  0.46916740116E+02  0.41800000000E+01 0. -1.
        -11    1    4    4    0    0  0.57062079356E+02  0.94149550904E+02  0.30154606101E+02  0.11414691895E+03  0.00000000000E+00 0. -1.
         11    1    4    4    0    0  0.18594164384E+02 -0.21602750945E+02  0.28788427088E+02  0.40511669081E+02  0.00000000000E+00 0.  1.
</event>
<event>
 8    1  0.7114239E-009  0.1044866E+03  0.7561462E-02  0.1271134E+00
         -2   -1    0    0    0  501 -0.00000000000E+00  0.00000000000E+00  0.10200341311E+03  0.10200341311E+03  0.00000000000E+00 0.  1.
          2   -1    0    0  501    0  0.00000000000E+00 -0.00000000000E+00 -0.14991415004E+03  0.14991415004E+03  0.00000000000E+00 0. -1.
         25    2    1    2    0    0 -0.20081064668E+02  0.59132604293E+02 -0.25047614143E+02  0.14203962812E+03  0.12509180203E+03 0.  0.
         23    2    1    2    0    0  0.20081064668E+02 -0.59132604293E+02 -0.22863122794E+02  0.10987793503E+03  0.87467274875E+02 0.  0.
          5    1    3    3  502    0 -0.72661221970E+02  0.31477387219E+02 -0.60515836134E+01  0.79527184966E+02  0.41800000000E+01 0.  1.
         -5    1    3    3    0  502  0.52580157303E+02  0.27655217074E+02 -0.18996030530E+02  0.62512443155E+02  0.41800000000E+01 0.  1.
        -11    1    4    4    0    0 -0.85428367134E+01 -0.18933156042E+02  0.30687510503E+02  0.37056278249E+02  0.00000000000E+00 0.  1.
         11    1    4    4    0    0  0.28623901381E+02 -0.40199448251E+02 -0.53550633297E+02  0.72821656782E+02  0.00000000000E+00 0. -1.
</event>
<event>
 8    1  0.7114239E-009  0.1052331E+03  0.7561462E-02  0.1269661E+00
         -2   -1    0    0    0  501 -0.00000000000E+00  0.00000000000E+00  0.13252788002E+02  0.13252788002E+02  0.00000000000E+00 0.  1.
          2   -1    0    0  501    0  0.00000000000E+00 -0.00000000000E+00 -0.11716765567E+04  0.11716765567E+04  0.00000000000E+00 0. -1.
         25    2    1    2    0    0 -0.20985576090E+01 -0.46084600611E+02 -0.85418191707E+03  0.86452469881E+03  0.12509201835E+03 0.  0.
         23    2    1    2    0    0  0.20985576090E+01  0.46084600611E+02 -0.30424185164E+03  0.32040464590E+03  0.89262749602E+02 0.  0.
          5    1    3    3  502    0 -0.25872277884E+02 -0.72916081567E+02 -0.75526642812E+03  0.75923051806E+03  0.41800000000E+01 0.  1.
         -5    1    3    3    0  502  0.23773720275E+02  0.26831480956E+02 -0.98915488945E+02  0.10529418075E+03  0.41800000000E+01 0.  1.
        -11    1    4    4    0    0 -0.35776466624E+02  0.46924774178E+02 -0.14148318457E+03  0.15329507987E+03  0.00000000000E+00 0.  1.
         11    1    4    4    0    0  0.37875024233E+02 -0.84017356773E+00 -0.16275866708E+03  0.16710956604E+03  0.00000000000E+00 0. -1.
</event>
<event>
 8    1  0.7114239E-009  0.2421579E+03  0.7561462E-02  0.1118364E+00
         -1   -1    0    0    0  501 -0.00000000000E+00  0.00000000000E+00  0.20349697775E+03  0.20349697775E+03  0.00000000000E+00 0.  1.
          1   -1    0    0  501    0  0.00000000000E+00 -0.00000000000E+00 -0.30701891048E+03  0.30701891048E+03  0.00000000000E+00 0. -1.
         25    2    1    2    0    0 -0.16700974238E+03 -0.13870236765E+03 -0.11443837578E+03  0.27545309927E+03  0.12509063595E+03 0.  0.
         23    2    1    2    0    0  0.16700974238E+03  0.13870236765E+03  0.10916443055E+02  0.23506278896E+03  0.89469241542E+02 0.  0.
          5    1    3    3  502    0 -0.74095744869E+02 -0.13829190248E+03 -0.62573619932E+02  0.16896082389E+03  0.41800000000E+01 0. -1.
         -5    1    3    3    0  502 -0.92913997508E+02 -0.41046517392E+00 -0.51864755850E+02  0.10649227537E+03  0.41800000000E+01 0. -1.
        -11    1    4    4    0    0  0.94175151423E+02  0.13068946560E+03  0.75672578581E+00  0.16108776551E+03  0.00000000000E+00 0.  1.
         11    1    4    4    0    0  0.72834590954E+02  0.80129020560E+01  0.10159717269E+02  0.73975023445E+02  0.00000000000E+00 0. -1.
</event>
<event>
 8    1  0.7114239E-009  0.2110671E+03  0.7561462E-02  0.1140724E+00
          1   -1    0    0  501    0  0.00000000000E+00  0.00000000000E+00  0.92278725986E+02  0.92278725986E+02  0.00000000000E+00 0. -1.
         -1   -1    0    0    0  501 -0.00000000000E+00 -0.00000000000E+00 -0.50652707906E+03  0.50652707906E+03  0.00000000000E+00 0.  1.
         25    2    1    2    0    0  0.68671283258E+02 -0.16954458765E+03 -0.16852649072E+03  0.27840631834E+03  0.12509111746E+03 0.  0.
         23    2    1    2    0    0 -0.68671283258E+02  0.16954458765E+03 -0.24572186235E+03  0.32039948671E+03  0.93890814766E+02 0.  0.
          5    1    3    3  502    0 -0.17026928370E+02  0.90611543352E+01 -0.24905677035E+01  0.19892112384E+02  0.41800000000E+01 0.  1.
         -5    1    3    3    0  502  0.85698211628E+02 -0.17860574199E+03 -0.16603592302E+03  0.25851420595E+03  0.41800000000E+01 0.  1.
        -11    1    4    4    0    0  0.22589710943E+02  0.36160011311E+02 -0.67236675389E+02  0.79615400369E+02  0.00000000000E+00 0.  1.
         11    1    4    4    0    0 -0.91260994200E+02  0.13338457634E+03 -0.17848518696E+03  0.24078408634E+03  0.00000000000E+00 0. -1.
</event>
<event>
 8    1  0.7114239E-009  0.1569045E+03  0.7561462E-02  0.1192237E+00
          2   -1    0    0  501    0  0.00000000000E+00  0.00000000000E+00  0.89264183977E+02  0.89264183977E+02  0.00000000000E+00 0.  1.
         -2   -1    0    0    0  501 -0.00000000000E+00 -0.00000000000E+00 -0.47851890414E+03  0.47851890414E+03  0.00000000000E+00 0. -1.
         25    2    1    2    0    0 -0.13636626761E+01  0.12712219317E+03 -0.36696869376E+02  0.18208512032E+03  0.12508564765E+03 0.  0.
         23    2    1    2    0    0  0.13636626761E+01 -0.12712219317E+03 -0.35255785079E+03  0.38569796780E+03  0.91126135875E+02 0.  0.
          5    1    3    3  502    0  0.45339886951E+02  0.95142120573E+02  0.13472479374E+02  0.10633300784E+03  0.41800000000E+01 0.  1.
         -5    1    3    3    0  502 -0.46703549627E+02  0.31980072598E+02 -0.50169348750E+02  0.75752112480E+02  0.41800000000E+01 0.  1.
        -11    1    4    4    0    0  0.41923185391E+02 -0.67741658238E+02 -0.23229327698E+03  0.24557412784E+03  0.00000000000E+00 0. -1.
         11    1    4    4    0    0 -0.40559522715E+02 -0.59380534934E+02 -0.12026457381E+03  0.14012383996E+03  0.00000000000E+00 0.  1.
</event>
<event>
 8    1  0.7114239E-009  0.1068765E+03  0.7561462E-02  0.1266466E+00
         -1   -1    0    0    0  501 -0.00000000000E+00  0.00000000000E+00  0.35390752297E+02  0.35390752297E+02  0.00000000000E+00 0.  1.
          1   -1    0    0  501    0  0.00000000000E+00 -0.00000000000E+00 -0.41370350963E+03  0.41370350963E+03  0.00000000000E+00 0. -1.
         25    2    1    2    0    0  0.39568397390E+02 -0.13121623817E+02 -0.27744556336E+03  0.30718328932E+03  0.12509075716E+03 0.  0.
         23    2    1    2    0    0 -0.39568397390E+02  0.13121623817E+02 -0.10086719398E+03  0.14191097261E+03  0.90701147969E+02 0.  0.
          5    1    3    3  502    0 -0.32824129681E+02  0.28873873132E+02 -0.61675756502E+02  0.75713244409E+02  0.41800000000E+01 0.  1.
         -5    1    3    3    0  502  0.72392527070E+02 -0.41995496949E+02 -0.21576980686E+03  0.23147004491E+03  0.41800000000E+01 0.  1.
        -11    1    4    4    0    0 -0.13284223685E+02  0.43725857616E+02 -0.16843544681E+02  0.48704478445E+02  0.00000000000E+00 0.  1.
         11    1    4    4    0    0 -0.26284173705E+02 -0.30604233799E+02 -0.84023649295E+02  0.93206494166E+02  0.00000000000E+00 0. -1.
</event>
<event>
 8    1  0.7114239E-009  0.9013442E+02  0.7561462E-02  0.1302527E+00
          1   -1    0    0  501    0  0.00000000000E+00  0.00000000000E+00  0.34551238439E+02  0.34551238439E+02  0.00000000000E+00 0. -1.
         -1   -1    0    0    0  501 -0.00000000000E+00 -0.00000000000E+00 -0.64840140857E+03  0.64840140857E+03  0.00000000000E+00 0.  1.
         25    2    1    2    0    0 -0.49522577760E+02 -0.35973249926E+02 -0.52040303073E+03  0.53871667989E+03  0.12509910626E+03 0.  0.
         23    2    1    2    0    0  0.49522577760E+02  0.35973249926E+02 -0.93447139408E+02  0.14423596712E+03  0.91241908845E+02 0.  0.
          5    1    3    3  502    0 -0.57222763048E+02  0.20042261812E+01 -0.91318454729E+02  0.10786562987E+03  0.41800000000E+01 0.  1.
         -5    1    3    3    0  502  0.77001852877E+01 -0.37977476107E+02 -0.42908457600E+03  0.43085105002E+03  0.41800000000E+01 0.  1.
        -11    1    4    4    0    0 -0.62771716635E+01 -0.98497895305E+01 -0.65945900332E+02  0.66972255513E+02  0.00000000000E+00 0.  1.
         11    1    4    4    0    0  0.55799749424E+02  0.45823039456E+02 -0.27501239076E+02  0.77263711608E+02  0.00000000000E+00 0. -1.
</event>
<event>
 8    1  0.7114239E-009  0.1029623E+03  0.7561462E-02  0.1274187E+00
         -2   -1    0    0    0  501 -0.00000000000E+00  0.00000000000E+00  0.38972811793E+03  0.38972811793E+03  0.00000000000E+00 0.  1.
          2   -1    0    0  501    0  0.00000000000E+00 -0.00000000000E+00 -0.32755758751E+02  0.32755758751E+02  0.00000000000E+00 0. -1.
         25    2    1    2    0    0 -0.53525601332E+01  0.16233382854E+01  0.26881421672E+03  0.29654713863E+03  0.12509131541E+03 0.  0.
         23    2    1    2    0    0  0.53525601332E+01 -0.16233382854E+01  0.88158142457E+02  0.12593673805E+03  0.89760340806E+02 0.  0.
          5    1    3    3  502    0  0.16794731037E+02  0.55297004735E+02  0.18951245447E+03  0.19817231019E+03  0.41800000000E+01 0. -1.
         -5    1    3    3    0  502 -0.22147291170E+02 -0.53673666450E+02  0.79301762245E+02  0.98374828444E+02  0.41800000000E+01 0. -1.
        -11    1    4    4    0    0  0.47096210588E+02 -0.72381042507E+01  0.50597757507E+02  0.69502347224E+02  0.00000000000E+00 0.  1.
         11    1    4    4    0    0 -0.41743650455E+02  0.56147659652E+01  0.37560384949E+02  0.56434390824E+02  0.00000000000E+00 0. -1.
</event>
<event>
 8    1  0.7114239E-009  0.1084140E+03  0.7561462E-02  0.1263535E+00
          2   -1    0    0  501    0  0.00000000000E+00  0.00000000000E+00  0.12948194132E+04  0.12948194132E+04  0.00000000000E+00 0.  1.
         -2   -1    0    0    0  501 -0.00000000000E+00 -0.00000000000E+00 -0.15701505782E+02  0.15701505782E+02  0.00000000000E+00 0. -1.
         25    2    1    2    0    0  0.50665435596E+02 -0.48908622088E+02  0.97021423797E+03  0.98077788292E+03  0.12510215182E+03 0.  0.
         23    2    1    2    0    0 -0.50665435596E+02  0.48908622088E+02  0.30890366948E+03  0.32974303609E+03  0.91378078080E+02 0.  0.
          5    1    3    3  502    0  0.28824146161E+02  0.41062372247E+02  0.38315111533E+03  0.38644430309E+03  0.41800000000E+01 0.  1.
         -5    1    3    3    0  502  0.21841289435E+02 -0.89970994335E+02  0.58706312265E+03  0.59433357983E+03  0.41800000000E+01 0.  1.
        -11    1    4    4    0    0 -0.15698885862E+02  0.28126621871E+01  0.49740794334E+00  0.15956613066E+02  0.00000000000E+00 0. -1.
         11    1    4    4    0    0 -0.34966549733E+02  0.46095959901E+02  0.30840626154E+03  0.31378642302E+03  0.00000000000E+00 0.  1.
</event>
<event>
 8    1  0.7114239E-009  0.9995666E+02  0.7561462E-02  0.1280387E+00
          2   -1    0    0  501    0  0.00000000000E+00  0.00000000000E+00  0.46810303274E+03  0.46810303274E+03  0.00000000000E+00 0. -1.
         -2   -1    0    0    0  501 -0.00000000000E+00 -0.00000000000E+00 -0.29036292233E+02  0.29036292233E+02  0.00000000000E+00 0.  1.
         25    2    1    2    0    0 -0.43172344114E+02  0.56909738320E+01  0.28855622700E+03  0.31750328243E+03  0.12508956685E+03 0.  0.
         23    2    1    2    0    0  0.43172344114E+02 -0.56909738320E+01  0.15051051350E+03  0.17963604254E+03  0.87860426957E+02 0.  0.
          5    1    3    3  502    0  0.29277671698E+02  0.26870447634E+01  0.20349798082E+03  0.20565335608E+03  0.41800000000E+01 0. -1.
         -5    1    3    3    0  502 -0.72450015812E+02  0.30039290686E+01  0.85058246183E+02  0.11184992635E+03  0.41800000000E+01 0. -1.
        -11    1    4    4    0    0  0.44096539429E+02 -0.42216539980E+02  0.85421274252E+02  0.10499302421E+03  0.00000000000E+00 0.  1.
         11    1    4    4    0    0 -0.92419531527E+00  0.36525566148E+02  0.65089239248E+02  0.74643018330E+02  0.00000000000E+00 0. -1.
</event>
<event>
 8    1  0.7114239E-009  0.1436038E+03  0.7561462E-02  0.1208560E+00
          1   -1    0    0  501    0  0.00000000000E+00  0.00000000000E+00  0.10191176207E+03  0.10191176207E+03  0.00000000000E+00 0.  1.
         -1   -1    0    0    0  501 -0.00000000000E+00 -0.00000000000E+00 -0.24277005514E+03  0.24277005514E+03  0.00000000000E+00 0. -1.
         25    2    1    2    0    0  0.69312542146E+02  0.90289056463E+02 -0.78474473270E+02  0.18644344126E+03  0.12508625672E+03 0.  0.
         23    2    1    2    0    0 -0.69312542146E+02 -0.90289056463E+02 -0.62383819802E+02  0.15823837595E+03  0.90505803321E+02 0.  0.
          5    1    3    3  502    0 -0.26899267776E+02 -0.10996309846E+02 -0.14144601263E+02  0.32588826030E+02  0.41800000000E+01 0. -1.
         -5    1    3    3    0  502  0.96211809921E+02  0.10128536631E+03 -0.64329872007E+02  0.15385461523E+03  0.41800000000E+01 0. -1.
        -11    1    4    4    0    0 -0.49918753795E+02 -0.39290276623E+02 -0.78839936205E+02  0.10124891781E+03  0.00000000000E+00 0. -1.
         11    1    4    4    0    0 -0.19393788351E+02 -0.50998779839E+02  0.16456116403E+02  0.56989458137E+02  0.00000000000E+00 0.  1.
</event>
<event>
 8    1  0.7114239E-009  0.1257238E+03  0.7561462E-02  0.1233942E+00
          3   -1    0    0  501    0  0.00000000000E+00  0.00000000000E+00  0.61308304166E+02  0.61308304166E+02  0.00000000000E+00 0. -1.
         -3   -1    0    0    0  501 -0.00000000000E+00 -0.00000000000E+00 -0.32517714776E+03  0.32517714776E+03  0.00000000000E+00 0.  1.
         25    2    1    2    0    0 -0.38840674894E+02 -0.58784831081E+02 -0.22226371735E+03  0.26459775192E+03  0.12508619380E+03 0.  0.
         23    2    1    2    0    0  0.38840674894E+02  0.58784831081E+02 -0.41605126241E+02  0.12188770000E+03  0.90340303804E+02 0.  0.
          5    1    3    3  502    0 -0.56364340725E+02 -0.90376147830E+02 -0.15469417115E+03  0.18786310438E+03  0.41800000000E+01 0.  1.
         -5    1    3    3    0  502  0.17523665831E+02  0.31591316749E+02 -0.67569546207E+02  0.76734647537E+02  0.41800000000E+01 0.  1.
        -11    1    4    4    0    0  0.64766101591E+02  0.36776009934E+02 -0.46088580576E+02  0.87585844070E+02  0.00000000000E+00 0.  1.
         11    1    4    4    0    0 -0.25925426698E+02  0.22008821147E+02  0.44834543351E+01  0.34301855934E+02  0.00000000000E+00 0. -1.
</event>
<event>
 8    1  0.7114239E-009  0.1085113E+03  0.7561462E-02  0.1263352E+00
         -2   -1    0    0    0  501 -0.00000000000E+00  0.00000000000E+00  0.20605658140E+02  0.20605658140E+02  0.00000000000E+00 0.  1.
          2   -1    0    0  501    0  0.00000000000E+00 -0.00000000000E+00 -0.73841654947E+03  0.73841654947E+03  0.00000000000E+00 0. -1.
         25    2    1    2    0    0  0.24345689580E+02  0.44432093981E+02 -0.28477450706E+03  0.31513788955E+03  0.12509374877E+03 0.  0.
         23    2    1    2    0    0 -0.24345689580E+02 -0.44432093981E+02 -0.43303638428E+03  0.44388431806E+03  0.83341791083E+02 0.  0.
          5    1    3    3  502    0 -0.12381244066E+02  0.72622885618E+02 -0.23806191530E+03  0.24923548430E+03  0.41800000000E+01 0.  1.
         -5    1    3    3    0  502  0.36726933647E+02 -0.28190791637E+02 -0.46712591759E+02  0.65902405245E+02  0.41800000000E+01 0.  1.
        -11    1    4    4    0    0  0.30660140353E+02 -0.12244202100E+02 -0.12216703767E+03  0.12654939662E+03  0.00000000000E+00 0.  1.
         11    1    4    4    0    0 -0.55005829933E+02 -0.32187891881E+02 -0.31086934660E+03  0.31733492144E+03  0.00000000000E+00 0. -1.
</event>
<event>
 8    1  0.7114239E-009  0.1306254E+03  0.7561462E-02  0.1226531E+00
          2   -1    0    0  501    0  0.00000000000E+00  0.00000000000E+00  0.12529197149E+03  0.12529197149E+03  0.00000000000E+00 0. -1.
         -2   -1    0    0    0  501 -0.00000000000E+00 -0.00000000000E+00 -0.18510527898E+03  0.18510527898E+03  0.00000000000E+00 0.  1.
         25    2    1    2    0    0 -0.75786782717E+02  0.63854051594E+02 -0.70978787207E+02  0.17466861593E+03  0.12510060278E+03 0.  0.
         23    2    1    2    0    0  0.75786782717E+02 -0.63854051594E+02  0.11165479716E+02  0.13572863454E+03  0.92068550318E+02 0.  0.
          5    1    3    3  502    0  0.47674550292E+01  0.75657658963E+02 -0.19975599376E+02  0.78506731925E+02  0.41800000000E+01 0.  1.
         -5    1    3    3    0  502 -0.80554237746E+02 -0.11803607369E+02 -0.51003187831E+02  0.96161884001E+02  0.41800000000E+01 0.  1.
        -11    1    4    4    0    0  0.22879289289E+02 -0.28509533884E+01  0.43111002179E+02  0.48889143197E+02  0.00000000000E+00 0. -1.
         11    1    4    4    0    0  0.52907493428E+02 -0.61003098206E+02 -0.31945522464E+02  0.86839491344E+02  0.00000000000E+00 0.  1.
</event>
<event>
 8    1  0.7114239E-009  0.1159626E+03  0.7561462E-02  0.1249910E+00
          1   -1    0    0  501    0  0.00000000000E+00  0.00000000000E+00  0.35336982650E+03  0.35336982650E+03  0.00000000000E+00 0. -1.
         -1   -1    0    0    0  501 -0.00000000000E+00 -0.00000000000E+00 -0.92197399679E+02  0.92197399679E+02  0.00000000000E+00 0.  1.
         25    2    1    2    0    0 -0.20748688022E+02 -0.96910420161E+02  0.69800209866E+01  0.15974346970E+03  0.12508844003E+03 0.  0.
         23    2    1    2    0    0  0.20748688022E+02  0.96910420161E+02  0.25419240584E+03  0.28582375648E+03  0.85201543373E+02 0.  0.
          5    1    3    3  502    0 -0.49371295468E+02 -0.25399956410E+02  0.46979072718E+02  0.72850451442E+02  0.41800000000E+01 0.  1.
         -5    1    3    3    0  502  0.28622607446E+02 -0.71510463751E+02 -0.39999051731E+02  0.86893018260E+02  0.41800000000E+01 0.  1.
        -11    1    4    4    0    0  0.12713857909E+02  0.59021341026E+02  0.51177796336E+02  0.79147506071E+02  0.00000000000E+00 0.  1.
         11    1    4    4    0    0  0.80348301132E+01  0.37889079135E+02  0.20301460950E+03  0.20667625041E+03  0.00000000000E+00 0. -1.
</event>
<event>
 8    1  0.7114239E-009  0.1894843E+03  0.7561462E-02  0.1158927E+00
         -1   -1    0    0    0  501 -0.00000000000E+00  0.00000000000E+00  0.88592354659E+02  0.88592354659E+02  0.00000000000E+00 0.  1.
          1   -1    0    0  501    0  0.00000000000E+00 -0.00000000000E+00 -0.99718606606E+03  0.99718606606E+03  0.00000000000E+00 0. -1.
         25    2    1    2    0    0  0.10031991758E+03  0.14096507690E+03 -0.85667987797E+03  0.88288197235E+03  0.12507967463E+03 0.  0.
         23    2    1    2    0    0 -0.10031991758E+03 -0.14096507690E+03 -0.51913833432E+02  0.20289644838E+03  0.92394176727E+02 0.  0.
          5    1    3    3  502    0  0.14088873462E+02  0.79126010388E+02 -0.17057465623E+03  0.18860701902E+03  0.41800000000E+01 0.  1.
         -5    1    3    3    0  502  0.86231044119E+02  0.61839066511E+02 -0.68610522174E+03  0.69427495333E+03  0.41800000000E+01 0.  1.
        -11    1    4    4    0    0 -0.96565568871E+02 -0.65380918680E+02 -0.50824529655E+02  0.12721126693E+03  0.00000000000E+00 0.  1.
         11    1    4    4    0    0 -0.37543487099E+01 -0.75584158219E+02 -0.10893037766E+01  0.75685181447E+02  0.00000000000E+00 0. -1.
</event>
<event>
 8    1  0.7114239E-009  0.1113712E+03  0.7561462E-02  0.1258052E+00
         -2   -1    0    0    0  501 -0.00000000000E+00  0.00000000000E+00  0.30749624479E+02  0.30749624479E+02  0.00000000000E+00 0.  1.
          2   -1    0    0  501    0  0.00000000000E+00 -0.00000000000E+00 -0.55639441859E+03  0.55639441859E+03  0.00000000000E+00 0. -1.
         25    2    1    2    0    0 -0.62134062514E+02 -0.19269054343E+02 -0.36378075125E+03  0.39014927327E+03  0.12509229503E+03 0.  0.
         23    2    1    2    0    0  0.62134062514E+02  0.19269054343E+02 -0.16186404287E+03  0.19699476980E+03  0.91515205163E+02 0.  0.
          5    1    3    3  502    0 -0.99067566907E+02 -0.18884382723E+02 -0.22743787228E+03  0.24883018481E+03  0.41800000000E+01 0.  1.
         -5    1    3    3    0  502  0.36933504393E+02 -0.38467162013E+00 -0.13634287897E+03  0.14131908847E+03  0.41800000000E+01 0.  1.
        -11    1    4    4    0    0  0.21971877090E+02  0.35144144072E+02 -0.15267996468E+02  0.44169966737E+02  0.00000000000E+00 0.  1.
         11    1    4    4    0    0  0.40162185424E+02 -0.15875089729E+02 -0.14659604640E+03  0.15282480306E+03  0.00000000000E+00 0. -1.
</event>
<event>
 8    1  0.7114239E-009  0.1066051E+03  0.7561462E-02  0.1266989E+00
         -1   -1    0    0    0  501 -0.00000000000E+00  0.00000000000E+00  0.36718282163E+02  0.36718282163E+02  0.00000000000E+00 0.  1.
          1   -1    0    0  501    0  0.00000000000E+00 -0.00000000000E+00 -0.46631131162E+03  0.46631131162E+03  0.00000000000E+00 0. -1.
         25    2    1    2    0    0  0.68863311395E+02 -0.19921534455E+02 -0.19454775745E+03  0.24214723478E+03  0.12508968858E+03 0.  0.
         23    2    1    2    0    0 -0.68863311395E+02  0.19921534455E+02 -0.23504527201E+03  0.26088235901E+03  0.87603094456E+02 0.  0.
          5    1    3    3  502    0  0.19313966909E+02 -0.54690518112E+02 -0.27313673469E+02  0.64246332560E+02  0.41800000000E+01 0. -1.
         -5    1    3    3    0  502  0.49549344486E+02  0.34768983657E+02 -0.16723408398E+03  0.17790090222E+03  0.41800000000E+01 0. -1.
        -11    1    4    4    0    0 -0.17119296974E+02  0.36279487940E+02 -0.17671663170E+03  0.18121269132E+03  0.00000000000E+00 0. -1.
         11    1    4    4    0    0 -0.51744014420E+02 -0.16357953485E+02 -0.58328640308E+02  0.79669667696E+02  0.00000000000E+00 0.  1.
</event>
<event>
 8    1  0.7114239E-009  0.2468508E+03  0.7561462E-02  0.1115311E+00
         -2   -1    0    0    0  501 -0.00000000000E+00  0.00000000000E+00  0.54932395657E+02  0.54932395657E+02  0.00000000000E+00 0.  1.
          2   -1    0    0  501    0  0.00000000000E+00 -0.00000000000E+00 -0.12096314972E+04  0.12096314972E+04  0.00000000000E+00 0. -1.
         25    2    1    2    0    0  0.22597421360E+03  0.37434690682E+02 -0.71057572961E+03  0.75698669142E+03  0.12508110244E+03 0.  0.
         23    2    1    2    0    0 -0.22597421360E+03 -0.37434690682E+02 -0.44412337190E+03  0.50757720141E+03  0.89013171209E+02 0.  0.
          5    1    3    3  502    0  0.62719281386E+02 -0.45231718719E+02 -0.23323566159E+03  0.24575590100E+03  0.41800000000E+01 0. -1.
         -5    1    3    3    0  502  0.16325493221E+03  0.82666409401E+02 -0.47734006802E+03  0.51123079042E+03  0.41800000000E+01 0. -1.
        -11    1    4    4    0    0 -0.12500773237E+03  0.14767858236E+01 -0.15669191868E+03  0.20045316518E+03  0.00000000000E+00 0. -1.
         11    1    4    4    0    0 -0.10096648122E+03 -0.38911476505E+02 -0.28743145322E+03  0.30712403623E+03  0.00000000000E+00 0.  1.
</event>
<event>
 8    1  0.7114239E-009  0.1804043E+03  0.7561462E-02  0.1167412E+00
         -1   -1    0    0    0  501 -0.00000000000E+00  0.00000000000E+00  0.13066708265E+03  0.13066708265E+03  0.00000000000E+00 0.  1.
          1   -1    0    0  501    0  0.00000000000E+00 -0.00000000000E+00 -0.32349196300E+03  0.32349196300E+03  0.00000000000E+00 0. -1.
         25    2    1    2    0    0 -0.15842568130E+03 -0.67170214520E+02 -0.78952783748E+02  0.22691692820E+03  0.12508883255E+03 0.  0.
         23    2    1    2    0    0  0.15842568130E+03  0.67170214520E+02 -0.11387209661E+03  0.22724211744E+03  0.95192391180E+02 0.  0.
          5    1    3    3  502    0 -0.23357275219E+02  0.48225630732E+01 -0.69402781759E+02  0.73505359914E+02  0.41800000000E+01 0.  1.
         -5    1    3    3    0  502 -0.13506840608E+03 -0.71992777593E+02 -0.95500019886E+01  0.15341156829E+03  0.41800000000E+01 0.  1.
        -11    1    4    4    0    0  0.14559413412E+03  0.36301089590E+02 -0.12135738539E+03  0.19298454857E+03  0.00000000000E+00 0. -1.
         11    1    4    4    0    0  0.12831547182E+02  0.30869124930E+02  0.74852887856E+01  0.34257568875E+02  0.00000000000E+00 0.  1.
</event>
<event>
 8    1  0.7114239E-009  0.1079518E+03  0.7561462E-02  0.1264411E+00
         -1   -1    0    0    0  501 -0.00000000000E+00  0.00000000000E+00  0.14548277828E+02  0.14548277828E+02  0.00000000000E+00 0.  1.
          1   -1    0    0  501    0  0.00000000000E+00 -0.00000000000E+00 -0.99940093737E+03  0.99940093737E+03  0.00000000000E+00 0. -1.
         25    2    1    2    0    0 -0.24861948906E+02 -0.25248414164E+02 -0.71510621732E+03  0.72682880462E+03  0.12509040830E+03 0.  0.
         23    2    1    2    0    0  0.24861948906E+02  0.25248414164E+02 -0.26974644222E+03  0.28712041058E+03  0.91757224023E+02 0.  0.
          5    1    3    3  502    0 -0.21915742370E+02 -0.72308462754E+02 -0.54611583974E+03  0.55133365249E+03  0.41800000000E+01 0.  1.
         -5    1    3    3    0  502 -0.29462065361E+01  0.47060048590E+02 -0.16899037758E+03  0.17549515213E+03  0.41800000000E+01 0.  1.
        -11    1    4    4    0    0  0.56785216994E+02  0.10580815007E+02 -0.11825039328E+03  0.13160421736E+03  0.00000000000E+00 0.  1.
         11    1    4    4    0    0 -0.31923268087E+02  0.14667599157E+02 -0.15149604894E+03  0.15551619322E+03  0.00000000000E+00 0. -1.
</event>
<event>
 8    1  0.7114239E-009  0.1132749E+03  0.7561462E-02  0.1254623E+00
          2   -1    0    0  501    0  0.00000000000E+00  0.00000000000E+00  0.11228437915E+03  0.11228437915E+03  0.00000000000E+00 0. -1.
         -2   -1    0    0    0  501 -0.00000000000E+00 -0.00000000000E+00 -0.11828575523E+03  0.11828575523E+03  0.00000000000E+00 0.  1.
         25    2    1    2    0    0  0.38545702554E+02  0.37858073175E+00  0.10348421743E+00  0.13089572149E+03  0.12509102560E+03 0.  0.
         23    2    1    2    0    0 -0.38545702554E+02 -0.37858073175E+00 -0.61048602997E+01  0.99674412892E+02  0.91715891520E+02 0.  0.
          5    1    3    3  502    0  0.81043407195E+02 -0.18461649521E+02 -0.76750710158E+01  0.83577780946E+02  0.41800000000E+01 0. -1.
         -5    1    3    3    0  502 -0.42497704641E+02  0.18840230252E+02  0.77785552332E+01  0.47317940543E+02  0.41800000000E+01 0. -1.
        -11    1    4    4    0    0 -0.15705441862E+02 -0.44378728592E+02 -0.14789603433E+02  0.49344349476E+02  0.00000000000E+00 0.  1.
         11    1    4    4    0    0 -0.22840260692E+02  0.44000147860E+02  0.86847431333E+01  0.50330063416E+02  0.00000000000E+00 0. -1.
</event>
<event>
 8    1  0.7114239E-009  0.9001452E+02  0.7561462E-02  0.1302817E+00
         -1   -1    0    0    0  501 -0.00000000000E+00  0.00000000000E+00  0.16015502945E+03  0.16015502945E+03  0.00000000000E+00 0.  1.
          1   -1    0    0  501    0  0.00000000000E+00 -0.00000000000E+00 -0.11177860247E+03  0.11177860247E+03  0.00000000000E+00 0. -1.
         25    2    1    2    0    0 -0.78853008287E+02  0.20128740037E+02  0.38628912040E+02  0.15415236363E+03  0.12509114787E+03 0.  0.
         23    2    1    2    0    0  0.78853008287E+02 -0.20128740037E+02  0.97475149387E+01  0.11778126830E+03  0.84583982073E+02 0.  0.
          5    1    3    3  502    0 -0.40313325867E+01 -0.51965018690E+00 -0.41855839801E+02  0.42259974020E+02  0.41800000000E+01 0.  1.
         -5    1    3    3    0  502 -0.74821675701E+02  0.20648390224E+02  0.80484751841E+02  0.11189238961E+03  0.41800000000E+01 0.  1.
        -11    1    4    4    0    0  0.41420830888E+02  0.16038200507E+02 -0.28865138537E+02  0.52972684750E+02  0.00000000000E+00 0. -1.
         11    1    4    4    0    0  0.37432177400E+02 -0.36166940544E+02  0.38612653476E+02  0.64808583549E+02  0.00000000000E+00 0.  1.
</event>
<event>
 8    1  0.7114239E-009  0.1140280E+03  0.7561462E-02  0.1253287E+00
          2   -1    0    0  501    0  0.00000000000E+00  0.00000000000E+00  0.78735610068E+03  0.78735610068E+03  0.00000000000E+00 0. -1.
         -2   -1    0    0    0  501 -0.00000000000E+00 -0.00000000000E+00 -0.18588009987E+02  0.18588009987E+02  0.00000000000E+00 0.  1.
         25    2    1    2    0    0 -0.37123745898E+02 -0.38255185635E+02  0.44343159763E+03  0.46381143469E+03  0.12509130040E+03 0.  0.
         23    2    1    2    0    0  0.37123745898E+02  0.38255185635E+02  0.32533649306E+03  0.34213267598E+03  0.91483892106E+02 0.  0.
          5    1    3    3  502    0  0.32262898884E+02  0.18955810552E+02  0.67917572366E+02  0.77656206669E+02  0.41800000000E+01 0.  1.
         -5    1    3    3    0  502 -0.69386644782E+02 -0.57210996188E+02  0.37551402527E+03  0.38615522802E+03  0.41800000000E+01 0.  1.
        -11    1    4    4    0    0 -0.27722522219E+02  0.14738258975E+02  0.57031149585E+02  0.65102277523E+02  0.00000000000E+00 0. -1.
         11    1    4    4    0    0  0.64846268116E+02  0.23516926661E+02  0.26830534348E+03  0.27703039846E+03  0.00000000000E+00 0.  1.
</event>
<event>
 8    1  0.7114239E-009  0.1122170E+03  0.7561462E-02  0.1256519E+00
          1   -1    0    0  501    0  0.00000000000E+00  0.00000000000E+00  0.10957501856E+04  0.10957501856E+04  0.00000000000E+00 0. -1.
         -1   -1    0    0    0  501 -0.00000000000E+00 -0.00000000000E+00 -0.18681603085E+02  0.18681603085E+02  0.00000000000E+00 0.  1.
         25    2    1    2    0    0  0.80151918958E+02 -0.46135238849E+02  0.54422026593E+03  0.56601748813E+03  0.12508920276E+03 0.  0.
         23    2    1    2    0    0 -0.80151918958E+02  0.46135238849E+02  0.53284831654E+03  0.54841430051E+03  0.90984208445E+02 0.  0.
          5    1    3    3  502    0  0.62792325499E+02 -0.45609359549E+02  0.54253607983E+03  0.54807477605E+03  0.41800000000E+01 0.  1.
         -5    1    3    3    0  502  0.17359593459E+02 -0.52587930000E+00  0.16841860959E+01  0.17942712083E+02  0.41800000000E+01 0.  1.
        -11    1    4    4    0    0 -0.71911642063E+02 -0.95631550688E+01  0.33126376862E+03  0.33911417340E+03  0.00000000000E+00 0. -1.
         11    1    4    4    0    0 -0.82402768949E+01  0.55698393918E+02  0.20158454792E+03  0.20930012711E+03  0.00000000000E+00 0.  1.
</event>
<event>
 8    1  0.7114239E-009  0.1151656E+03  0.7561462E-02  0.1251292E+00
         -2   -1    0    0    0  501 -0.00000000000E+00  0.00000000000E+00  0.11858466648E+03  0.11858466648E+03  0.00000000000E+00 0.  1.
          2   -1    0    0  501    0  0.00000000000E+00 -0.00000000000E+00 -0.21648957619E+03  0.21648957619E+03  0.00000000000E+00 0. -1.
         25    2    1    2    0    0 -0.82351183134E+02  0.23367058986E+02 -0.13448567036E+03  0.20263724738E+03  0.12509085372E+03 0.  0.
         23    2    1    2    0    0  0.82351183134E+02 -0.23367058986E+02  0.36580760655E+02  0.13243699529E+03  0.94200153190E+02 0.  0.
          5    1    3    3  502    0  0.24590021903E+02  0.24503582056E+02 -0.68484647168E+02  0.76894174087E+02  0.41800000000E+01 0. -1.
         -5    1    3    3    0  502 -0.10694120504E+03 -0.11365230697E+01 -0.66001023192E+02  0.12574307330E+03  0.41800000000E+01 0. -1.
        -11    1    4    4    0    0  0.64667321128E+02 -0.27345048082E+02  0.66985396712E+02  0.97039463360E+02  0.00000000000E+00 0.  1.
         11    1    4    4    0    0  0.17683862006E+02  0.39779890962E+01 -0.30404636057E+02  0.35397531926E+02  0.00000000000E+00 0. -1.
</event>
<event>
 8    1  0.7114239E-009  0.7178663E+02  0.7561462E-02  0.1354121E+00
          2   -1    0    0  501    0  0.00000000000E+00  0.00000000000E+00  0.11985468049E+04  0.11985468049E+04  0.00000000000E+00 0. -1.
         -2   -1    0    0    0  501 -0.00000000000E+00 -0.00000000000E+00 -0.16788905485E+02  0.16788905485E+02  0.00000000000E+00 0.  1.
         25    2    1    2    0    0  0.42649402658E+02 -0.19140968125E+02  0.98532731145E+03  0.99433525392E+03  0.12508932126E+03 0.  0.
         23    2    1    2    0    0 -0.42649402658E+02  0.19140968125E+02  0.19643058796E+03  0.22100045646E+03  0.89838063542E+02 0.  0.
          5    1    3    3  502    0  0.11356403130E+02  0.69252738696E+01  0.78495543437E+01  0.16000475418E+02  0.41800000000E+01 0.  1.
         -5    1    3    3    0  502  0.31292999528E+02 -0.26066241995E+02  0.97747775711E+03  0.97833477851E+03  0.41800000000E+01 0.  1.
        -11    1    4    4    0    0 -0.62509266712E+02  0.25968441687E+02  0.90528385859E+02  0.11303608731E+03  0.00000000000E+00 0.  1.
         11    1    4    4    0    0  0.19859864054E+02 -0.68274735619E+01  0.10590220210E+03  0.10796436915E+03  0.00000000000E+00 0. -1.
</event>
<event>
 8    1  0.7114239E-009  0.1403090E+03  0.7561462E-02  0.1212914E+00
          2   -1    0    0  501    0  0.00000000000E+00  0.00000000000E+00  0.29890548458E+03  0.29890548458E+03  0.00000000000E+00 0.  1.
         -2   -1    0    0    0  501 -0.00000000000E+00 -0.00000000000E+00 -0.92304920221E+02  0.92304920221E+02  0.00000000000E+00 0. -1.
         25    2    1    2    0    0 -0.11858273095E+03  0.32602220533E+02  0.11081819603E+03  0.20749469525E+03  0.12509439285E+03 0.  0.
         23    2    1    2    0    0  0.11858273095E+03 -0.32602220533E+02  0.95782368326E+02  0.18371570955E+03  0.97223613331E+02 0.  0.
          5    1    3    3  502    0 -0.10575145289E+03  0.30860684292E+02  0.13828030967E+03  0.17684645336E+03  0.41800000000E+01 0.  1.
         -5    1    3    3    0  502 -0.12831278063E+02  0.17415362410E+01 -0.27462113644E+02  0.30648241891E+02  0.41800000000E+01 0.  1.
        -11    1    4    4    0    0  0.12753936702E+03 -0.48761532414E+01  0.77640016319E+02  0.14939223254E+03  0.00000000000E+00 0. -1.
         11    1    4    4    0    0 -0.89566360723E+01 -0.27726067292E+02  0.18142352007E+02  0.34323477002E+02  0.00000000000E+00 0.  1.
</event>
<event>
 8    1  0.7114239E-009  0.1023240E+03  0.7561462E-02  0.1275484E+00
         -3   -1    0    0    0  501 -0.00000000000E+00  0.00000000000E+00  0.52575223863E+02  0.52575223863E+02  0.00000000000E+00 0.  1.
          3   -1    0    0  501    0  0.00000000000E+00 -0.00000000000E+00 -0.49552584524E+03  0.49552584524E+03  0.00000000000E+00 0. -1.
         25    2    1    2    0    0 -0.38263998098E+02  0.78900913625E+02 -0.37134167735E+03  0.40153970613E+03  0.12509998616E+03 0.  0.
         23    2    1    2    0    0  0.38263998098E+02 -0.78900913625E+02 -0.71608944020E+02  0.14656136297E+03  0.93074725521E+02 0.  0.
          5    1    3    3  502    0 -0.57675494398E+02  0.37076870508E+02 -0.75402358651E+02  0.10200071113E+03  0.41800000000E+01 0. -1.
         -5    1    3    3    0  502  0.19411496300E+02  0.41824043117E+02 -0.29593931870E+03  0.29953899500E+03  0.41800000000E+01 0. -1.
        -11    1    4    4    0    0  0.10628944056E+02 -0.43321699563E+02  0.16534378537E+02  0.47572363599E+02  0.00000000000E+00 0.  1.
         11    1    4    4    0    0  0.27635054042E+02 -0.35579214062E+02 -0.88143322557E+02  0.98988999371E+02  0.00000000000E+00 0. -1.
</event>
<event>
 8    1  0.7114239E-009  0.1246609E+03  0.7561462E-02  0.1235600E+00
          1   -1    0    0  501    0  0.00000000000E+00  0.00000000000E+00  0.67196407174E+03  0.67196407174E+03  0.00000000000E+00 0. -1.
         -1   -1    0    0    0  501 -0.00000000000E+00 -0.00000000000E+00 -0.24942730755E+02  0.24942730755E+02  0.00000000000E+00 0.  1.
         25    2    1    2    0    0 -0.69977260010E+01 -0.68314746034E+02  0.31545190563E+03  0.34622686059E+03  0.12508901445E+03 0.  0.
         23    2    1    2    0    0  0.69977260010E+01  0.68314746034E+02  0.33156943536E+03  0.35067994190E+03  0.91226413371E+02 0.  0.
          5    1    3    3  502    0 -0.61690114614E+02 -0.22336426838E+02  0.10446105101E+03  0.12342677903E+03  0.41800000000E+01 0. -1.
         -5    1    3    3    0  502  0.54692388613E+02 -0.45978319196E+02  0.21099085462E+03  0.22280008156E+03  0.41800000000E+01 0. -1.
        -11    1    4    4    0    0  0.16851783644E+02 -0.18274282500E+02  0.48503593626E+02  0.54502574320E+02  0.00000000000E+00 0.  1.
         11    1    4    4    0    0 -0.98540576431E+01  0.86589028534E+02  0.28306584173E+03  0.29617736758E+03  0.00000000000E+00 0. -1.
</event>
<event>
 8    1  0.7114239E-009  0.9577162E+02  0.7561462E-02  0.1289448E+00
         -2   -1    0    0    0  501 -0.00000000000E+00  0.00000000000E+00  0.21319676659E+02  0.21319676659E+02  0.00000000000E+00 0. -1.
          2   -1    0    0  501    0  0.00000000000E+00 -0.00000000000E+00 -0.65446836250E+03  0.65446836250E+03  0.00000000000E+00 0.  1.
         25    2    1    2    0    0  0.93093558673E+01 -0.51898946836E+01 -0.22095417792E+03  0.25412681880E+03  0.12508434026E+03 0.  0.
         23    2    1    2    0    0 -0.93093558673E+01  0.51898946836E+01 -0.41219450792E+03  0.42166122036E+03  0.88205857419E+02 0.  0.
          5    1    3    3  502    0 -0.12824857469E+02 -0.51462207393E+02 -0.41597193709E+02  0.67532471325E+02  0.41800000000E+01 0. -1.
         -5    1    3    3    0  502  0.22134213336E+02  0.46272312709E+02 -0.17935698421E+03  0.18659434748E+03  0.41800000000E+01 0. -1.
        -11    1    4    4    0    0  0.36691295303E+02 -0.10685843577E+02 -0.13856977191E+03  0.14374289579E+03  0.00000000000E+00 0. -1.
         11    1    4    4    0    0 -0.46000651171E+02  0.15875738261E+02 -0.27362473601E+03  0.27791832457E+03  0.00000000000E+00 0.  1.
</event>
<event>
 8    1  0.7114239E-009  0.1084047E+03  0.7561462E-02  0.1263553E+00
         -1   -1    0    0    0  501 -0.00000000000E+00  0.00000000000E+00  0.11055994563E+03  0.11055994563E+03  0.00000000000E+00 0.  1.
          1   -1    0    0  501    0  0.00000000000E+00 -0.00000000000E+00 -0.25908279074E+03  0.25908279074E+03  0.00000000000E+00 0. -1.
         25    2    1    2    0    0  0.68430480230E+02 -0.28594210511E+02  0.37213882217E+02  0.15010907279E+03  0.12508997244E+03 0.  0.
         23    2    1    2    0    0 -0.68430480230E+02  0.28594210511E+02 -0.18573672732E+03  0.21953366358E+03  0.90534734050E+02 0.  0.
          5    1    3    3  502    0  0.70190449196E+02 -0.71038549323E+02  0.12359639166E+02  0.10071448619E+03  0.41800000000E+01 0.  1.
         -5    1    3    3    0  502 -0.17599689663E+01  0.42444338813E+02  0.24854243051E+02  0.49394586603E+02  0.41800000000E+01 0.  1.
        -11    1    4    4    0    0 -0.16178578038E+02  0.63311707927E+01  0.69038078134E+01  0.18694723139E+02  0.00000000000E+00 0.  1.
         11    1    4    4    0    0 -0.52251902192E+02  0.22263039718E+02 -0.19264053513E+03  0.20083894044E+03  0.00000000000E+00 0. -1.
</event>
<event>
 8    1  0.7114239E-009  0.1641428E+03  0.7561462E-02  0.1184097E+00
         -1   -1    0    0    0  501 -0.00000000000E+00  0.00000000000E+00  0.48175290587E+02  0.48175290587E+02  0.00000000000E+00 0.  1.
          1   -1    0    0  501    0  0.00000000000E+00 -0.00000000000E+00 -0.60083391129E+03  0.60083391129E+03  0.00000000000E+00 0. -1.
         25    2    1    2    0    0  0.10941035357E+03 -0.70758559133E+02 -0.27352733394E+03  0.32778216548E+03  0.12508615606E+03 0.  0.
         23    2    1    2    0    0 -0.10941035357E+03  0.70758559133E+02 -0.27913128676E+03  0.32122703639E+03  0.91077628978E+02 0.  0.
          5    1    3    3  502    0  0.31224931437E+02  0.35441394556E+02 -0.56135963695E+02  0.73483383233E+02  0.41800000000E+01 0. -1.
         -5    1    3    3    0  502  0.78185422135E+02 -0.10619995369E+03 -0.21739137024E+03  0.25429878225E+03  0.41800000000E+01 0. -1.
        -11    1    4    4    0    0 -0.70943646824E+02  0.82401761885E+02 -0.24664436858E+03  0.26954868937E+03  0.00000000000E+00 0. -1.
         11    1    4    4    0    0 -0.38466706748E+02 -0.11643202752E+02 -0.32486918179E+02  0.51678347024E+02  0.00000000000E+00 0.  1.
</event>
<event>
 8    1  0.7114239E-009  0.1299017E+03  0.7561462E-02  0.1227602E+00
         -2   -1    0    0    0  501 -0.00000000000E+00  0.00000000000E+00  0.17307153159E+02  0.17307153159E+02  0.00000000000E+00 0.  1.
          2   -1    0    0  501    0  0.00000000000E+00 -0.00000000000E+00 -0.11699880932E+04  0.11699880932E+04  0.00000000000E+00 0. -1.
         25    2    1    2    0    0  0.80988011208E+02  0.88077625744E+01 -0.76241032154E+03  0.77688713088E+03  0.12508989208E+03 0.  0.
         23    2    1    2    0    0 -0.80988011208E+02 -0.88077625744E+01 -0.39027061851E+03  0.41040811549E+03  0.97401390871E+02 0.  0.
          5    1    3    3  502    0  0.17405806004E+02  0.56186014363E+02 -0.18845626510E+03  0.19746662135E+03  0.41800000000E+01 0. -1.
         -5    1    3    3    0  502  0.63582205204E+02 -0.47378251788E+02 -0.57395405644E+03  0.57942050953E+03  0.41800000000E+01 0. -1.
        -11    1    4    4    0    0 -0.91002838596E+02 -0.31763107605E+02 -0.25035368662E+03  0.26826736671E+03  0.00000000000E+00 0.  1.
         11    1    4    4    0    0  0.10014827389E+02  0.22955345031E+02 -0.13991693189E+03  0.14214074877E+03  0.00000000000E+00 0. -1.
</event>
<event>
 8    1  0.7114239E-009  0.8379806E+02  0.7561462E-02  0.1318606E+00
          2   -1    0    0  501    0  0.00000000000E+00  0.00000000000E+00  0.62696994496E+03  0.62696994496E+03  0.00000000000E+00 0. -1.
         -2   -1    0    0    0  501 -0.00000000000E+00 -0.00000000000E+00 -0.29190411209E+02  0.29190411209E+02  0.00000000000E+00 0.  1.
         25    2    1    2    0    0 -0.70128172987E+02 -0.77119260711E+01  0.42729003481E+03  0.45077765693E+03  0.12508512176E+03 0.  0.
         23    2    1    2    0    0  0.70128172987E+02  0.77119260711E+01  0.17048949894E+03  0.20538269924E+03  0.90210583905E+02 0.  0.
          5    1    3    3  502    0 -0.46913621991E+02 -0.30729769182E+02  0.60847023376E+02  0.82855532682E+02  0.41800000000E+01 0.  1.
         -5    1    3    3    0  502 -0.23214550996E+02  0.23017843111E+02  0.36644301144E+03  0.36792212425E+03  0.41800000000E+01 0.  1.
        -11    1    4    4    0    0  0.38173002280E+02 -0.12993579569E+02  0.16123008604E+03  0.16619612468E+03  0.00000000000E+00 0. -1.
         11    1    4    4    0    0  0.31955170706E+02  0.20705505640E+02  0.92594128967E+01  0.39186574561E+02  0.00000000000E+00 0.  1.
</event>
<event>
 8    1  0.7114239E-009  0.9608092E+02  0.7561462E-02  0.1288760E+00
          1   -1    0    0  501    0  0.00000000000E+00  0.00000000000E+00  0.69003567736E+03  0.69003567736E+03  0.00000000000E+00 0. -1.
         -1   -1    0    0    0  501 -0.00000000000E+00 -0.00000000000E+00 -0.39696979504E+02  0.39696979504E+02  0.00000000000E+00 0.  1.
         25    2    1    2    0    0  0.55584168056E+02  0.57060136814E+02  0.55693679593E+03  0.57634319522E+03  0.12508966811E+03 0.  0.
         23    2    1    2    0    0 -0.55584168056E+02 -0.57060136814E+02  0.93401901923E+02  0.15338946164E+03  0.91972564971E+02 0.  0.
          5    1    3    3  502    0  0.14406239594E+01  0.25795846601E+02  0.13768992426E+02  0.29572937826E+02  0.41800000000E+01 0.  1.
         -5    1    3    3    0  502  0.54143544097E+02  0.31264290213E+02  0.54316780350E+03  0.54677025739E+03  0.41800000000E+01 0.  1.
        -11    1    4    4    0    0  0.10315186063E+02  0.61541854263E+01 -0.98616603958E+01  0.15541216411E+02  0.00000000000E+00 0.  1.
         11    1    4    4    0    0 -0.65899354119E+02 -0.63214322240E+02  0.10326356232E+03  0.13784824523E+03  0.00000000000E+00 0. -1.
</event>
<event>
 8    1  0.7114239E-009  0.9572295E+02  0.7561462E-02  0.1289556E+00
         -1   -1    0    0    0  501 -0.00000000000E+00  0.00000000000E+00  0.25147539922E+02  0.25147539922E+02  0.00000000000E+00 0.  1.
          1   -1    0    0  501    0  0.00000000000E+00 -0.00000000000E+00 -0.66521610707E+03  0.66521610707E+03  0.00000000000E+00 0. -1.
         25    2    1    2    0    0 -0.21974052203E+02 -0.59054993997E+02 -0.27278113706E+03  0.30663911316E+03  0.12509054998E+03 0.  0.
         23    2    1    2    0    0  0.21974052203E+02  0.59054993997E+02 -0.36728743009E+03  0.38372453384E+03  0.91510164910E+02 0.  0.
          5    1    3    3  502    0  0.16066121224E+02 -0.54551704958E+01 -0.22400209150E+03  0.22468263959E+03  0.41800000000E+01 0.  1.
         -5    1    3    3    0  502 -0.38040173427E+02 -0.53599823501E+02 -0.48779045562E+02  0.81956473567E+02  0.41800000000E+01 0.  1.
        -11    1    4    4    0    0  0.55554590548E+02  0.27320494309E+02 -0.25269638979E+03  0.26016953579E+03  0.00000000000E+00 0.  1.
         11    1    4    4    0    0 -0.33580538345E+02  0.31734499688E+02 -0.11459104030E+03  0.12355499805E+03  0.00000000000E+00 0. -1.
</event>
<event>
 8    1  0.7114239E-009  0.8548868E+02  0.7561462E-02  0.1314160E+00
         -2   -1    0    0    0  501 -0.00000000000E+00  0.00000000000E+00  0.65479425626E+02  0.65479425626E+02  0.00000000000E+00 0. -1.
          2   -1    0    0  501    0  0.00000000000E+00 -0.00000000000E+00 -0.26255320806E+03  0.26255320806E+03  0.00000000000E+00 0.  1.
         25    2    1    2    0    0  0.19602407885E+01 -0.54020238392E+02 -0.17277371067E+03  0.22004831440E+03  0.12509387224E+03 0.  0.
         23    2    1    2    0    0 -0.19602407885E+01  0.54020238392E+02 -0.24300071768E+02  0.10798431929E+03  0.90266776970E+02 0.  0.
          5    1    3    3  502    0  0.31175239495E+02 -0.54411219566E+02 -0.17914824297E+03  0.18985268429E+03  0.41800000000E+01 0. -1.
         -5    1    3    3    0  502 -0.29214998707E+02  0.39098117399E+00  0.63745323019E+01  0.30195630110E+02  0.41800000000E+01 0. -1.
        -11    1    4    4    0    0 -0.28446156794E+02  0.38654322018E+02  0.21743192879E+02  0.52688773790E+02  0.00000000000E+00 0. -1.
         11    1    4    4    0    0  0.26485916005E+02  0.15365916375E+02 -0.46043264647E+02  0.55295545498E+02  0.00000000000E+00 0.  1.
</event>
<event>
 8    1  0.7114239E-009  0.1086159E+03  0.7561462E-02  0.1263155E+00
          2   -1    0    0  501    0  0.00000000000E+00  0.00000000000E+00  0.23300892753E+04  0.23300892753E+04  0.00000000000E+00 0. -1.
         -2   -1    0    0    0  501 -0.00000000000E+00 -0.00000000000E+00 -0.91461160351E+01  0.91461160351E+01  0.00000000000E+00 0.  1.
         25    2    1    2    0    0 -0.68191123851E+02 -0.32715924383E+02  0.17615941843E+04  0.17676486001E+04  0.12508853647E+03 0.  0.
         23    2    1    2    0    0  0.68191123851E+02  0.32715924383E+02  0.55934897492E+03  0.57158679126E+03  0.90110061127E+02 0.  0.
          5    1    3    3  502    0 -0.33331696519E+00 -0.32537972646E+02  0.13559284267E+04  0.13563252565E+04  0.41800000000E+01 0.  1.
         -5    1    3    3    0  502 -0.67857806885E+02 -0.17795173706E+00  0.40566575763E+03  0.41132334354E+03  0.41800000000E+01 0.  1.
        -11    1    4    4    0    0  0.78642644297E+02  0.52156485780E+02  0.48198067437E+03  0.49113168802E+03  0.00000000000E+00 0. -1.
         11    1    4    4    0    0 -0.10451520446E+02 -0.19440561397E+02  0.77368300547E+02  0.80455103236E+02  0.00000000000E+00 0.  1.
</event>
<event>
 8    1  0.7114239E-009  0.1485195E+03  0.7561462E-02  0.1202304E+00
         -1   -1    0    0    0  501 -0.00000000000E+00  0.00000000000E+00  0.15197264657E+02  0.15197264657E+02  0.00000000000E+00 0.  1.
          1   -1    0    0  501    0  0.00000000000E+00 -0.00000000000E+00 -0.22153660892E+04  0.22153660892E+04  0.00000000000E+00 0. -1.
         25    2    1    2    0    0 -0.70493403532E+02 -0.72907910824E+02 -0.18107748617E+04  0.18179212364E+04  0.12508852324E+03 0.  0.
         23    2    1    2    0    0  0.70493403532E+02  0.72907910824E+02 -0.38939396292E+03  0.41264211752E+03  0.91438369346E+02 0.  0.
          5    1    3    3  502    0  0.29986797013E+02  0.87030226530E+01 -0.34401299706E+03  0.34545240648E+03  0.41800000000E+01 0.  1.
         -5    1    3    3    0  502 -0.10048020055E+03 -0.81610933477E+02 -0.14667618646E+04  0.14724688299E+04  0.41800000000E+01 0.  1.
        -11    1    4    4    0    0  0.24629027435E+02  0.85076836540E+02 -0.23580548071E+03  0.25189061483E+03  0.00000000000E+00 0. -1.
         11    1    4    4    0    0  0.45864376097E+02 -0.12168925716E+02 -0.15358848221E+03  0.16075150269E+03  0.00000000000E+00 0.  1.
</event>
<event>
 8    1  0.7114239E-009  0.8775667E+02  0.7561462E-02  0.1308377E+00
         -2   -1    0    0    0  501 -0.00000000000E+00  0.00000000000E+00  0.39260578624E+02  0.39260578624E+02  0.00000000000E+00 0.  1.
          2   -1    0    0  501    0  0.00000000000E+00 -0.00000000000E+00 -0.41037824864E+03  0.41037824864E+03  0.00000000000E+00 0. -1.
         25    2    1    2    0    0  0.53521535319E+02  0.45580804538E+02 -0.22690165889E+03  0.26846695216E+03  0.12509187466E+03 0.  0.
         23    2    1    2    0    0 -0.53521535319E+02 -0.45580804538E+02 -0.14421601112E+03  0.18117187511E+03  0.84159526971E+02 0.  0.
          5    1    3    3  502    0  0.31896853162E+02  0.39956126371E+02 -0.12413450492E+02  0.52777527693E+02  0.41800000000E+01 0.  1.
         -5    1    3    3    0  502  0.21624682157E+02  0.56246781674E+01 -0.21448820840E+03  0.21568942446E+03  0.41800000000E+01 0.  1.
        -11    1    4    4    0    0 -0.69701654789E+02 -0.22394461204E+02 -0.13075886310E+03  0.14985897655E+03  0.00000000000E+00 0. -1.
         11    1    4    4    0    0  0.16180119470E+02 -0.23186343334E+02 -0.13457148026E+02  0.31312898560E+02  0.00000000000E+00 0.  1.
</event>
<event>
 8    1  0.7114239E-009  0.1489362E+03  0.7561462E-02  0.1201786E+00
          1   -1    0    0  501    0  0.00000000000E+00  0.00000000000E+00  0.15915776408E+04  0.15915776408E+04  0.00000000000E+00 0. -1.
         -1   -1    0    0    0  501 -0.00000000000E+00 -0.00000000000E+00 -0.14774125109E+02  0.14774125109E+02  0.00000000000E+00 0.  1.
         25    2    1    2    0    0  0.67426035636E+01 -0.10528555044E+03  0.96158121698E+03  0.97540567583E+03  0.12508911125E+03 0.  0.
         23    2    1    2    0    0 -0.67426035636E+01  0.10528555044E+03  0.61522229870E+03  0.63094609007E+03  0.91999901754E+02 0.  0.
          5    1    3    3  502    0 -0.11535954194E+02  0.24987068200E+02  0.26843549885E+03  0.26987501044E+03  0.41800000000E+01 0. -1.
         -5    1    3    3    0  502  0.18278557758E+02 -0.13027261864E+03  0.69314571813E+03  0.70553066539E+03  0.41800000000E+01 0. -1.
        -11    1    4    4    0    0  0.32968741553E+02  0.88615091192E+01  0.11454208479E+03  0.11952135145E+03  0.00000000000E+00 0.  1.
         11    1    4    4    0    0 -0.39711345117E+02  0.96424041322E+02  0.50068021391E+03  0.51142473862E+03  0.00000000000E+00 0. -1.
</event>
<event>
 8    1  0.7114239E-009  0.1258111E+03  0.7561462E-02  0.1233807E+00
          2   -1    0    0  501    0  0.00000000000E+00  0.00000000000E+00  0.11656591702E+04  0.11656591702E+04  0.00000000000E+00 0. -1.
         -2   -1    0    0    0  501 -0.00000000000E+00 -0.00000000000E+00 -0.16739771033E+02  0.16739771033E+02  0.00000000000E+00 0.  1.
         25    2    1    2    0    0 -0.13252377727E+02 -0.74074933184E+02  0.82318916206E+03  0.83603270741E+03  0.12509024775E+03 0.  0.
         23    2    1    2    0    0  0.13252377727E+02  0.74074933184E+02  0.32573023711E+03  0.34636623383E+03  0.90590613901E+02 0.  0.
          5    1    3    3  502    0 -0.50902723716E+02  0.25891868198E+01  0.46376901738E+03  0.46658007357E+03  0.41800000000E+01 0.  1.
         -5    1    3    3    0  502  0.37650345989E+02 -0.76664120004E+02  0.35942014467E+03  0.36945263383E+03  0.41800000000E+01 0.  1.
        -11    1    4    4    0    0  0.21487131489E+02 -0.14558492776E+02  0.46033473597E+02  0.52846260255E+02  0.00000000000E+00 0. -1.
         11    1    4    4    0    0 -0.82347537616E+01  0.88633425960E+02  0.27969676351E+03  0.29351997357E+03  0.00000000000E+00 0.  1.
</event>
<event>
 8    1  0.7114239E-009  0.1663098E+03  0.7561462E-02  0.1181752E+00
          2   -1    0    0  501    0  0.00000000000E+00  0.00000000000E+00  0.81289890639E+03  0.81289890639E+03  0.00000000000E+00 0. -1.
         -2   -1    0    0    0  501 -0.00000000000E+00 -0.00000000000E+00 -0.37598199721E+02  0.37598199721E+02  0.00000000000E+00 0.  1.
         25    2    1    2    0    0 -0.13614202442E+03 -0.20534951398E+02  0.37623717706E+03  0.41970734545E+03  0.12507400761E+03 0.  0.
         23    2    1    2    0    0  0.13614202442E+03  0.20534951398E+02  0.39906352961E+03  0.43078976066E+03  0.85859083304E+02 0.  0.
          5    1    3    3  502    0  0.15616956280E+02  0.15857575428E+02  0.17991272062E+02  0.28922487658E+02  0.41800000000E+01 0. -1.
         -5    1    3    3    0  502 -0.15175898070E+03 -0.36392526825E+02  0.35824590499E+03  0.39078485779E+03  0.41800000000E+01 0. -1.
        -11    1    4    4    0    0  0.63405570026E+02  0.44286170461E+02  0.13207663727E+03  0.15305479188E+03  0.00000000000E+00 0.  1.
         11    1    4    4    0    0  0.72736454393E+02 -0.23751219063E+02  0.26698689234E+03  0.27773496878E+03  0.00000000000E+00 0. -1.
</event>
<event>
 8    1  0.7114239E-009  0.4235085E+03  0.7561462E-02  0.1035930E+00
          1   -1    0    0  501    0  0.00000000000E+00  0.00000000000E+00  0.36364466877E+03  0.36364466877E+03  0.00000000000E+00 0. -1.
         -1   -1    0    0    0  501 -0.00000000000E+00 -0.00000000000E+00 -0.59245026728E+03  0.59245026728E+03  0.00000000000E+00 0.  1.
         25    2    1    2    0    0  0.12483599708E+03 -0.39414764741E+03 -0.30132452280E+03  0.52666955696E+03  0.12509180651E+03 0.  0.
         23    2    1    2    0    0 -0.12483599708E+03  0.39414764741E+03  0.72518924296E+02  0.42942537909E+03  0.90613286547E+02 0.  0.
          5    1    3    3  502    0  0.65558405618E+02 -0.34975282523E+03 -0.26722666968E+03  0.44503090757E+03  0.41800000000E+01 0. -1.
         -5    1    3    3    0  502  0.59277591466E+02 -0.44394822182E+02 -0.34097853124E+02  0.81638649390E+02  0.41800000000E+01 0. -1.
        -11    1    4    4    0    0 -0.12200867506E+03  0.31544751952E+03  0.87285089130E+02  0.34930207721E+03  0.00000000000E+00 0. -1.
         11    1    4    4    0    0 -0.28273220243E+01  0.78700127893E+02 -0.14766164833E+02  0.80123301880E+02  0.00000000000E+00 0.  1.
</event>
<event>
 8    1  0.7114239E-009  0.3015726E+03  0.7561462E-02  0.1084457E+00
         -2   -1    0    0    0  501 -0.00000000000E+00  0.00000000000E+00  0.64603454772E+02  0.64603454772E+02  0.00000000000E+00 0.  1.
          2   -1    0    0  501    0  0.00000000000E+00 -0.00000000000E+00 -0.16169692875E+04  0.16169692875E+04  0.00000000000E+00 0. -1.
         25    2    1    2    0    0  0.26481929783E+03  0.12861952101E+03 -0.10083537004E+04  0.10578736909E+04  0.12508924406E+03 0.  0.
         23    2    1    2    0    0 -0.26481929783E+03 -0.12861952101E+03 -0.54401213233E+03  0.62369905143E+03  0.79869048771E+02 0.  0.
          5    1    3    3  502    0 -0.53563903453E+01 -0.37200979613E+01 -0.11407112815E+03  0.11433383018E+03  0.41800000000E+01 0.  1.
         -5    1    3    3    0  502  0.27017568817E+03  0.13233961897E+03 -0.89428257228E+03  0.94353986069E+03  0.41800000000E+01 0.  1.
        -11    1    4    4    0    0 -0.15725067452E+03 -0.80989490284E+02 -0.24336372945E+03  0.30085374684E+03  0.00000000000E+00 0.  1.
         11    1    4    4    0    0 -0.10756862331E+03 -0.47630030721E+02 -0.30064840288E+03  0.32284530459E+03  0.00000000000E+00 0. -1.
</event>
<event>
 8    1  0.7114239E-009  0.1867534E+03  0.7561462E-02  0.1161423E+00
          3   -1    0    0  501    0  0.00000000000E+00  0.00000000000E+00  0.90386829937E+02  0.90386829937E+02  0.00000000000E+00 0. -1.
         -3   -1    0    0    0  501 -0.00000000000E+00 -0.00000000000E+00 -0.39743446680E+03  0.39743446680E+03  0.00000000000E+00 0.  1.
         25    2    1    2    0    0  0.10664364678E+03 -0.11149988914E+03 -0.18046071981E+03  0.26836870836E+03  0.12510235632E+03 0.  0.
         23    2    1    2    0    0 -0.10664364678E+03  0.11149988914E+03 -0.12658691705E+03  0.21945258837E+03  0.91269372175E+02 0.  0.
          5    1    3    3  502    0 -0.48861137026E+01  0.21067969977E+02 -0.68440296659E+01  0.23066135527E+02  0.41800000000E+01 0.  1.
         -5    1    3    3    0  502  0.11152976049E+03 -0.13256785911E+03 -0.17361669014E+03  0.24530257284E+03  0.41800000000E+01 0.  1.
        -11    1    4    4    0    0 -0.42944641955E+01  0.66066476555E+02 -0.58839725788E+02  0.88573896143E+02  0.00000000000E+00 0.  1.
         11    1    4    4    0    0 -0.10234918259E+03  0.45433412583E+02 -0.67747191262E+02  0.13087869223E+03  0.00000000000E+00 0. -1.
</event>
<event>
 8    1  0.7114239E-009  0.9996909E+02  0.7561462E-02  0.1280361E+00
          3   -1    0    0  501    0  0.00000000000E+00  0.00000000000E+00  0.66084705839E+03  0.66084705839E+03  0.00000000000E+00 0. -1.
         -3   -1    0    0    0  501 -0.00000000000E+00 -0.00000000000E+00 -0.30380701587E+02  0.30380701587E+02  0.00000000000E+00 0.  1.
         25    2    1    2    0    0 -0.39590448995E+02 -0.66722164506E+02  0.45961213904E+03  0.48260738012E+03  0.12508922457E+03 0.  0.
         23    2    1    2    0    0  0.39590448995E+02  0.66722164506E+02  0.17085421776E+03  0.20862037986E+03  0.91170435319E+02 0.  0.
          5    1    3    3  502    0 -0.40531290875E+02 -0.45778916351E+02  0.45697732771E+03  0.46106859052E+03  0.41800000000E+01 0. -1.
         -5    1    3    3    0  502  0.94084187969E+00 -0.20943248155E+02  0.26348113315E+01  0.21538789601E+02  0.41800000000E+01 0. -1.
        -11    1    4    4    0    0  0.41819790643E+02  0.87182508320E+02  0.12246767045E+03  0.15603850471E+03  0.00000000000E+00 0.  1.
         11    1    4    4    0    0 -0.22293416480E+01 -0.20460343813E+02  0.48386547316E+02  0.52581875150E+02  0.00000000000E+00 0. -1.
</event>
<event>
 8    1  0.7114239E-009  0.1702956E+03  0.7561462E-02  0.1177540E+00
          1   -1    0    0  501    0  0.00000000000E+00  0.00000000000E+00  0.35752874923E+02  0.35752874923E+02  0.00000000000E+00 0.  1.
         -1   -1    0    0    0  501 -0.00000000000E+00 -0.00000000000E+00 -0.97224023504E+03  0.97224023504E+03  0.00000000000E+00 0. -1.
         25    2    1    2    0    0  0.34396248605E+02 -0.13998734045E+03 -0.37130377578E+03  0.41748462159E+03  0.12508939982E+03 0.  0.
         23    2    1    2    0    0 -0.34396248605E+02  0.13998734045E+03 -0.56518358433E+03  0.59050848838E+03  0.92131609338E+02 0.  0.
          5    1    3    3  502    0 -0.13946583532E+02  0.18890856544E+02 -0.34517441360E+02  0.41955903174E+02  0.41800000000E+01 0.  1.
         -5    1    3    3    0  502  0.48342832137E+02 -0.15887819699E+03 -0.33678633442E+03  0.37552871841E+03  0.41800000000E+01 0.  1.
        -11    1    4    4    0    0  0.68008375856E+01  0.62417629186E+02 -0.10766236722E+03  0.12463304995E+03  0.00000000000E+00 0.  1.
         11    1    4    4    0    0 -0.41197086191E+02  0.77569711262E+02 -0.45752121712E+03  0.46587543843E+03  0.00000000000E+00 0. -1.
</event>
<event>
 8    1  0.7114239E-009  0.1028650E+03  0.7561462E-02  0.1274384E+00
         -2   -1    0    0    0  501 -0.00000000000E+00  0.00000000000E+00  0.22874116626E+02  0.22874116626E+02  0.00000000000E+00 0.  1.
          2   -1    0    0  501    0  0.00000000000E+00 -0.00000000000E+00 -0.77354558627E+03  0.77354558627E+03  0.00000000000E+00 0. -1.
         25    2    1    2    0    0  0.66133507602E+02 -0.37256484502E+02 -0.38164042323E+03  0.40872867249E+03  0.12509208053E+03 0.  0.
         23    2    1    2    0    0 -0.66133507602E+02  0.37256484502E+02 -0.36903104642E+03  0.38769103041E+03  0.91426119737E+02 0.  0.
          5    1    3    3  502    0  0.20571908656E+02 -0.50587770030E+02 -0.34308586588E+03  0.34743015078E+03  0.41800000000E+01 0. -1.
         -5    1    3    3    0  502  0.45561598946E+02  0.13331285528E+02 -0.38554557346E+02  0.61298521716E+02  0.41800000000E+01 0. -1.
        -11    1    4    4    0    0 -0.34779728774E+02  0.56622945532E+02 -0.31725009774E+03  0.32413486701E+03  0.00000000000E+00 0. -1.
         11    1    4    4    0    0 -0.31353778828E+02 -0.19366461030E+02 -0.51780948678E+02  0.63556163396E+02  0.00000000000E+00 0.  1.
</event>
<event>
 8    1  0.7114239E-009  0.1296750E+03  0.7561462E-02  0.1227939E+00
         -1   -1    0    0    0  501 -0.00000000000E+00  0.00000000000E+00  0.10098317786E+03  0.10098317786E+03  0.00000000000E+00 0.  1.
          1   -1    0    0  501    0  0.00000000000E+00 -0.00000000000E+00 -0.24553495544E+03  0.24553495544E+03  0.00000000000E+00 0. -1.
         25    2    1    2    0    0  0.86131802732E+02 -0.57268748068E+02 -0.13105638740E+03  0.20862136373E+03  0.12509476320E+03 0.  0.
         23    2    1    2    0    0 -0.86131802732E+02  0.57268748068E+02 -0.13495390172E+02  0.13789676957E+03  0.90194215747E+02 0.  0.
          5    1    3    3  502    0  0.19532924522E+02 -0.52949499382E+02  0.52104804092E+01  0.56831383330E+02  0.41800000000E+01 0. -1.
         -5    1    3    3    0  502  0.66598878209E+02 -0.43192486862E+01 -0.13626686781E+03  0.15178998040E+03  0.41800000000E+01 0. -1.
        -11    1    4    4    0    0 -0.76138738205E+02 -0.16218512958E+01  0.20177635280E+01  0.76182735752E+02  0.00000000000E+00 0.  1.
         11    1    4    4    0    0 -0.99930645268E+01  0.58890599364E+02 -0.15513153700E+02  0.61714033815E+02  0.00000000000E+00 0. -1.
</event>
<event>
 8    1  0.7114239E-009  0.9460799E+02  0.7561462E-02  0.1292061E+00
         -1   -1    0    0    0  501 -0.00000000000E+00  0.00000000000E+00  0.26714956392E+02  0.26714956392E+02  0.00000000000E+00 0.  1.
          1   -1    0    0  501    0  0.00000000000E+00 -0.00000000000E+00 -0.62579658163E+03  0.62579658163E+03  0.00000000000E+00 0. -1.
         25    2    1    2    0    0  0.31897485587E+02  0.61185093748E+02 -0.33359115176E+03  0.36289433181E+03  0.12509266261E+03 0.  0.
         23    2    1    2    0    0 -0.31897485587E+02 -0.61185093748E+02 -0.26549047347E+03  0.28961720621E+03  0.92907854055E+02 0.  0.
          5    1    3    3  502    0 -0.99015306926E+00  0.61968104603E+02 -0.32173594335E+03  0.32767745732E+03  0.41800000000E+01 0.  1.
         -5    1    3    3    0  502  0.32887638656E+02 -0.78301085533E+00 -0.11855208415E+02  0.35216874492E+02  0.41800000000E+01 0.  1.
        -11    1    4    4    0    0 -0.33187998341E+02 -0.45217584028E+00 -0.24944978077E+02  0.41519870280E+02  0.00000000000E+00 0.  1.
         11    1    4    4    0    0  0.12905127533E+01 -0.60732917907E+02 -0.24054549540E+03  0.24809733593E+03  0.00000000000E+00 0. -1.
</event>
<event>
 8    1  0.7114239E-009  0.2525780E+03  0.7561462E-02  0.1111686E+00
         -1   -1    0    0    0  501 -0.00000000000E+00  0.00000000000E+00  0.18989512737E+03  0.18989512737E+03  0.00000000000E+00 0.  1.
          1   -1    0    0  501    0  0.00000000000E+00 -0.00000000000E+00 -0.52024899599E+03  0.52024899599E+03  0.00000000000E+00 0. -1.
         25    2    1    2    0    0 -0.36622384163E+02 -0.22534186031E+03 -0.37732572392E+03  0.45841271650E+03  0.12508942278E+03 0.  0.
         23    2    1    2    0    0  0.36622384163E+02  0.22534186031E+03  0.46971855294E+02  0.25173140686E+03  0.95090446313E+02 0.  0.
          5    1    3    3  502    0 -0.71755488718E+02 -0.76964511554E+02 -0.18577552706E+03  0.21354719632E+03  0.41800000000E+01 0. -1.
         -5    1    3    3    0  502  0.35133104555E+02 -0.14837734875E+03 -0.19155019686E+03  0.24486552019E+03  0.41800000000E+01 0. -1.
        -11    1    4    4    0    0 -0.30072924484E+02  0.11037037972E+03  0.21726304405E+02  0.11643897032E+03  0.00000000000E+00 0. -1.
         11    1    4    4    0    0  0.66695308647E+02  0.11497148059E+03  0.25245550889E+02  0.13529243654E+03  0.00000000000E+00 0.  1.
</event>
<event>
 8    1  0.7114239E-009  0.1579036E+03  0.7561462E-02  0.1191084E+00
         -2   -1    0    0    0  501 -0.00000000000E+00  0.00000000000E+00  0.78791647420E+02  0.78791647420E+02  0.00000000000E+00 0.  1.
          2   -1    0    0  501    0  0.00000000000E+00 -0.00000000000E+00 -0.50122659200E+03  0.50122659200E+03  0.00000000000E+00 0. -1.
         25    2    1    2    0    0  0.13964133179E+03  0.63542051366E+02 -0.12742400802E+03  0.23541773179E+03  0.12508931523E+03 0.  0.
         23    2    1    2    0    0 -0.13964133179E+03 -0.63542051366E+02 -0.29501093656E+03  0.34460050763E+03  0.90447572285E+02 0.  0.
          5    1    3    3  502    0  0.11480815577E+03  0.59904445262E+02 -0.15221671717E+03  0.19989211235E+03  0.41800000000E+01 0. -1.
         -5    1    3    3    0  502  0.24833176020E+02  0.36376061047E+01  0.24792709152E+02  0.35525619439E+02  0.41800000000E+01 0. -1.
        -11    1    4    4    0    0 -0.55877442327E+02 -0.36049957845E+00 -0.39625156682E+02  0.68502347135E+02  0.00000000000E+00 0.  1.
         11    1    4    4    0    0 -0.83763889464E+02 -0.63181551788E+02 -0.25538577988E+03  0.27609816049E+03  0.00000000000E+00 0. -1.
</event>
<event>
 8    1  0.7114239E-009  0.1160524E+03  0.7561462E-02  0.1249755E+00
         -1   -1    0    0    0  501 -0.00000000000E+00  0.00000000000E+00  0.41336899388E+02  0.41336899388E+02  0.00000000000E+00 0.  1.
          1   -1    0    0  501    0  0.00000000000E+00 -0.00000000000E+00 -0.39194159627E+03  0.39194159627E+03  0.00000000000E+00 0. -1.
         25    2    1    2    0    0 -0.46181080157E+02  0.44781473261E+02 -0.15980677418E+03  0.21289482298E+03  0.12509167864E+03 0.  0.
         23    2    1    2    0    0  0.46181080157E+02 -0.44781473261E+02 -0.19079792269E+03  0.22038367268E+03  0.89593768565E+02 0.  0.
          5    1    3    3  502    0 -0.76862864298E+02 -0.65101338661E+01 -0.66096804370E+02  0.10166878429E+03  0.41800000000E+01 0.  1.
         -5    1    3    3    0  502  0.30681784141E+02  0.51291607127E+02 -0.93709969815E+02  0.11122603869E+03  0.41800000000E+01 0.  1.
        -11    1    4    4    0    0 -0.16543829010E+02  0.20366898876E+01 -0.30121257134E+01  0.16938691960E+02  0.00000000000E+00 0.  1.
         11    1    4    4    0    0  0.62724909167E+02 -0.46818163148E+02 -0.18778579698E+03  0.20344498072E+03  0.00000000000E+00 0. -1.
</event>
<event>
 8    1  0.7114239E-009  0.9505007E+02  0.7561462E-02  0.1291063E+00
         -2   -1    0    0    0  501 -0.00000000000E+00  0.00000000000E+00  0.47530610453E+02  0.47530610453E+02  0.00000000000E+00 0.  1.
          2   -1    0    0  501    0  0.00000000000E+00 -0.00000000000E+00 -0.28215444292E+03  0.28215444292E+03  0.00000000000E+00 0. -1.
         25    2    1    2    0    0  0.25711032982E+02 -0.31573856972E+02 -0.11898281022E+03  0.17737793402E+03  0.12509219276E+03 0.  0.
         23    2    1    2    0    0 -0.25711032982E+02  0.31573856972E+02 -0.11564102224E+03  0.15230711935E+03  0.90369502143E+02 0.  0.
          5    1    3    3  502    0 -0.43763116520E+02 -0.29160641281E+02 -0.84626251084E+02  0.99722756380E+02  0.41800000000E+01 0.  1.
         -5    1    3    3    0  502  0.69474149502E+02 -0.24132156907E+01 -0.34356559140E+02  0.77655177644E+02  0.41800000000E+01 0.  1.
        -11    1    4    4    0    0 -0.23512267218E+02 -0.10373678704E+02  0.35388058496E+01  0.25941531690E+02  0.00000000000E+00 0.  1.
         11    1    4    4    0    0 -0.21987657638E+01  0.41947535675E+02 -0.11917982809E+03  0.12636558766E+03  0.00000000000E+00 0. -1.
</event>
<event>
 8    1  0.7114239E-009  0.1093397E+03  0.7561462E-02  0.1261798E+00
         -2   -1    0    0    0  501 -0.00000000000E+00  0.00000000000E+00  0.11088070632E+03  0.11088070632E+03  0.00000000000E+00 0. -1.
          2   -1    0    0  501    0  0.00000000000E+00 -0.00000000000E+00 -0.12253940493E+03  0.12253940493E+03  0.00000000000E+00 0.  1.
         25    2    1    2    0    0 -0.39380895143E+02  0.30274837412E+02 -0.60716119703E+01  0.13472506221E+03  0.12508619921E+03 0.  0.
         23    2    1    2    0    0  0.39380895143E+02 -0.30274837412E+02 -0.55870866378E+01  0.98695049044E+02  0.85100390634E+02 0.  0.
          5    1    3    3  502    0 -0.17168330450E+02 -0.42280046194E+02  0.25491552332E+02  0.52437062436E+02  0.41800000000E+01 0. -1.
         -5    1    3    3    0  502 -0.22212564693E+02  0.72554883606E+02 -0.31563164302E+02  0.82287999770E+02  0.41800000000E+01 0. -1.
        -11    1    4    4    0    0 -0.57857766575E+01  0.24896606495E+02 -0.95439481186E+01  0.27283752898E+02  0.00000000000E+00 0.  1.
         11    1    4    4    0    0  0.45166671801E+02 -0.55171443908E+02  0.39568614809E+01  0.71411296146E+02  0.00000000000E+00 0. -1.
</event>
<event>
 8    1  0.7114239E-009  0.2205629E+03  0.7561462E-02  0.1133464E+00
         -2   -1    0    0    0  501 -0.00000000000E+00  0.00000000000E+00  0.27958743343E+03  0.27958743343E+03  0.00000000000E+00 0.  1.
          2   -1    0    0  501    0  0.00000000000E+00 -0.00000000000E+00 -0.25409297770E+03  0.25409297770E+03  0.00000000000E+00 0. -1.
         25    2    1    2    0    0 -0.11399496626E+03 -0.16223956832E+03  0.15487794862E+03  0.28097979032E+03  0.12508370693E+03 0.  0.
         23    2    1    2    0    0  0.11399496626E+03  0.16223956832E+03 -0.12938349289E+03  0.25270062081E+03  0.88323188699E+02 0.  0.
          5    1    3    3  502    0 -0.41486331404E+02 -0.14973134221E+03  0.75947368930E+02  0.17299151939E+03  0.41800000000E+01 0.  1.
         -5    1    3    3    0  502 -0.72508634857E+02 -0.12508226111E+02  0.78930579691E+02  0.10798827094E+03  0.41800000000E+01 0.  1.
        -11    1    4    4    0    0  0.84548971434E+01  0.73856547071E+02 -0.20300968699E+02  0.77061041786E+02  0.00000000000E+00 0.  1.
         11    1    4    4    0    0  0.10554006912E+03  0.88383021246E+02 -0.10908252419E+03  0.17563957902E+03  0.00000000000E+00 0. -1.
</event>
<event>
 8    1  0.7114239E-009  0.1377747E+03  0.7561462E-02  0.1216355E+00
          1   -1    0    0  501    0  0.00000000000E+00  0.00000000000E+00  0.79865172931E+03  0.79865172931E+03  0.00000000000E+00 0. -1.
         -1   -1    0    0    0  501 -0.00000000000E+00 -0.00000000000E+00 -0.28479351797E+02  0.28479351797E+02  0.00000000000E+00 0.  1.
         25    2    1    2    0    0  0.22760640793E+02 -0.82533595727E+02  0.25332756996E+03  0.29521562126E+03  0.12509022398E+03 0.  0.
         23    2    1    2    0    0 -0.22760640793E+02  0.82533595727E+02  0.51684480755E+03  0.53191545985E+03  0.92063348547E+02 0.  0.
          5    1    3    3  502    0 -0.50889271874E+02 -0.41301064173E+02  0.91209057575E+02  0.11239243959E+03  0.41800000000E+01 0. -1.
         -5    1    3    3    0  502  0.73649912667E+02 -0.41232531555E+02  0.16211851239E+03  0.18282318166E+03  0.41800000000E+01 0. -1.
        -11    1    4    4    0    0  0.30575990525E+02  0.60244930058E+02  0.25854156956E+03  0.26722291441E+03  0.00000000000E+00 0.  1.
         11    1    4    4    0    0 -0.53336631318E+02  0.22288665669E+02  0.25830323799E+03  0.26469254544E+03  0.00000000000E+00 0. -1.
</event>
<event>
 8    1  0.7114239E-009  0.1925665E+03  0.7561462E-02  0.1156167E+00
          1   -1    0    0  501    0  0.00000000000E+00  0.00000000000E+00  0.38932916353E+03  0.38932916353E+03  0.00000000000E+00 0. -1.
         -1   -1    0    0    0  501 -0.00000000000E+00 -0.00000000000E+00 -0.12640231972E+03  0.12640231972E+03  0.00000000000E+00 0.  1.
         25    2    1    2    0    0 -0.18901590704E+03  0.35932803232E+02  0.15331434528E+03  0.27598989934E+03  0.12508779560E+03 0.  0.
         23    2    1    2    0    0  0.18901590704E+03 -0.35932803232E+02  0.10961249852E+03  0.23974158391E+03  0.91885514419E+02 0.  0.
          5    1    3    3  502    0 -0.73462415022E+02  0.16652859495E+02 -0.87774440256E+01  0.75951037346E+02  0.41800000000E+01 0.  1.
         -5    1    3    3    0  502 -0.11555349202E+03  0.19279943737E+02  0.16209178931E+03  0.20003886200E+03  0.41800000000E+01 0.  1.
        -11    1    4    4    0    0  0.69462288010E+02 -0.15651098356E+02 -0.69494076810E+01  0.71542019837E+02  0.00000000000E+00 0.  1.
         11    1    4    4    0    0  0.11955361903E+03 -0.20281704876E+02  0.11656190620E+03  0.16819956407E+03  0.00000000000E+00 0. -1.
</event>
<event>
 8    1  0.7114239E-009  0.1480229E+03  0.7561462E-02  0.1202924E+00
          2   -1    0    0  501    0  0.00000000000E+00  0.00000000000E+00  0.74442343355E+03  0.74442343355E+03  0.00000000000E+00 0. -1.
         -2   -1    0    0    0  501 -0.00000000000E+00 -0.00000000000E+00 -0.32330481824E+02  0.32330481824E+02  0.00000000000E+00 0.  1.
         25    2    1    2    0    0 -0.81933553442E+02 -0.68933821205E+02  0.29127582220E+03  0.33459518434E+03  0.12508938364E+03 0.  0.
         23    2    1    2    0    0  0.81933553442E+02  0.68933821205E+02  0.42081712952E+03  0.44215873103E+03  0.83380501573E+02 0.  0.
          5    1    3    3  502    0  0.23686031802E+02  0.14856036903E+02  0.69393377525E+02  0.74930922718E+02  0.41800000000E+01 0.  1.
         -5    1    3    3    0  502 -0.10561958524E+03 -0.83789858108E+02  0.22188244468E+03  0.25966426162E+03  0.41800000000E+01 0.  1.
        -11    1    4    4    0    0  0.79062779513E+02  0.16989050988E+02  0.29800018656E+03  0.30877769050E+03  0.00000000000E+00 0. -1.
         11    1    4    4    0    0  0.28707739289E+01  0.51944770218E+02  0.12281694296E+03  0.13338104053E+03  0.00000000000E+00 0.  1.
</event>
<event>
 8    1  0.7114239E-009  0.1048001E+03  0.7561462E-02  0.1270514E+00
          1   -1    0    0  501    0  0.00000000000E+00  0.00000000000E+00  0.15907342228E+04  0.15907342228E+04  0.00000000000E+00 0. -1.
         -1   -1    0    0    0  501 -0.00000000000E+00 -0.00000000000E+00 -0.11412428161E+02  0.11412428161E+02  0.00000000000E+00 0.  1.
         25    2    1    2    0    0 -0.41247096466E+02 -0.21514724773E+02  0.12592333580E+04  0.12662858819E+04  0.12508828213E+03 0.  0.
         23    2    1    2    0    0  0.41247096466E+02  0.21514724773E+02  0.32008843665E+03  0.33586076912E+03  0.90452432851E+02 0.  0.
          5    1    3    3  502    0 -0.69033346801E+02  0.78800481467E+01  0.10905913963E+04  0.10928104887E+04  0.41800000000E+01 0.  1.
         -5    1    3    3    0  502  0.27786250335E+02 -0.29394772920E+02  0.16864196170E+03  0.17347539315E+03  0.41800000000E+01 0.  1.
        -11    1    4    4    0    0  0.28348229425E+01  0.50891519485E+02  0.12790962006E+03  0.13769115396E+03  0.00000000000E+00 0.  1.
         11    1    4    4    0    0  0.38412273524E+02 -0.29376794712E+02  0.19217881659E+03  0.19816961516E+03  0.00000000000E+00 0. -1.
</event>
<event>
 8    1  0.7114239E-009  0.1148741E+03  0.7561462E-02  0.1251801E+00
         -1   -1    0    0    0  501 -0.00000000000E+00  0.00000000000E+00  0.51764136283E+02  0.51764136283E+02  0.00000000000E+00 0.  1.
          1   -1    0    0  501    0  0.00000000000E+00 -0.00000000000E+00 -0.29669865414E+03  0.29669865414E+03  0.00000000000E+00 0. -1.
         25    2    1    2    0    0  0.34445248284E+02 -0.23446958534E+02 -0.75470133838E+02  0.15192990101E+03  0.12510283260E+03 0.  0.
         23    2    1    2    0    0 -0.34445248284E+02  0.23446958534E+02 -0.16946438402E+03  0.19653288942E+03  0.90392279408E+02 0.  0.
          5    1    3    3  502    0  0.81035169102E+02 -0.10848580921E+02 -0.58423847441E+02  0.10057439380E+03  0.41800000000E+01 0.  1.
         -5    1    3    3    0  502 -0.46589920818E+02 -0.12598377614E+02 -0.17046286397E+02  0.51355507205E+02  0.41800000000E+01 0.  1.
        -11    1    4    4    0    0 -0.65392937052E+02  0.19515993592E+02 -0.11226537768E+03  0.13137969876E+03  0.00000000000E+00 0. -1.
         11    1    4    4    0    0  0.30947688768E+02  0.39309649420E+01 -0.57199006345E+02  0.65153190654E+02  0.00000000000E+00 0.  1.
</event>
<event>
 8    1  0.7114239E-009  0.1248230E+03  0.7561462E-02  0.1235346E+00
         -1   -1    0    0    0  501 -0.00000000000E+00  0.00000000000E+00  0.85388305078E+02  0.85388305078E+02  0.00000000000E+00 0.  1.
          1   -1    0    0  501    0  0.00000000000E+00 -0.00000000000E+00 -0.20246934810E+03  0.20246934810E+03  0.00000000000E+00 0. -1.
         25    2    1    2    0    0 -0.56093352229E+02 -0.33760286890E+02 -0.10263843339E+03  0.17454662066E+03  0.12508258727E+03 0.  0.
         23    2    1    2    0    0  0.56093352229E+02  0.33760286890E+02 -0.14442609629E+02  0.11331103252E+03  0.91348672584E+02 0.  0.
          5    1    3    3  502    0 -0.36820748724E+02  0.44677461564E+02 -0.27818241075E+02  0.64367461072E+02  0.41800000000E+01 0.  1.
         -5    1    3    3    0  502 -0.19272603506E+02 -0.78437748454E+02 -0.74820192319E+02  0.11017915959E+03  0.41800000000E+01 0.  1.
        -11    1    4    4    0    0  0.20885522849E+02 -0.30783157286E+02 -0.14118156809E+02  0.39788568570E+02  0.00000000000E+00 0.  1.
         11    1    4    4    0    0  0.35207829380E+02  0.64543444176E+02 -0.32445282038E+00  0.73522463951E+02  0.00000000000E+00 0. -1.
</event>
<event>
 8    1  0.7114239E-009  0.1960184E+03  0.7561462E-02  0.1153142E+00
         -1   -1    0    0    0  501 -0.00000000000E+00  0.00000000000E+00  0.29483674205E+02  0.29483674205E+02  0.00000000000E+00 0.  1.
          1   -1    0    0  501    0  0.00000000000E+00 -0.00000000000E+00 -0.21709074026E+04  0.21709074026E+04  0.00000000000E+00 0. -1.
         25    2    1    2    0    0 -0.17730478561E+03  0.54128339477E+02 -0.16845230202E+04  0.16993035167E+04  0.12509105440E+03 0.  0.
         23    2    1    2    0    0  0.17730478561E+03 -0.54128339477E+02 -0.45690070818E+03  0.50108756016E+03  0.89239126420E+02 0.  0.
          5    1    3    3  502    0 -0.97612367019E+01  0.41939312306E+01 -0.65027013411E+03  0.65037034873E+03  0.41800000000E+01 0.  1.
         -5    1    3    3    0  502 -0.16754354891E+03  0.49934408246E+02 -0.10342528861E+04  0.10489331679E+04  0.41800000000E+01 0.  1.
        -11    1    4    4    0    0  0.11887503840E+03  0.96263956088E+01 -0.26463295747E+03  0.29026633360E+03  0.00000000000E+00 0.  1.
         11    1    4    4    0    0  0.58429747210E+02 -0.63754735086E+02 -0.19226775071E+03  0.21082122656E+03  0.00000000000E+00 0. -1.
</event>
<event>
 8    1  0.7114239E-009  0.1212836E+03  0.7561462E-02  0.1240994E+00
          4   -1    0    0  501    0  0.00000000000E+00  0.00000000000E+00  0.18108881782E+02  0.18108881782E+02  0.00000000000E+00 0. -1.
         -4   -1    0    0    0  501 -0.00000000000E+00 -0.00000000000E+00 -0.91368394822E+03  0.91368394822E+03  0.00000000000E+00 0.  1.
         25    2    1    2    0    0  0.46331947681E+02 -0.44574748424E+02 -0.61993085249E+03  0.63568175378E+03  0.12507386877E+03 0.  0.
         23    2    1    2    0    0 -0.46331947681E+02  0.44574748424E+02 -0.27564421395E+03  0.29611107622E+03  0.86997006866E+02 0.  0.
          5    1    3    3  502    0 -0.21804959588E+02 -0.65546695466E+02 -0.30929312526E+03  0.31694090188E+03  0.41800000000E+01 0. -1.
         -5    1    3    3    0  502  0.68136907270E+02  0.20971947042E+02 -0.31063772723E+03  0.31874085191E+03  0.41800000000E+01 0. -1.
        -11    1    4    4    0    0 -0.10236285724E+02  0.61312536023E+02 -0.21312441871E+03  0.22200456407E+03  0.00000000000E+00 0.  1.
         11    1    4    4    0    0 -0.36095661957E+02 -0.16737787599E+02 -0.62519795242E+02  0.74106512150E+02  0.00000000000E+00 0. -1.
</event>
<event>
 8    1  0.7114239E-009  0.1515545E+03  0.7561462E-02  0.1198576E+00
          1   -1    0    0  501    0  0.00000000000E+00  0.00000000000E+00  0.20004334693E+03  0.20004334693E+03  0.00000000000E+00 0. -1.
         -1   -1    0    0    0  501 -0.00000000000E+00 -0.00000000000E+00 -0.15579554875E+03  0.15579554875E+03  0.00000000000E+00 0.  1.
         25    2    1    2    0    0  0.14673093526E+02  0.13632447251E+03  0.14315383722E+01  0.18560330546E+03  0.12508747425E+03 0.  0.
         23    2    1    2    0    0 -0.14673093526E+02 -0.13632447251E+03  0.42816259804E+02  0.17023559022E+03  0.91363354766E+02 0.  0.
          5    1    3    3  502    0  0.20415756857E+00  0.11407136179E+03 -0.52275921630E+02  0.12554904079E+03  0.41800000000E+01 0.  1.
         -5    1    3    3    0  502  0.14468935957E+02  0.22253110720E+02  0.53707460002E+02  0.60054264664E+02  0.41800000000E+01 0.  1.
        -11    1    4    4    0    0 -0.51179370497E+02 -0.79209327317E+02  0.39868426252E+02  0.10238621445E+03  0.00000000000E+00 0. -1.
         11    1    4    4    0    0  0.36506276971E+02 -0.57115145195E+02  0.29478335520E+01  0.67849375764E+02  0.00000000000E+00 0.  1.
</event>
<event>
 8    1  0.7114239E-009  0.1242650E+03  0.7561462E-02  0.1236223E+00
         -2   -1    0    0    0  501 -0.00000000000E+00  0.00000000000E+00  0.64166470563E+02  0.64166470563E+02  0.00000000000E+00 0. -1.
          2   -1    0    0  501    0  0.00000000000E+00 -0.00000000000E+00 -0.34913384786E+03  0.34913384786E+03  0.00000000000E+00 0.  1.
         25    2    1    2    0    0 -0.58325987560E+02  0.66245475201E+02 -0.81533464912E+02  0.17344322603E+03  0.12507782755E+03 0.  0.
         23    2    1    2    0    0  0.58325987560E+02 -0.66245475201E+02 -0.20343391238E+03  0.23985709240E+03  0.91409431987E+02 0.  0.
          5    1    3    3  502    0 -0.14073384824E+01 -0.27346887406E+02  0.11181233071E+02  0.29871813225E+02  0.41800000000E+01 0. -1.
         -5    1    3    3    0  502 -0.56918649078E+02  0.93592362607E+02 -0.92714697983E+02  0.14357141280E+03  0.41800000000E+01 0. -1.
        -11    1    4    4    0    0 -0.17059225521E+01 -0.48610205887E+02 -0.14962668148E+03  0.15733405893E+03  0.00000000000E+00 0. -1.
         11    1    4    4    0    0  0.60031910112E+02 -0.17635269314E+02 -0.53807230904E+02  0.82523033470E+02  0.00000000000E+00 0.  1.
</event>
<event>
 8    1  0.7114239E-009  0.1366353E+03  0.7561462E-02  0.1217929E+00
          2   -1    0    0  501    0  0.00000000000E+00  0.00000000000E+00  0.99668698701E+03  0.99668698701E+03  0.00000000000E+00 0. -1.
         -2   -1    0    0    0  501 -0.00000000000E+00 -0.00000000000E+00 -0.20756367066E+02  0.20756367066E+02  0.00000000000E+00 0.  1.
         25    2    1    2    0    0  0.87564373249E+02 -0.27696463263E+02  0.46473256554E+03  0.48995731948E+03  0.12508878407E+03 0.  0.
         23    2    1    2    0    0 -0.87564373249E+02  0.27696463263E+02  0.51119805440E+03  0.52748603459E+03  0.92105658485E+02 0.  0.
          5    1    3    3  502    0  0.11334942907E+03 -0.12770793916E+02  0.27334802733E+03  0.29622255601E+03  0.41800000000E+01 0.  1.
         -5    1    3    3    0  502 -0.25785055821E+02 -0.14925669347E+02  0.19138453821E+03  0.19373476347E+03  0.41800000000E+01 0.  1.
        -11    1    4    4    0    0  0.71605716476E+01  0.33387347140E+02  0.10791343457E+03  0.11318700497E+03  0.00000000000E+00 0.  1.
         11    1    4    4    0    0 -0.94724944897E+02 -0.56908838769E+01  0.40328461984E+03  0.41429902962E+03  0.00000000000E+00 0. -1.
</event>
<event>
 8    1  0.7114239E-009  0.1432463E+03  0.7561462E-02  0.1209026E+00
         -2   -1    0    0    0  501 -0.00000000000E+00  0.00000000000E+00  0.49920832453E+02  0.49920832453E+02  0.00000000000E+00 0.  1.
          2   -1    0    0  501    0  0.00000000000E+00 -0.00000000000E+00 -0.51416438746E+03  0.51416438746E+03  0.00000000000E+00 0. -1.
         25    2    1    2    0    0 -0.60827016119E+02 -0.10037563099E+03 -0.26227310172E+03  0.31338271290E+03  0.12508537753E+03 0.  0.
         23    2    1    2    0    0  0.60827016119E+02  0.10037563099E+03 -0.20197045329E+03  0.25070250701E+03  0.91019172897E+02 0.  0.
          5    1    3    3  502    0 -0.20956268817E+02 -0.10515660509E+03 -0.24857769370E+03  0.27074973500E+03  0.41800000000E+01 0. -1.
         -5    1    3    3    0  502 -0.39870747302E+02  0.47809740973E+01 -0.13695408018E+02  0.42632977899E+02  0.41800000000E+01 0. -1.
        -11    1    4    4    0    0  0.19954320049E+02  0.95602742528E+02 -0.95666980148E+02  0.13671221730E+03  0.00000000000E+00 0.  1.
         11    1    4    4    0    0  0.40872696070E+02  0.47728884646E+01 -0.10630347314E+03  0.11399028972E+03  0.00000000000E+00 0. -1.
</event>
<event>
 8    1  0.7114239E-009  0.1751389E+03  0.7561462E-02  0.1172592E+00
         -1   -1    0    0    0  501 -0.00000000000E+00  0.00000000000E+00  0.48232432563E+02  0.48232432563E+02  0.00000000000E+00 0.  1.
          1   -1    0    0  501    0  0.00000000000E+00 -0.00000000000E+00 -0.88901141791E+03  0.88901141791E+03  0.00000000000E+00 0. -1.
         25    2    1    2    0    0  0.10038562187E+03 -0.12517907631E+03 -0.60089368358E+03  0.63440309318E+03  0.12508793484E+03 0.  0.
         23    2    1    2    0    0 -0.10038562187E+03  0.12517907631E+03 -0.23988530177E+03  0.30284075729E+03  0.91763239104E+02 0.  0.
          5    1    3    3  502    0  0.12176730285E+01 -0.53702043319E+02 -0.63555913433E+02  0.83319977895E+02  0.41800000000E+01 0. -1.
         -5    1    3    3    0  502  0.99167948843E+02 -0.71477032991E+02 -0.53733777015E+03  0.55108311528E+03  0.41800000000E+01 0. -1.
        -11    1    4    4    0    0 -0.17882055990E+02 -0.62193861232E+01 -0.22863007728E+01  0.19070287397E+02  0.00000000000E+00 0.  1.
         11    1    4    4    0    0 -0.82503565882E+02  0.13139846243E+03 -0.23759900099E+03  0.28377046990E+03  0.00000000000E+00 0. -1.
</event>
<event>
 8    1  0.7114239E-009  0.2647322E+03  0.7561462E-02  0.1104333E+00
          2   -1    0    0  501    0  0.00000000000E+00  0.00000000000E+00  0.24907760637E+03  0.24907760637E+03  0.00000000000E+00 0.  1.
         -2   -1    0    0    0  501 -0.00000000000E+00 -0.00000000000E+00 -0.30694413746E+03  0.30694413746E+03  0.00000000000E+00 0. -1.
         25    2    1    2    0    0  0.24397794247E+03 -0.69197972185E+02 -0.15744670951E+02  0.28320673406E+03  0.12507823067E+03 0.  0.
         23    2    1    2    0    0 -0.24397794247E+03  0.69197972185E+02 -0.42121860145E+02  0.27281500977E+03  0.91324600659E+02 0.  0.
          5    1    3    3  502    0  0.16507796590E+03 -0.74665529085E+02 -0.61939807825E+02  0.19151942004E+03  0.41800000000E+01 0. -1.
         -5    1    3    3    0  502  0.78899976576E+02  0.54675569000E+01  0.46195136875E+02  0.91687314025E+02  0.41800000000E+01 0. -1.
        -11    1    4    4    0    0 -0.21350572543E+03  0.90462578891E+02 -0.30472091945E+02  0.23387330194E+03  0.00000000000E+00 0. -1.
         11    1    4    4    0    0 -0.30472217040E+02 -0.21264606705E+02 -0.11649768200E+02  0.38941707831E+02  0.00000000000E+00 0.  1.
</event>
<event>
 8    1  0.7114239E-009  0.1818634E+03  0.7561462E-02  0.1166012E+00
          2   -1    0    0  501    0  0.00000000000E+00  0.00000000000E+00  0.44757182751E+02  0.44757182751E+02  0.00000000000E+00 0. -1.
         -2   -1    0    0    0  501 -0.00000000000E+00 -0.00000000000E+00 -0.97328054622E+03  0.97328054622E+03  0.00000000000E+00 0.  1.
         25    2    1    2    0    0  0.70532011164E+02  0.14748701179E+03 -0.31203140685E+03  0.37381618583E+03  0.12509100159E+03 0.  0.
         23    2    1    2    0    0 -0.70532011164E+02 -0.14748701179E+03 -0.61649195662E+03  0.64422154315E+03  0.90729713076E+02 0.  0.
          5    1    3    3  502    0  0.28892683308E+02 -0.13587813249E+02 -0.20636588959E+02  0.38246006608E+02  0.41800000000E+01 0.  1.
         -5    1    3    3    0  502  0.41639327857E+02  0.16107482504E+03 -0.29139481789E+03  0.33557017922E+03  0.41800000000E+01 0.  1.
        -11    1    4    4    0    0 -0.59953081411E+02 -0.10122276143E+03 -0.55053746997E+03  0.56296707296E+03  0.00000000000E+00 0.  1.
         11    1    4    4    0    0 -0.10578929753E+02 -0.46264250354E+02 -0.65954486654E+02  0.81254470187E+02  0.00000000000E+00 0. -1.
</event>
<event>
 8    1  0.7114239E-009  0.1152093E+03  0.7561462E-02  0.1251216E+00
         -1   -1    0    0    0  501 -0.00000000000E+00  0.00000000000E+00  0.22374353880E+02  0.22374353880E+02  0.00000000000E+00 0.  1.
          1   -1    0    0  501    0  0.00000000000E+00 -0.00000000000E+00 -0.81522222762E+03  0.81522222762E+03  0.00000000000E+00 0. -1.
         25    2    1    2    0    0  0.30804242993E+02 -0.60866667888E+02 -0.56375223051E+03  0.58147539389E+03  0.12507359293E+03 0.  0.
         23    2    1    2    0    0 -0.30804242993E+02  0.60866667888E+02 -0.22909564323E+03  0.25612118761E+03  0.91976064006E+02 0.  0.
          5    1    3    3  502    0  0.33069445761E+02  0.26548051996E+02 -0.88468328355E+02  0.98196256698E+02  0.41800000000E+01 0.  1.
         -5    1    3    3    0  502 -0.22652027680E+01 -0.87414719884E+02 -0.47528390216E+03  0.48327913719E+03  0.41800000000E+01 0.  1.
        -11    1    4    4    0    0 -0.39338791748E+02  0.54833460827E+00 -0.34888986792E+02  0.52584052776E+02  0.00000000000E+00 0.  1.
         11    1    4    4    0    0  0.85345487542E+01  0.60318333280E+02 -0.19420665643E+03  0.20353713483E+03  0.00000000000E+00 0. -1.
</event>
<event>
 8    1  0.7114239E-009  0.1218076E+03  0.7561462E-02  0.1240144E+00
         -1   -1    0    0    0  501 -0.00000000000E+00  0.00000000000E+00  0.56168393954E+02  0.56168393954E+02  0.00000000000E+00 0.  1.
          1   -1    0    0  501    0  0.00000000000E+00 -0.00000000000E+00 -0.45522059909E+03  0.45522059909E+03  0.00000000000E+00 0. -1.
         25    2    1    2    0    0  0.95489723274E+01  0.70884968251E+02 -0.65693975042E+02  0.15836536445E+03  0.12509208090E+03 0.  0.
         23    2    1    2    0    0 -0.95489723274E+01 -0.70884968251E+02 -0.33335823010E+03  0.35302362860E+03  0.91553870364E+02 0.  0.
          5    1    3    3  502    0  0.58053029112E+02  0.26255441467E+02  0.18767746076E+01  0.63878768606E+02  0.41800000000E+01 0. -1.
         -5    1    3    3    0  502 -0.48504056785E+02  0.44629526784E+02 -0.67570749650E+02  0.94486595842E+02  0.41800000000E+01 0. -1.
        -11    1    4    4    0    0  0.39681384406E+02 -0.30715689652E+02 -0.11201823706E+03  0.12274425157E+03  0.00000000000E+00 0.  1.
         11    1    4    4    0    0 -0.49230356734E+02 -0.40169278599E+02 -0.22133999303E+03  0.23027937703E+03  0.00000000000E+00 0. -1.
</event>
<event>
 8    1  0.7114239E-009  0.1423830E+03  0.7561462E-02  0.1210158E+00
          2   -1    0    0  501    0  0.00000000000E+00  0.00000000000E+00  0.13110645778E+03  0.13110645778E+03  0.00000000000E+00 0. -1.
         -2   -1    0    0    0  501 -0.00000000000E+00 -0.00000000000E+00 -0.16905410617E+03  0.16905410617E+03  0.00000000000E+00 0.  1.
         25    2    1    2    0    0  0.47568391694E+02  0.88687614534E+02 -0.23072168838E+01  0.16056271785E+03  0.12508724257E+03 0.  0.
         23    2    1    2    0    0 -0.47568391694E+02 -0.88687614534E+02 -0.35640431506E+02  0.13959784609E+03  0.89939276270E+02 0.  0.
          5    1    3    3  502    0 -0.30801735757E+02  0.58869059347E+02 -0.28788917564E+02  0.72529905891E+02  0.41800000000E+01 0. -1.
         -5    1    3    3    0  502  0.78370127451E+02  0.29818555187E+02  0.26481700680E+02  0.88032811957E+02  0.41800000000E+01 0. -1.
        -11    1    4    4    0    0 -0.73316054471E+02 -0.75765013329E+02 -0.33859983789E+02  0.11073427469E+03  0.00000000000E+00 0.  1.
         11    1    4    4    0    0  0.25747662777E+02 -0.12922601205E+02 -0.17804477174E+01  0.28863571408E+02  0.00000000000E+00 0. -1.
</event>
<event>
 8    1  0.7114239E-009  0.1712367E+03  0.7561462E-02  0.1176564E+00
          1   -1    0    0  501    0  0.00000000000E+00  0.00000000000E+00  0.38842231420E+03  0.38842231420E+03  0.00000000000E+00 0. -1.
         -1   -1    0    0    0  501 -0.00000000000E+00 -0.00000000000E+00 -0.79999557245E+02  0.79999557245E+02  0.00000000000E+00 0.  1.
         25    2    1    2    0    0  0.58423289393E+02 -0.11938845418E+03  0.21430336120E+03  0.28149639713E+03  0.12508959686E+03 0.  0.
         23    2    1    2    0    0 -0.58423289393E+02  0.11938845418E+03  0.94119395754E+02  0.18692547431E+03  0.91737607087E+02 0.  0.
          5    1    3    3  502    0  0.47578714379E+02 -0.14588806950E+03  0.17723777734E+03  0.23447337802E+03  0.41800000000E+01 0.  1.
         -5    1    3    3    0  502  0.10844575014E+02  0.26499615322E+02  0.37065583859E+02  0.47023019111E+02  0.41800000000E+01 0.  1.
        -11    1    4    4    0    0 -0.46566620465E+02  0.13362256795E+03  0.74407819887E+02  0.15987484001E+03  0.00000000000E+00 0.  1.
         11    1    4    4    0    0 -0.11856668928E+02 -0.14234113772E+02  0.19711575867E+02  0.27050634302E+02  0.00000000000E+00 0. -1.
</event>
<event>
 8    1  0.7114239E-009  0.1884862E+03  0.7561462E-02  0.1159834E+00
          1   -1    0    0  501    0  0.00000000000E+00  0.00000000000E+00  0.52505054337E+02  0.52505054337E+02  0.00000000000E+00 0. -1.
         -1   -1    0    0    0  501 -0.00000000000E+00 -0.00000000000E+00 -0.10085562229E+04  0.10085562229E+04  0.00000000000E+00 0.  1.
         25    2    1    2    0    0 -0.22573679708E+02  0.15884640309E+03 -0.77960147478E+03  0.80570920133E+03  0.12508839605E+03 0.  0.
         23    2    1    2    0    0  0.22573679708E+02 -0.15884640309E+03 -0.17644969382E+03  0.25535207595E+03  0.91260273133E+02 0.  0.
          5    1    3    3  502    0 -0.29840337767E+02  0.17617606693E+03 -0.74472123949E+03  0.76586921159E+03  0.41800000000E+01 0.  1.
         -5    1    3    3    0  502  0.72666580586E+01 -0.17329663835E+02 -0.34880235292E+02  0.39839989734E+02  0.41800000000E+01 0.  1.
        -11    1    4    4    0    0 -0.23189355047E+02 -0.10850034230E+03 -0.77776158951E+02  0.13549613046E+03  0.00000000000E+00 0. -1.
         11    1    4    4    0    0  0.45763034755E+02 -0.50346060788E+02 -0.98673534867E+02  0.11985594549E+03  0.00000000000E+00 0.  1.
</event>
<event>
 8    1  0.7114239E-009  0.1333822E+03  0.7561462E-02  0.1222522E+00
         -3   -1    0    0    0  501 -0.00000000000E+00  0.00000000000E+00  0.80473893209E+02  0.80473893209E+02  0.00000000000E+00 0.  1.
          3   -1    0    0  501    0  0.00000000000E+00 -0.00000000000E+00 -0.26933598924E+03  0.26933598924E+03  0.00000000000E+00 0. -1.
         25    2    1    2    0    0 -0.16724188413E+02 -0.94248425111E+02 -0.12014267600E+03  0.19810059292E+03  0.12508844153E+03 0.  0.
         23    2    1    2    0    0  0.16724188413E+02  0.94248425111E+02 -0.68719420037E+02  0.15170928954E+03  0.95555668214E+02 0.  0.
          5    1    3    3  502    0 -0.27699641147E+02 -0.11080541505E+03 -0.13199026627E+03  0.17459671507E+03  0.41800000000E+01 0.  1.
         -5    1    3    3    0  502  0.10975452734E+02  0.16556989939E+02  0.11847590270E+02  0.23503877845E+02  0.41800000000E+01 0.  1.
        -11    1    4    4    0    0  0.38081028315E+02  0.10244796643E+03 -0.43433280290E+02  0.11761037531E+03  0.00000000000E+00 0.  1.
         11    1    4    4    0    0 -0.21356839902E+02 -0.81995413182E+01 -0.25286139747E+02  0.34098914231E+02  0.00000000000E+00 0. -1.
</event>
<event>
 8    1  0.7114239E-009  0.1004486E+03  0.7561462E-02  0.1279355E+00
          1   -1    0    0  501    0  0.00000000000E+00  0.00000000000E+00  0.48661031889E+03  0.48661031889E+03  0.00000000000E+00 0. -1.
         -1   -1    0    0    0  501 -0.00000000000E+00 -0.00000000000E+00 -0.26947211126E+02  0.26947211126E+02  0.00000000000E+00 0.  1.
         25    2    1    2    0    0 -0.14149256400E+02 -0.10017409308E+02  0.34026254141E+03  0.36294231460E+03  0.12509187301E+03 0.  0.
         23    2    1    2    0    0  0.14149256400E+02  0.10017409308E+02  0.11940056635E+03  0.15061521541E+03  0.90154855240E+02 0.  0.
          5    1    3    3  502    0  0.40875060225E+02  0.30909944684E+02  0.20346931339E+03  0.20986526421E+03  0.41800000000E+01 0.  1.
         -5    1    3    3    0  502 -0.55024316626E+02 -0.40927353992E+02  0.13679322802E+03  0.15307705040E+03  0.41800000000E+01 0.  1.
        -11    1    4    4    0    0  0.31140404376E+02  0.37328240342E+02  0.33900802992E+02  0.59265392559E+02  0.00000000000E+00 0.  1.
         11    1    4    4    0    0 -0.16991147975E+02 -0.27310831033E+02  0.85499763357E+02  0.91349822853E+02  0.00000000000E+00 0. -1.
</event>
<event>
 8    1  0.7114239E-009  0.1302618E+03  0.7561462E-02  0.1227068E+00
          1   -1    0    0  501    0  0.00000000000E+00  0.00000000000E+00  0.21088586559E+03  0.21088586559E+03  0.00000000000E+00 0. -1.
         -1   -1    0    0    0  501 -0.00000000000E+00 -0.00000000000E+00 -0.13254823132E+03  0.13254823132E+03  0.00000000000E+00 0.  1.
         25    2    1    2    0    0 -0.93531395829E+02 -0.87035049775E+02  0.43896529898E+02  0.18411140414E+03  0.12508749698E+03 0.  0.
         23    2    1    2    0    0  0.93531395829E+02  0.87035049775E+02  0.34441104379E+02  0.15932269278E+03  0.88737302569E+02 0.  0.
          5    1    3    3  502    0 -0.27997265128E+02 -0.85050265773E+01 -0.41397385401E+02  0.50866474713E+02  0.41800000000E+01 0. -1.
         -5    1    3    3    0  502 -0.65534130701E+02 -0.78530023197E+02  0.85293915299E+02  0.13324492942E+03  0.41800000000E+01 0. -1.
        -11    1    4    4    0    0  0.47453985430E+02  0.34201992844E+02  0.60853826667E+02  0.84408798520E+02  0.00000000000E+00 0. -1.
         11    1    4    4    0    0  0.46077410399E+02  0.52833056931E+02 -0.26412722288E+02  0.74913894255E+02  0.00000000000E+00 0.  1.
</event>
<event>
 8    1  0.7114239E-009  0.2231847E+03  0.7561462E-02  0.1131531E+00
         -1   -1    0    0    0  501 -0.00000000000E+00  0.00000000000E+00  0.10778588269E+03  0.10778588269E+03  0.00000000000E+00 0.  1.
          1   -1    0    0  501    0  0.00000000000E+00 -0.00000000000E+00 -0.48949759643E+03  0.48949759643E+03  0.00000000000E+00 0. -1.
         25    2    1    2    0    0 -0.17860103171E+03 -0.87110430591E+02 -0.24931482199E+03  0.34247768921E+03  0.12508609633E+03 0.  0.
         23    2    1    2    0    0  0.17860103171E+03  0.87110430591E+02 -0.13239689175E+03  0.25480578992E+03  0.88940980351E+02 0.  0.
          5    1    3    3  502    0 -0.68040260894E+02  0.23761232129E+02 -0.11680350899E+03  0.13731207291E+03  0.41800000000E+01 0.  1.
         -5    1    3    3    0  502 -0.11056077081E+03 -0.11087166272E+03 -0.13251131301E+03  0.20516561630E+03  0.41800000000E+01 0.  1.
        -11    1    4    4    0    0  0.16732889377E+03  0.44043240328E+02 -0.10921811498E+03  0.20461515669E+03  0.00000000000E+00 0.  1.
         11    1    4    4    0    0  0.11272137937E+02  0.43067190263E+02 -0.23178776765E+02  0.50190633221E+02  0.00000000000E+00 0. -1.
</event>
<event>
 8    1  0.7114239E-009  0.1058800E+03  0.7561462E-02  0.1268396E+00
         -1   -1    0    0    0  501 -0.00000000000E+00  0.00000000000E+00  0.65742366213E+02  0.65742366213E+02  0.00000000000E+00 0.  1.
          1   -1    0    0  501    0  0.00000000000E+00 -0.00000000000E+00 -0.22767012151E+03  0.22767012151E+03  0.00000000000E+00 0. -1.
         25    2    1    2    0    0  0.35266946263E+02  0.35963143990E+02 -0.56443124626E+02  0.14619298498E+03  0.12509779101E+03 0.  0.
         23    2    1    2    0    0 -0.35266946263E+02 -0.35963143990E+02 -0.10548463067E+03  0.14721950275E+03  0.89495639316E+02 0.  0.
          5    1    3    3  502    0 -0.44431734014E+02  0.28626874705E+02 -0.33925269857E+02  0.62945002008E+02  0.41800000000E+01 0.  1.
         -5    1    3    3    0  502  0.79698680277E+02  0.73362692853E+01 -0.22517854769E+02  0.83247982969E+02  0.41800000000E+01 0.  1.
        -11    1    4    4    0    0 -0.46103526071E+02 -0.57054082459E+01 -0.10528592820E+03  0.11507916179E+03  0.00000000000E+00 0. -1.
         11    1    4    4    0    0  0.10836579808E+02 -0.30257735744E+02 -0.19870246563E+00  0.32140340959E+02  0.00000000000E+00 0.  1.
</event>
<event>
 8    1  0.7114239E-009  0.2939660E+03  0.7561462E-02  0.1088296E+00
         -2   -1    0    0    0  501 -0.00000000000E+00  0.00000000000E+00  0.39879026445E+02  0.39879026445E+02  0.00000000000E+00 0. -1.
          2   -1    0    0  501    0  0.00000000000E+00 -0.00000000000E+00 -0.22956772279E+04  0.22956772279E+04  0.00000000000E+00 0.  1.
         25    2    1    2    0    0 -0.21391551224E+03 -0.18412129630E+03 -0.12221121616E+04  0.12605022966E+04  0.12508959291E+03 0.  0.
         23    2    1    2    0    0  0.21391551224E+03  0.18412129630E+03 -0.10336860399E+04  0.10750539577E+04  0.87026919946E+02 0.  0.
          5    1    3    3  502    0 -0.14524827366E+03 -0.18580633261E+03 -0.85209471557E+03  0.88414022131E+03  0.41800000000E+01 0.  1.
         -5    1    3    3    0  502 -0.68667238580E+02  0.16850363144E+01 -0.37001744598E+03  0.37636207531E+03  0.41800000000E+01 0.  1.
        -11    1    4    4    0    0  0.10365535823E+03  0.10486777642E+03 -0.68867087641E+03  0.70427924848E+03  0.00000000000E+00 0.  1.
         11    1    4    4    0    0  0.11026015401E+03  0.79253519876E+02 -0.34501516351E+03  0.37077470926E+03  0.00000000000E+00 0. -1.
</event>
<event>
 8    1  0.7114239E-009  0.1827152E+03  0.7561462E-02  0.1165201E+00
          1   -1    0    0  501    0  0.00000000000E+00  0.00000000000E+00  0.58903441719E+03  0.58903441719E+03  0.00000000000E+00 0. -1.
         -1   -1    0    0    0  501 -0.00000000000E+00 -0.00000000000E+00 -0.59696208732E+02  0.59696208732E+02  0.00000000000E+00 0.  1.
         25    2    1    2    0    0  0.13989047940E+03 -0.61429037238E+02  0.27898410191E+03  0.34179277424E+03  0.12508916245E+03 0.  0.
         23    2    1    2    0    0 -0.13989047940E+03  0.61429037238E+02  0.25035410654E+03  0.30693785168E+03  0.90503001527E+02 0.  0.
          5    1    3    3  502    0  0.50223228359E+02 -0.83222460273E+02  0.95303608432E+02  0.13619324778E+03  0.41800000000E+01 0. -1.
         -5    1    3    3    0  502  0.89667251041E+02  0.21793423035E+02  0.18368049348E+03  0.20559952646E+03  0.41800000000E+01 0. -1.
        -11    1    4    4    0    0 -0.51252045621E+02  0.69952192366E+02  0.10168873038E+03  0.13364385239E+03  0.00000000000E+00 0.  1.
         11    1    4    4    0    0 -0.88638433778E+02 -0.85231551285E+01  0.14866537617E+03  0.17329399928E+03  0.00000000000E+00 0. -1.
</event>
<event>
 8    1  0.7114239E-009  0.1223064E+03  0.7561462E-02  0.1239340E+00
          2   -1    0    0  501    0  0.00000000000E+00  0.00000000000E+00  0.15418046409E+04  0.15418046409E+04  0.00000000000E+00 0. -1.
         -2   -1    0    0    0  501 -0.00000000000E+00 -0.00000000000E+00 -0.15854805623E+02  0.15854805623E+02  0.00000000000E+00 0.  1.
         25    2    1    2    0    0  0.37417053424E+02 -0.40332456227E+02  0.12742657808E+04  0.12815732456E+04  0.12509980280E+03 0.  0.
         23    2    1    2    0    0 -0.37417053424E+02  0.40332456227E+02  0.25168405448E+03  0.27608620098E+03  0.99257161867E+02 0.  0.
          5    1    3    3  502    0  0.66095986665E+01 -0.82619791652E+02  0.69593958973E+03  0.70087024599E+03  0.41800000000E+01 0.  1.
         -5    1    3    3    0  502  0.30807454757E+02  0.42287335424E+02  0.57832619109E+03  0.58070299956E+03  0.41800000000E+01 0.  1.
        -11    1    4    4    0    0  0.18785842297E+02  0.48808693659E+02  0.15881097448E+03  0.16720084349E+03  0.00000000000E+00 0. -1.
         11    1    4    4    0    0 -0.56202895721E+02 -0.84762374315E+01  0.92873079995E+02  0.10888535749E+03  0.00000000000E+00 0.  1.
</event>
<event>
 8    1  0.7114239E-009  0.1151750E+03  0.7561462E-02  0.1251276E+00
          2   -1    0    0  501    0  0.00000000000E+00  0.00000000000E+00  0.38589660586E+03  0.38589660586E+03  0.00000000000E+00 0. -1.
         -2   -1    0    0    0  501 -0.00000000000E+00 -0.00000000000E+00 -0.49779343228E+02  0.49779343228E+02  0.00000000000E+00 0.  1.
         25    2    1    2    0    0  0.71089143016E+02  0.75901416962E+01  0.10952761802E+03  0.18098724526E+03  0.12509519309E+03 0.  0.
         23    2    1    2    0    0 -0.71089143016E+02 -0.75901416962E+01  0.22658964461E+03  0.25468870383E+03  0.91718004259E+02 0.  0.
          5    1    3    3  502    0 -0.23546055689E+02  0.67259519253E+01 -0.11432760476E+02  0.27346582600E+02  0.41800000000E+01 0.  1.
         -5    1    3    3    0  502  0.94635198705E+02  0.86418977094E+00  0.12096037850E+03  0.15364066266E+03  0.41800000000E+01 0.  1.
        -11    1    4    4    0    0 -0.70092533672E+02 -0.38419327172E+02  0.12372251309E+03  0.14729653160E+03  0.00000000000E+00 0.  1.
         11    1    4    4    0    0 -0.99660934383E+00  0.30829185475E+02  0.10286713152E+03  0.10739217222E+03  0.00000000000E+00 0. -1.
</event>
<event>
 8    1  0.7114239E-009  0.7226667E+02  0.7561462E-02  0.1352550E+00
          1   -1    0    0  501    0  0.00000000000E+00  0.00000000000E+00  0.54960253772E+03  0.54960253772E+03  0.00000000000E+00 0. -1.
         -1   -1    0    0    0  501 -0.00000000000E+00 -0.00000000000E+00 -0.28426118758E+02  0.28426118758E+02  0.00000000000E+00 0.  1.
         25    2    1    2    0    0  0.18683286615E+02 -0.19375623597E+02  0.16070054277E+03  0.20541841553E+03  0.12509029140E+03 0.  0.
         23    2    1    2    0    0 -0.18683286615E+02  0.19375623597E+02  0.36047587619E+03  0.37261024095E+03  0.90393884513E+02 0.  0.
          5    1    3    3  502    0 -0.18765796541E+01  0.14470747166E+02 -0.17301721879E+02  0.23016212867E+02  0.41800000000E+01 0. -1.
         -5    1    3    3    0  502  0.20559866269E+02 -0.33846370763E+02  0.17800226465E+03  0.18240220266E+03  0.41800000000E+01 0. -1.
        -11    1    4    4    0    0  0.31463352510E+02 -0.79116924053E+01  0.78984140016E+02  0.85387538914E+02  0.00000000000E+00 0. -1.
         11    1    4    4    0    0 -0.50146639125E+02  0.27287316002E+02  0.28149173617E+03  0.28722270204E+03  0.00000000000E+00 0.  1.
</event>
<event>
 8    1  0.7114239E-009  0.1552327E+03  0.7561462E-02  0.1194187E+00
          2   -1    0    0  501    0  0.00000000000E+00  0.00000000000E+00  0.14475451291E+03  0.14475451291E+03  0.00000000000E+00 0. -1.
         -2   -1    0    0    0  501 -0.00000000000E+00 -0.00000000000E+00 -0.22705674406E+03  0.22705674406E+03  0.00000000000E+00 0.  1.
         25    2    1    2    0    0 -0.81082024384E+02  0.11160642128E+03  0.35560528274E+01  0.18625339208E+03  0.12508953833E+03 0.  0.
         23    2    1    2    0    0  0.81082024384E+02 -0.11160642128E+03 -0.85858283974E+02  0.18555786490E+03  0.89609086312E+02 0.  0.
          5    1    3    3  502    0 -0.64971687734E+02  0.47143533099E+02 -0.55156428043E+02  0.97486085543E+02  0.41800000000E+01 0.  1.
         -5    1    3    3    0  502 -0.16110336649E+02  0.64462888178E+02  0.58712480870E+02  0.88767306533E+02  0.41800000000E+01 0.  1.
        -11    1    4    4    0    0 -0.18305531637E+02 -0.81273122058E+01 -0.17635850978E+02  0.26686493436E+02  0.00000000000E+00 0. -1.
         11    1    4    4    0    0  0.99387556020E+02 -0.10347910907E+03 -0.68222432996E+02  0.15887137146E+03  0.00000000000E+00 0.  1.
</event>
<event>
 8    1  0.7114239E-009  0.2506543E+03  0.7561462E-02  0.1112892E+00
          2   -1    0    0  501    0  0.00000000000E+00  0.00000000000E+00  0.48731274316E+03  0.48731274316E+03  0.00000000000E+00 0.  1.
         -2   -1    0    0    0  501 -0.00000000000E+00 -0.00000000000E+00 -0.15464143516E+03  0.15464143516E+03  0.00000000000E+00 0. -1.
         25    2    1    2    0    0  0.95847153766E+02 -0.21584663222E+03  0.27032725413E+03  0.38013271341E+03  0.12509040712E+03 0.  0.
         23    2    1    2    0    0 -0.95847153766E+02  0.21584663222E+03  0.62344053865E+02  0.26182146491E+03  0.94272227664E+02 0.  0.
          5    1    3    3  502    0 -0.14441317138E+02 -0.61709497409E+02  0.12861759022E+03  0.14344535763E+03  0.41800000000E+01 0. -1.
         -5    1    3    3    0  502  0.11028847090E+03 -0.15413713481E+03  0.14170966391E+03  0.23668735578E+03  0.41800000000E+01 0. -1.
        -11    1    4    4    0    0 -0.54886758702E+02  0.40661032508E+02 -0.77359461848E+01  0.68743877609E+02  0.00000000000E+00 0. -1.
         11    1    4    4    0    0 -0.40960395065E+02  0.17518559971E+03  0.70080000050E+02  0.19307758730E+03  0.00000000000E+00 0.  1.
</event>
<event>
 8    1  0.7114239E-009  0.1210731E+03  0.7561462E-02  0.1241337E+00
         -1   -1    0    0    0  501 -0.00000000000E+00  0.00000000000E+00  0.21910076879E+02  0.21910076879E+02  0.00000000000E+00 0.  1.
          1   -1    0    0  501    0  0.00000000000E+00 -0.00000000000E+00 -0.98538522321E+03  0.98538522321E+03  0.00000000000E+00 0. -1.
         25    2    1    2    0    0  0.44078913207E+02 -0.58885705820E+02 -0.75480233599E+03  0.76862400575E+03  0.12508324766E+03 0.  0.
         23    2    1    2    0    0 -0.44078913207E+02  0.58885705820E+02 -0.20867281033E+03  0.23867129434E+03  0.89493955272E+02 0.  0.
          5    1    3    3  502    0  0.12866403158E+02  0.38147454415E+02 -0.15442785348E+03  0.15964400064E+03  0.41800000000E+01 0. -1.
         -5    1    3    3    0  502  0.31212510049E+02 -0.97033160235E+02 -0.60037448251E+03  0.60898000511E+03  0.41800000000E+01 0. -1.
        -11    1    4    4    0    0  0.16742250180E+02  0.24835877211E+02 -0.16387497201E+02  0.34141965415E+02  0.00000000000E+00 0.  1.
         11    1    4    4    0    0 -0.60821163386E+02  0.34049828609E+02 -0.19228531313E+03  0.20452932893E+03  0.00000000000E+00 0. -1.
</event>
<event>
 8    1  0.7114239E-009  0.7325437E+02  0.7561462E-02  0.1349363E+00
         -3   -1    0    0    0  501 -0.00000000000E+00  0.00000000000E+00  0.16065650755E+02  0.16065650755E+02  0.00000000000E+00 0.  1.
          3   -1    0    0  501    0  0.00000000000E+00 -0.00000000000E+00 -0.98447547672E+03  0.98447547672E+03  0.00000000000E+00 0. -1.
         25    2    1    2    0    0 -0.62239551669E+01 -0.42203381816E+02 -0.71182344784E+03  0.72398911890E+03  0.12509100822E+03 0.  0.
         23    2    1    2    0    0  0.62239551669E+01  0.42203381816E+02 -0.25658637812E+03  0.27655200857E+03  0.93939240750E+02 0.  0.
          5    1    3    3  502    0  0.66687165966E+00  0.11754280657E+02 -0.27146524105E+01  0.12784739703E+02  0.41800000000E+01 0.  1.
         -5    1    3    3    0  502 -0.68908268266E+01 -0.53957662473E+02 -0.70910879543E+03  0.71120437920E+03  0.41800000000E+01 0.  1.
        -11    1    4    4    0    0 -0.11403360801E+02  0.55953282597E+02 -0.24461680076E+03  0.25119352238E+03  0.00000000000E+00 0. -1.
         11    1    4    4    0    0  0.17627315968E+02 -0.13749900781E+02 -0.11969577360E+02  0.25358486191E+02  0.00000000000E+00 0.  1.
</event>
<event>
 8    1  0.7114239E-009  0.9418534E+02  0.7561462E-02  0.1293022E+00
          2   -1    0    0  501    0  0.00000000000E+00  0.00000000000E+00  0.90673778724E+03  0.90673778724E+03  0.00000000000E+00 0. -1.
         -2   -1    0    0    0  501 -0.00000000000E+00 -0.00000000000E+00 -0.15935581226E+02  0.15935581226E+02  0.00000000000E+00 0.  1.
         25    2    1    2    0    0 -0.16826697451E+02  0.24415428800E+02  0.66512740351E+03  0.67743657126E+03  0.12508634724E+03 0.  0.
         23    2    1    2    0    0  0.16826697451E+02 -0.24415428800E+02  0.22567480251E+03  0.24523679721E+03  0.91283729713E+02 0.  0.
          5    1    3    3  502    0  0.50668138898E+02 -0.11269728539E+02  0.26416847394E+03  0.26925215339E+03  0.41800000000E+01 0. -1.
         -5    1    3    3    0  502 -0.67494836349E+02  0.35685157339E+02  0.40095892957E+03  0.40818441787E+03  0.41800000000E+01 0. -1.
        -11    1    4    4    0    0 -0.10946285952E+02  0.10535173627E+02  0.35585158716E-02  0.15192467612E+02  0.00000000000E+00 0.  1.
         11    1    4    4    0    0  0.27772983403E+02 -0.34950602426E+02  0.22567124399E+03  0.23004432960E+03  0.00000000000E+00 0. -1.
</event>
<event>
 8    1  0.7114239E-009  0.9864792E+02  0.7561462E-02  0.1283165E+00
          1   -1    0    0  501    0  0.00000000000E+00  0.00000000000E+00  0.63774498850E+02  0.63774498850E+02  0.00000000000E+00 0. -1.
         -1   -1    0    0    0  501 -0.00000000000E+00 -0.00000000000E+00 -0.28022155918E+03  0.28022155918E+03  0.00000000000E+00 0.  1.
         25    2    1    2    0    0  0.10151543059E+02 -0.13796584553E+02 -0.21501981467E+02  0.12807596985E+03  0.12509084409E+03 0.  0.
         23    2    1    2    0    0 -0.10151543059E+02  0.13796584553E+02 -0.19494507886E+03  0.21592008818E+03  0.91238704146E+02 0.  0.
          5    1    3    3  502    0  0.54257699109E+02 -0.25201959405E+02  0.23021945011E+02  0.64237987379E+02  0.41800000000E+01 0. -1.
         -5    1    3    3    0  502 -0.44106156050E+02  0.11405374852E+02 -0.44523926478E+02  0.63837982471E+02  0.41800000000E+01 0. -1.
        -11    1    4    4    0    0  0.26971180108E+02 -0.25782846823E+02 -0.97315433525E+02  0.10422328602E+03  0.00000000000E+00 0. -1.
         11    1    4    4    0    0 -0.37122723167E+02  0.39579431377E+02 -0.97629645336E+02  0.11169680216E+03  0.00000000000E+00 0.  1.
</event>
<event>
 8    1  0.7114239E-009  0.1545377E+03  0.7561462E-02  0.1195005E+00
         -2   -1    0    0    0  501 -0.00000000000E+00  0.00000000000E+00  0.54130958534E+02  0.54130958534E+02  0.00000000000E+00 0.  1.
          2   -1    0    0  501    0  0.00000000000E+00 -0.00000000000E+00 -0.57479957711E+03  0.57479957711E+03  0.00000000000E+00 0. -1.
         25    2    1    2    0    0  0.11876987076E+03  0.41585781226E+02 -0.37910887138E+03  0.41857704410E+03  0.12509015185E+03 0.  0.
         23    2    1    2    0    0 -0.11876987076E+03 -0.41585781226E+02 -0.14155974720E+03  0.21035349154E+03  0.91508305500E+02 0.  0.
          5    1    3    3  502    0  0.49059329640E+02  0.64202150523E+02 -0.29973304434E+03  0.31046111548E+03  0.41800000000E+01 0.  1.
         -5    1    3    3    0  502  0.69710541123E+02 -0.22616369297E+02 -0.79375827040E+02  0.10811592862E+03  0.41800000000E+01 0.  1.
        -11    1    4    4    0    0  0.15135820797E+02 -0.33458610901E+01 -0.21374401796E+02  0.26403653341E+02  0.00000000000E+00 0. -1.
         11    1    4    4    0    0 -0.13390569156E+03 -0.38239920136E+02 -0.12018534540E+03  0.18394983820E+03  0.00000000000E+00 0.  1.
</event>
<event>
 8    1  0.7114239E-009  0.1060616E+03  0.7561462E-02  0.1268042E+00
          1   -1    0    0  501    0  0.00000000000E+00  0.00000000000E+00  0.29462165782E+03  0.29462165782E+03  0.00000000000E+00 0. -1.
         -1   -1    0    0    0  501 -0.00000000000E+00 -0.00000000000E+00 -0.57262608808E+02  0.57262608808E+02  0.00000000000E+00 0.  1.
         25    2    1    2    0    0 -0.10206880962E+02  0.70855281482E+02  0.13104484351E+03  0.19479761824E+03  0.12509480296E+03 0.  0.
         23    2    1    2    0    0  0.10206880962E+02 -0.70855281482E+02  0.10631420550E+03  0.15708664839E+03  0.90823199007E+02 0.  0.
          5    1    3    3  502    0  0.35333057143E+02 -0.78876812935E+01  0.15299098337E+01  0.36475381662E+02  0.41800000000E+01 0.  1.
         -5    1    3    3    0  502 -0.45539938105E+02  0.78742962775E+02  0.12951493367E+03  0.15832223657E+03  0.41800000000E+01 0.  1.
        -11    1    4    4    0    0 -0.18023203220E+02 -0.26823248131E+02 -0.62947223795E+01  0.32923335560E+02  0.00000000000E+00 0.  1.
         11    1    4    4    0    0  0.28230084182E+02 -0.44032033351E+02  0.11260892788E+03  0.12416331283E+03  0.00000000000E+00 0. -1.
</event>
<event>
 8    1  0.7114239E-009  0.1122951E+03  0.7561462E-02  0.1256378E+00
          4   -1    0    0  501    0  0.00000000000E+00  0.00000000000E+00  0.22900456315E+03  0.22900456315E+03  0.00000000000E+00 0. -1.
         -4   -1    0    0    0  501 -0.00000000000E+00 -0.00000000000E+00 -0.68126532595E+02  0.68126532595E+02  0.00000000000E+00 0.  1.
         25    2    1    2    0    0 -0.23928054789E+02  0.44182778318E+02  0.48523418379E+02  0.14327189247E+03  0.12509054055E+03 0.  0.
         23    2    1    2    0    0  0.23928054789E+02 -0.44182778318E+02  0.11235461217E+03  0.15385920328E+03  0.92327817313E+02 0.  0.
          5    1    3    3  502    0  0.17606182753E+02 -0.32015064195E+02 -0.10490042377E+02  0.38242063172E+02  0.41800000000E+01 0. -1.
         -5    1    3    3    0  502 -0.41534237542E+02  0.76197842513E+02  0.59013460756E+02  0.10502982930E+03  0.41800000000E+01 0. -1.
        -11    1    4    4    0    0  0.42151120702E+02  0.10376608641E+02  0.70226306986E+02  0.82559827860E+02  0.00000000000E+00 0. -1.
         11    1    4    4    0    0 -0.18223065913E+02 -0.54559386959E+02  0.42128305189E+02  0.71299375416E+02  0.00000000000E+00 0.  1.
</event>
<event>
 8    1  0.7114239E-009  0.1373542E+03  0.7561462E-02  0.1216934E+00
         -2   -1    0    0    0  501 -0.00000000000E+00  0.00000000000E+00  0.45347354448E+02  0.45347354448E+02  0.00000000000E+00 0.  1.
          2   -1    0    0  501    0  0.00000000000E+00 -0.00000000000E+00 -0.61808262994E+03  0.61808262994E+03  0.00000000000E+00 0. -1.
         25    2    1    2    0    0  0.28897721240E+02 -0.89391672709E+02 -0.13582458548E+03  0.20717785996E+03  0.12509355775E+03 0.  0.
         23    2    1    2    0    0 -0.28897721240E+02  0.89391672709E+02 -0.43691069001E+03  0.45625212443E+03  0.91918989130E+02 0.  0.
          5    1    3    3  502    0 -0.40229015053E+02  0.21662273199E+01 -0.46881479380E+02  0.61954916688E+02  0.41800000000E+01 0.  1.
         -5    1    3    3    0  502  0.69126736292E+02 -0.91557900029E+02 -0.88943106102E+02  0.14522294327E+03  0.41800000000E+01 0.  1.
        -11    1    4    4    0    0 -0.50181826062E+02  0.35516755441E+02 -0.31912413519E+03  0.32499210644E+03  0.00000000000E+00 0. -1.
         11    1    4    4    0    0  0.21284104822E+02  0.53874917268E+02 -0.11778655482E+03  0.13126001799E+03  0.00000000000E+00 0.  1.
</event>
<event>
 8    1  0.7114239E-009  0.1445133E+03  0.7561462E-02  0.1207382E+00
          2   -1    0    0  501    0  0.00000000000E+00  0.00000000000E+00  0.20621347041E+02  0.20621347041E+02  0.00000000000E+00 0. -1.
         -2   -1    0    0    0  501 -0.00000000000E+00 -0.00000000000E+00 -0.10887224901E+04  0.10887224901E+04  0.00000000000E+00 0.  1.
         25    2    1    2    0    0  0.41562342629E+02 -0.93815176773E+02 -0.57860687286E+03  0.60080140865E+03  0.12509078144E+03 0.  0.
         23    2    1    2    0    0 -0.41562342629E+02  0.93815176773E+02 -0.48949427023E+03  0.50854242851E+03  0.92098020045E+02 0.  0.
          5    1    3    3  502    0  0.79927600552E+02 -0.73670956822E+02 -0.49183928563E+03  0.50372530858E+03  0.41800000000E+01 0.  1.
         -5    1    3    3    0  502 -0.38365257922E+02 -0.20144219951E+02 -0.86767587224E+02  0.97076100074E+02  0.41800000000E+01 0.  1.
        -11    1    4    4    0    0  0.28754344042E+02  0.32742942451E+02 -0.12671005358E+03  0.13399384411E+03  0.00000000000E+00 0.  1.
         11    1    4    4    0    0 -0.70316686671E+02  0.61072234322E+02 -0.36278421665E+03  0.37454858441E+03  0.00000000000E+00 0. -1.
</event>
<event>
 8    1  0.7114239E-009  0.9508888E+02  0.7561462E-02  0.1290976E+00
         -2   -1    0    0    0  501 -0.00000000000E+00  0.00000000000E+00  0.54970389456E+02  0.54970389456E+02  0.00000000000E+00 0.  1.
          2   -1    0    0  501    0  0.00000000000E+00 -0.00000000000E+00 -0.22793230382E+03  0.22793230382E+03  0.00000000000E+00 0. -1.
         25    2    1    2    0    0  0.58927739435E+01  0.31045069790E+02 -0.96478098021E+02  0.16109286943E+03  0.12507744817E+03 0.  0.
         23    2    1    2    0    0 -0.58927739435E+01 -0.31045069790E+02 -0.76483816340E+02  0.12180982384E+03  0.89383096164E+02 0.  0.
          5    1    3    3  502    0  0.17116872002E+02 -0.32442139570E+02 -0.88629036093E+02  0.96010719015E+02  0.41800000000E+01 0.  1.
         -5    1    3    3    0  502 -0.11224098058E+02  0.63487209359E+02 -0.78490619279E+01  0.65082150415E+02  0.41800000000E+01 0.  1.
        -11    1    4    4    0    0 -0.79135657590E+01 -0.59551251853E+02 -0.70478850349E+02  0.92608015133E+02  0.00000000000E+00 0. -1.
         11    1    4    4    0    0  0.20207918155E+01  0.28506182064E+02 -0.60049659908E+01  0.29201808710E+02  0.00000000000E+00 0.  1.
</event>
<event>
 8    1  0.7114239E-009  0.1325511E+03  0.7561462E-02  0.1223719E+00
         -1   -1    0    0    0  501 -0.00000000000E+00  0.00000000000E+00  0.88689789055E+02  0.88689789055E+02  0.00000000000E+00 0.  1.
          1   -1    0    0  501    0  0.00000000000E+00 -0.00000000000E+00 -0.26423441567E+03  0.26423441567E+03  0.00000000000E+00 0. -1.
         25    2    1    2    0    0  0.10088481777E+03 -0.20931581837E+02 -0.56035399255E+02  0.17147415499E+03  0.12509013663E+03 0.  0.
         23    2    1    2    0    0 -0.10088481777E+03  0.20931581837E+02 -0.11950922736E+03  0.18145004974E+03  0.89586759907E+02 0.  0.
          5    1    3    3  502    0  0.18312084859E+02 -0.54305643859E+02  0.12755452261E+02  0.58860932452E+02  0.41800000000E+01 0. -1.
         -5    1    3    3    0  502  0.82572732915E+02  0.33374062022E+02 -0.68790851516E+02  0.11261322253E+03  0.41800000000E+01 0. -1.
        -11    1    4    4    0    0 -0.70259451407E+02  0.41488635463E+02 -0.34132190797E+02  0.88446050411E+02  0.00000000000E+00 0.  1.
         11    1    4    4    0    0 -0.30625366366E+02 -0.20557053626E+02 -0.85377036560E+02  0.93003999326E+02  0.00000000000E+00 0. -1.
</event>
<event>
 8    1  0.7114239E-009  0.5137738E+02  0.7561462E-02  0.1438051E+00
         -1   -1    0    0    0  501 -0.00000000000E+00  0.00000000000E+00  0.45908873147E+02  0.45908873147E+02  0.00000000000E+00 0.  1.
          1   -1    0    0  501    0  0.00000000000E+00 -0.00000000000E+00 -0.28459901148E+03  0.28459901148E+03  0.00000000000E+00 0. -1.
         25    2    1    2    0    0 -0.23793871796E+01  0.42064551177E+00 -0.10398305413E+03  0.16268077128E+03  0.12508684732E+03 0.  0.
         23    2    1    2    0    0  0.23793871796E+01 -0.42064551177E+00 -0.13470708420E+03  0.16782711334E+03  0.10007049023E+03 0.  0.
          5    1    3    3  502    0  0.64108433199E+01  0.16999622169E+01 -0.13239173633E+03  0.13262365186E+03  0.41800000000E+01 0. -1.
         -5    1    3    3    0  502 -0.87902304995E+01 -0.12793167051E+01  0.28408682200E+02  0.30057119420E+02  0.41800000000E+01 0. -1.
        -11    1    4    4    0    0  0.40041881206E+02  0.17123467967E+02 -0.24320736447E+02  0.49880493452E+02  0.00000000000E+00 0.  1.
         11    1    4    4    0    0 -0.37662494026E+02 -0.17544113478E+02 -0.11038634775E+03  0.11794661989E+03  0.00000000000E+00 0. -1.
</event>
<event>
 8    1  0.7114239E-009  0.1011350E+03  0.7561462E-02  0.1277927E+00
          1   -1    0    0  501    0  0.00000000000E+00  0.00000000000E+00  0.58480827332E+03  0.58480827332E+03  0.00000000000E+00 0. -1.
         -1   -1    0    0    0  501 -0.00000000000E+00 -0.00000000000E+00 -0.26338983438E+02  0.26338983438E+02  0.00000000000E+00 0.  1.
         25    2    1    2    0    0  0.27986551375E+02 -0.50268755700E+02  0.37831149477E+03  0.40258820158E+03  0.12508988015E+03 0.  0.
         23    2    1    2    0    0 -0.27986551375E+02  0.50268755700E+02  0.18015779511E+03  0.20855905518E+03  0.87919585426E+02 0.  0.
          5    1    3    3  502    0  0.19295340501E+02 -0.81715589260E+02  0.34748127831E+03  0.35750588648E+03  0.41800000000E+01 0.  1.
         -5    1    3    3    0  502  0.86912108748E+01  0.31446833560E+02  0.30830216465E+02  0.45082315099E+02  0.41800000000E+01 0.  1.
        -11    1    4    4    0    0  0.17153035405E+02  0.32598105424E+02  0.21477805866E+02  0.42639878584E+02  0.00000000000E+00 0.  1.
         11    1    4    4    0    0 -0.45139586781E+02  0.17670650276E+02  0.15867998925E+03  0.16591917660E+03  0.00000000000E+00 0. -1.
</event>
<event>
 8    1  0.7114239E-009  0.1005172E+03  0.7561462E-02  0.1279212E+00
          1   -1    0    0  501    0  0.00000000000E+00  0.00000000000E+00  0.45018480382E+02  0.45018480382E+02  0.00000000000E+00 0. -1.
         -1   -1    0    0    0  501 -0.00000000000E+00 -0.00000000000E+00 -0.49704722506E+03  0.49704722506E+03  0.00000000000E+00 0.  1.
         25    2    1    2    0    0  0.19098518508E+02  0.57209538775E+02 -0.39366060583E+03  0.41743892837E+03  0.12509556988E+03 0.  0.
         23    2    1    2    0    0 -0.19098518508E+02 -0.57209538775E+02 -0.58368138851E+02  0.12462677707E+03  0.92126593304E+02 0.  0.
          5    1    3    3  502    0  0.57813461609E+02 -0.30674403052E+01 -0.10483233709E+03  0.11982944894E+03  0.41800000000E+01 0.  1.
         -5    1    3    3    0  502 -0.38714943101E+02  0.60276979080E+02 -0.28882826874E+03  0.29760947943E+03  0.41800000000E+01 0.  1.
        -11    1    4    4    0    0  0.10702582946E+02 -0.25794230235E+02  0.20507073535E+02  0.34647188343E+02  0.00000000000E+00 0. -1.
         11    1    4    4    0    0 -0.29801101454E+02 -0.31415308540E+02 -0.78875212386E+02  0.89979588727E+02  0.00000000000E+00 0.  1.
</event>
<event>
 8    1  0.7114239E-009  0.1104113E+03  0.7561462E-02  0.1259810E+00
         -3   -1    0    0    0  501 -0.00000000000E+00  0.00000000000E+00  0.29215852170E+02  0.29215852170E+02  0.00000000000E+00 0.  1.
          3   -1    0    0  501    0  0.00000000000E+00 -0.00000000000E+00 -0.60136302482E+03  0.60136302482E+03  0.00000000000E+00 0. -1.
         25    2    1    2    0    0 -0.13983902374E+02 -0.20955741301E+02 -0.48335004346E+03  0.49990929324E+03  0.12508934543E+03 0.  0.
         23    2    1    2    0    0  0.13983902374E+02  0.20955741301E+02 -0.88797129197E+02  0.13066958375E+03  0.92492796180E+02 0.  0.
          5    1    3    3  502    0 -0.16229569605E+02  0.51357189773E+02 -0.23959643589E+03  0.24561124641E+03  0.41800000000E+01 0. -1.
         -5    1    3    3    0  502  0.22456672319E+01 -0.72312931074E+02 -0.24375360757E+03  0.25429804683E+03  0.41800000000E+01 0. -1.
        -11    1    4    4    0    0 -0.34595355458E+02  0.28935865286E+02 -0.54135452646E+02  0.70461125114E+02  0.00000000000E+00 0.  1.
         11    1    4    4    0    0  0.48579257831E+02 -0.79801239853E+01 -0.34661676550E+02  0.60208458638E+02  0.00000000000E+00 0. -1.
</event>
<event>
 8    1  0.7114239E-009  0.1046634E+03  0.7561462E-02  0.1270784E+00
         -2   -1    0    0    0  501 -0.00000000000E+00  0.00000000000E+00  0.45318650235E+03  0.45318650235E+03  0.00000000000E+00 0. -1.
          2   -1    0    0  501    0  0.00000000000E+00 -0.00000000000E+00 -0.36241792555E+02  0.36241792555E+02  0.00000000000E+00 0.  1.
         25    2    1    2    0    0 -0.63680899364E+02 -0.19953273999E+02  0.25934175503E+03  0.29556571284E+03  0.12509018595E+03 0.  0.
         23    2    1    2    0    0  0.63680899364E+02  0.19953273999E+02  0.15760295477E+03  0.19386258206E+03  0.91052837871E+02 0.  0.
          5    1    3    3  502    0 -0.74282334409E+02  0.36528782386E+02  0.13311841502E+03  0.15681263331E+03  0.41800000000E+01 0.  1.
         -5    1    3    3    0  502  0.10601435044E+02 -0.56482056385E+02  0.12622334000E+03  0.13875307953E+03  0.41800000000E+01 0.  1.
        -11    1    4    4    0    0  0.89158691961E+01  0.95748161586E+01 -0.10489754105E+02  0.16769161254E+02  0.00000000000E+00 0.  1.
         11    1    4    4    0    0  0.54765030168E+02  0.10378457840E+02  0.16809270887E+03  0.17709342081E+03  0.00000000000E+00 0. -1.
</event>
<event>
 8    1  0.7114239E-009  0.1775965E+03  0.7561462E-02  0.1170150E+00
          2   -1    0    0  501    0  0.00000000000E+00  0.00000000000E+00  0.42703250721E+03  0.42703250721E+03  0.00000000000E+00 0.  1.
         -2   -1    0    0    0  501 -0.00000000000E+00 -0.00000000000E+00 -0.97522597088E+02  0.97522597088E+02  0.00000000000E+00 0. -1.
         25    2    1    2    0    0 -0.76913690395E+02  0.13463388099E+03  0.74421434758E+02  0.21266863594E+03  0.12508957223E+03 0.  0.
         23    2    1    2    0    0  0.76913690395E+02 -0.13463388099E+03  0.25508847536E+03  0.31188646836E+03  0.90338481300E+02 0.  0.
          5    1    3    3  502    0 -0.18897913552E+02  0.11386613781E+03  0.92874376225E+02  0.14820847019E+03  0.41800000000E+01 0. -1.
         -5    1    3    3    0  502 -0.58015776842E+02  0.20767743176E+02 -0.18452941467E+02  0.64460165746E+02  0.41800000000E+01 0. -1.
        -11    1    4    4    0    0  0.92125479423E+02 -0.82646567077E+02  0.19526396420E+03  0.23118298969E+03  0.00000000000E+00 0.  1.
         11    1    4    4    0    0 -0.15211789028E+02 -0.51987313911E+02  0.59824511164E+02  0.80703478668E+02  0.00000000000E+00 0. -1.
</event>
<event>
 8    1  0.7114239E-009  0.1375091E+03  0.7561462E-02  0.1216721E+00
         -3   -1    0    0    0  501 -0.00000000000E+00  0.00000000000E+00  0.12197593191E+03  0.12197593191E+03  0.00000000000E+00 0.  1.
          3   -1    0    0  501    0  0.00000000000E+00 -0.00000000000E+00 -0.24791233905E+03  0.24791233905E+03  0.00000000000E+00 0. -1.
         25    2    1    2    0    0 -0.12380485475E+03 -0.93294373176E+01 -0.79511148505E+01  0.17642528503E+03  0.12509188826E+03 0.  0.
         23    2    1    2    0    0  0.12380485475E+03  0.93294373176E+01 -0.11798529229E+03  0.19346298593E+03  0.89959531274E+02 0.  0.
          5    1    3    3  502    0  0.64495089995E+01  0.14332809501E+01  0.37255151546E+02  0.38066641267E+02  0.41800000000E+01 0.  1.
         -5    1    3    3    0  502 -0.13025436375E+03 -0.10762718268E+02 -0.45206266397E+02  0.13835864376E+03  0.41800000000E+01 0.  1.
        -11    1    4    4    0    0 -0.12495425803E+01  0.11296209928E+02  0.95432627593E+01  0.14840471000E+02  0.00000000000E+00 0.  1.
         11    1    4    4    0    0  0.12505439733E+03 -0.19667726103E+01 -0.12752855505E+03  0.17862251493E+03  0.00000000000E+00 0. -1.
</event>
<event>
 8    1  0.7114239E-009  0.9000765E+02  0.7561462E-02  0.1302833E+00
         -1   -1    0    0    0  501 -0.00000000000E+00  0.00000000000E+00  0.21926658728E+02  0.21926658728E+02  0.00000000000E+00 0.  1.
          1   -1    0    0  501    0  0.00000000000E+00 -0.00000000000E+00 -0.78749381599E+03  0.78749381599E+03  0.00000000000E+00 0. -1.
         25    2    1    2    0    0 -0.89849892611E+01  0.52538149884E+02 -0.57915512327E+03  0.59490267080E+03  0.12509014225E+03 0.  0.
         23    2    1    2    0    0  0.89849892611E+01 -0.52538149884E+02 -0.18641203399E+03  0.21451780392E+03  0.91801168602E+02 0.  0.
          5    1    3    3  502    0 -0.12163605566E+01 -0.20953222141E+02 -0.15539485529E+02  0.26447401793E+02  0.41800000000E+01 0. -1.
         -5    1    3    3    0  502 -0.77686287045E+01  0.73491372025E+02 -0.56361563774E+03  0.56845526900E+03  0.41800000000E+01 0. -1.
        -11    1    4    4    0    0  0.29386494324E+02 -0.56618187403E+02 -0.18252691790E+03  0.19335268540E+03  0.00000000000E+00 0. -1.
         11    1    4    4    0    0 -0.20401505063E+02  0.40800375189E+01 -0.38851160940E+01  0.21165118522E+02  0.00000000000E+00 0.  1.
</event>
<event>
 8    1  0.7114239E-009  0.9894760E+02  0.7561462E-02  0.1282525E+00
         -2   -1    0    0    0  501 -0.00000000000E+00  0.00000000000E+00  0.87631085953E+02  0.87631085953E+02  0.00000000000E+00 0.  1.
          2   -1    0    0  501    0  0.00000000000E+00 -0.00000000000E+00 -0.22343314867E+03  0.22343314867E+03  0.00000000000E+00 0. -1.
         25    2    1    2    0    0  0.14210411385E+02  0.69123829167E+02 -0.13239050556E+03  0.19533362194E+03  0.12509171974E+03 0.  0.
         23    2    1    2    0    0 -0.14210411385E+02 -0.69123829167E+02 -0.34115571571E+01  0.11573061268E+03  0.91661859240E+02 0.  0.
          5    1    3    3  502    0  0.14193611667E+02 -0.51016227211E+01  0.20225152683E+02  0.25573704612E+02  0.41800000000E+01 0. -1.
         -5    1    3    3    0  502  0.16799717927E-01  0.74225451888E+02 -0.15261565824E+03  0.16975991733E+03  0.41800000000E+01 0. -1.
        -11    1    4    4    0    0 -0.35791810110E+02 -0.32140524604E+00  0.18600675917E+02  0.40337849680E+02  0.00000000000E+00 0.  1.
         11    1    4    4    0    0  0.21581398725E+02 -0.68802423921E+02 -0.22012233074E+02  0.75392763003E+02  0.00000000000E+00 0. -1.
</event>
<event>
 8    1  0.7114239E-009  0.1125197E+03  0.7561462E-02  0.1255974E+00
          2   -1    0    0  501    0  0.00000000000E+00  0.00000000000E+00  0.34745000181E+02  0.34745000181E+02  0.00000000000E+00 0. -1.
         -2   -1    0    0    0  501 -0.00000000000E+00 -0.00000000000E+00 -0.46116198574E+03  0.46116198574E+03  0.00000000000E+00 0.  1.
         25    2    1    2    0    0 -0.64588300246E+02  0.29573384109E+01 -0.24722537598E+03  0.28451458143E+03  0.12509103139E+03 0.  0.
         23    2    1    2    0    0  0.64588300246E+02 -0.29573384109E+01 -0.17919160958E+03  0.21139240449E+03  0.91633625685E+02 0.  0.
          5    1    3    3  502    0 -0.78689503359E+02  0.47923378542E+02 -0.18077898902E+03  0.20294630675E+03  0.41800000000E+01 0. -1.
         -5    1    3    3    0  502  0.14101203113E+02 -0.44966040131E+02 -0.66446386959E+02  0.81568274680E+02  0.41800000000E+01 0. -1.
        -11    1    4    4    0    0  0.33068596682E+02 -0.29483909852E+02 -0.15986003755E+03  0.16588569749E+03  0.00000000000E+00 0.  1.
         11    1    4    4    0    0  0.31519703564E+02  0.26526571442E+02 -0.19331572026E+02  0.45506707002E+02  0.00000000000E+00 0. -1.
</event>
<event>
 8    1  0.7114239E-009  0.1219651E+03  0.7561462E-02  0.1239890E+00
          1   -1    0    0  501    0  0.00000000000E+00  0.00000000000E+00  0.64259936523E+02  0.64259936523E+02  0.00000000000E+00 0. -1.
         -1   -1    0    0    0  501 -0.00000000000E+00 -0.00000000000E+00 -0.26341842017E+03  0.26341842017E+03  0.00000000000E+00 0.  1.
         25    2    1    2    0    0  0.22174897061E+01  0.61659811259E+02 -0.15427543697E+03  0.20797951449E+03  0.12509084063E+03 0.  0.
         23    2    1    2    0    0 -0.22174897061E+01 -0.61659811259E+02 -0.44883046676E+02  0.11969884220E+03  0.92230555460E+02 0.  0.
          5    1    3    3  502    0 -0.59591146587E+02  0.16135661615E+02 -0.58370671480E+02  0.85065104575E+02  0.41800000000E+01 0.  1.
         -5    1    3    3    0  502  0.61808636293E+02  0.45524149644E+02 -0.95904765491E+02  0.12291440992E+03  0.41800000000E+01 0.  1.
        -11    1    4    4    0    0  0.35051117499E+02 -0.23540290525E+01 -0.33862646763E+02  0.48793453829E+02  0.00000000000E+00 0.  1.
         11    1    4    4    0    0 -0.37268607206E+02 -0.59305782206E+02 -0.11020399913E+02  0.70905388373E+02  0.00000000000E+00 0. -1.
</event>
<event>
 8    1  0.7114239E-009  0.1145766E+03  0.7561462E-02  0.1252322E+00
          2   -1    0    0  501    0  0.00000000000E+00  0.00000000000E+00  0.14778132233E+04  0.14778132233E+04  0.00000000000E+00 0.  1.
         -2   -1    0    0    0  501 -0.00000000000E+00 -0.00000000000E+00 -0.14765835272E+02  0.14765835272E+02  0.00000000000E+00 0. -1.
         25    2    1    2    0    0 -0.69506319618E+02  0.22629860859E+02  0.11660942952E+04  0.11750603399E+04  0.12509059975E+03 0.  0.
         23    2    1    2    0    0  0.69506319618E+02 -0.22629860859E+02  0.29695309286E+03  0.31751871866E+03  0.85403502680E+02 0.  0.
          5    1    3    3  502    0  0.28646398848E+02  0.13456173527E+02  0.56675569292E+03  0.56765409593E+03  0.41800000000E+01 0. -1.
         -5    1    3    3    0  502 -0.98152718466E+02  0.91736873318E+01  0.59933860223E+03  0.60740624397E+03  0.41800000000E+01 0. -1.
        -11    1    4    4    0    0  0.41269807440E+02 -0.46077290342E+02  0.25202324610E+03  0.25950343016E+03  0.00000000000E+00 0.  1.
         11    1    4    4    0    0  0.28236512179E+02  0.23447429483E+02  0.44929846759E+02  0.58015288495E+02  0.00000000000E+00 0. -1.
</event>
<event>
 8    1  0.7114239E-009  0.9010897E+02  0.7561462E-02  0.1302588E+00
         -2   -1    0    0    0  501 -0.00000000000E+00  0.00000000000E+00  0.79447552769E+02  0.79447552769E+02  0.00000000000E+00 0.  1.
          2   -1    0    0  501    0  0.00000000000E+00 -0.00000000000E+00 -0.15548425874E+03  0.15548425874E+03  0.00000000000E+00 0. -1.
         25    2    1    2    0    0  0.96535759273E+01 -0.24047730227E+01 -0.67842669009E+02  0.14264871924E+03  0.12508818849E+03 0.  0.
         23    2    1    2    0    0 -0.96535759273E+01  0.24047730227E+01 -0.81940369663E+01  0.92283092277E+02  0.91378621224E+02 0.  0.
          5    1    3    3  502    0 -0.41616402801E+02 -0.14919477616E+02  0.12769793079E+02  0.46206664127E+02  0.41800000000E+01 0. -1.
         -5    1    3    3    0  502  0.51269978729E+02  0.12514704594E+02 -0.80612462088E+02  0.96442055110E+02  0.41800000000E+01 0. -1.
        -11    1    4    4    0    0 -0.26992109794E+02 -0.33486365175E+02  0.15727752054E+02  0.45795991402E+02  0.00000000000E+00 0.  1.
         11    1    4    4    0    0  0.17338533866E+02  0.35891138198E+02 -0.23921789021E+02  0.46487100875E+02  0.00000000000E+00 0. -1.
</event>
<event>
 8    1  0.7114239E-009  0.6656908E+02  0.7561462E-02  0.1372165E+00
          4   -1    0    0  501    0  0.00000000000E+00  0.00000000000E+00  0.52807436214E+02  0.52807436214E+02  0.00000000000E+00 0. -1.
         -4   -1    0    0    0  501 -0.00000000000E+00 -0.00000000000E+00 -0.42649620419E+03  0.42649620419E+03  0.00000000000E+00 0.  1.
         25    2    1    2    0    0  0.20102214983E+01 -0.55813742662E+02 -0.34106433963E+03  0.36754777487E+03  0.12508904101E+03 0.  0.
         23    2    1    2    0    0 -0.20102214983E+01  0.55813742662E+02 -0.32624428345E+02  0.11175586554E+03  0.91136190928E+02 0.  0.
          5    1    3    3  502    0 -0.11945400939E+02 -0.19701408170E+02 -0.32431333963E+03  0.32515758141E+03  0.41800000000E+01 0. -1.
         -5    1    3    3    0  502  0.13955622437E+02 -0.36112334492E+02 -0.16751000001E+02  0.42390193454E+02  0.41800000000E+01 0. -1.
        -11    1    4    4    0    0 -0.17387482061E+02  0.56008228289E+01  0.26811894591E+02  0.32443357415E+02  0.00000000000E+00 0. -1.
         11    1    4    4    0    0  0.15377260563E+02  0.50212919833E+02 -0.59436322936E+02  0.79312508123E+02  0.00000000000E+00 0.  1.
</event>
<event>
 8    1  0.7114239E-009  0.9144946E+02  0.7561462E-02  0.1299379E+00
         -2   -1    0    0    0  501 -0.00000000000E+00  0.00000000000E+00  0.34688308418E+02  0.34688308418E+02  0.00000000000E+00 0.  1.
          2   -1    0    0  501    0  0.00000000000E+00 -0.00000000000E+00 -0.37768286700E+03  0.37768286700E+03  0.00000000000E+00 0. -1.
         25    2    1    2    0    0 -0.30557317939E+02  0.19748481426E+02 -0.21413926898E+03  0.25065368668E+03  0.12509153419E+03 0.  0.
         23    2    1    2    0    0  0.30557317939E+02 -0.19748481426E+02 -0.12885528960E+03  0.16171748874E+03  0.90692382859E+02 0.  0.
          5    1    3    3  502    0 -0.68132642933E+02  0.12638087716E+02 -0.19636715681E+03  0.20827700538E+03  0.41800000000E+01 0. -1.
         -5    1    3    3    0  502  0.37575324994E+02  0.71103937100E+01 -0.17772112169E+02  0.42376681301E+02  0.41800000000E+01 0. -1.
        -11    1    4    4    0    0  0.33699727741E+02 -0.41257111056E+02 -0.31334433389E+02  0.61803459274E+02  0.00000000000E+00 0.  1.
         11    1    4    4    0    0 -0.31424098016E+01  0.21508629630E+02 -0.97520856215E+02  0.99914029470E+02  0.00000000000E+00 0. -1.
</event>
<event>
 8    1  0.7114239E-009  0.1156882E+03  0.7561462E-02  0.1250385E+00
          1   -1    0    0  501    0  0.00000000000E+00  0.00000000000E+00  0.17433689175E+02  0.17433689175E+02  0.00000000000E+00 0. -1.
         -1   -1    0    0    0  501 -0.00000000000E+00 -0.00000000000E+00 -0.13707093740E+04  0.13707093740E+04  0.00000000000E+00 0.  1.
         25    2    1    2    0    0 -0.46894726025E+02  0.83758035138E+02 -0.94659324866E+03  0.95963549638E+03  0.12508790398E+03 0.  0.
         23    2    1    2    0    0  0.46894726025E+02 -0.83758035138E+02 -0.40668243617E+03  0.42850756680E+03  0.94940018630E+02 0.  0.
          5    1    3    3  502    0 -0.64788666831E+00  0.29206284451E+02 -0.37478858300E+02  0.47702872325E+02  0.41800000000E+01 0. -1.
         -5    1    3    3    0  502 -0.46246839356E+02  0.54551750687E+02 -0.90911439036E+03  0.91193262405E+03  0.41800000000E+01 0. -1.
        -11    1    4    4    0    0 -0.22953698259E+02 -0.44576367654E+02 -0.10470769595E+03  0.11609317985E+03  0.00000000000E+00 0. -1.
         11    1    4    4    0    0  0.69848424284E+02 -0.39181667484E+02 -0.30197474022E+03  0.31241438695E+03  0.00000000000E+00 0.  1.
</event>
<event>
 8    1  0.7114239E-009  0.1291742E+03  0.7561462E-02  0.1228686E+00
         -2   -1    0    0    0  501 -0.00000000000E+00  0.00000000000E+00  0.15626392096E+02  0.15626392096E+02  0.00000000000E+00 0.  1.
          2   -1    0    0  501    0  0.00000000000E+00 -0.00000000000E+00 -0.11171490859E+04  0.11171490859E+04  0.00000000000E+00 0. -1.
         25    2    1    2    0    0  0.65091229681E+02 -0.35303690949E+02 -0.68747198279E+03  0.70267251177E+03  0.12509081864E+03 0.  0.
         23    2    1    2    0    0 -0.65091229681E+02  0.35303690949E+02 -0.41405071105E+03  0.43010296626E+03  0.89818436223E+02 0.  0.
          5    1    3    3  502    0  0.50213041512E+02  0.42569385440E+02 -0.31631692697E+03  0.32312129735E+03  0.41800000000E+01 0.  1.
         -5    1    3    3    0  502  0.14878188169E+02 -0.77873076389E+02 -0.37115505582E+03  0.37955121442E+03  0.41800000000E+01 0.  1.
        -11    1    4    4    0    0 -0.10205631982E+02  0.54043044151E+02 -0.15017978463E+03  0.15993365267E+03  0.00000000000E+00 0.  1.
         11    1    4    4    0    0 -0.54885597699E+02 -0.18739353202E+02 -0.26387092642E+03  0.27016931359E+03  0.00000000000E+00 0. -1.
</event>
<event>
 8    1  0.7114239E-009  0.9707912E+02  0.7561462E-02  0.1286561E+00
         -2   -1    0    0    0  501 -0.00000000000E+00  0.00000000000E+00  0.15826741830E+03  0.15826741830E+03  0.00000000000E+00 0. -1.
          2   -1    0    0  501    0  0.00000000000E+00 -0.00000000000E+00 -0.10328943178E+03  0.10328943178E+03  0.00000000000E+00 0.  1.
         25    2    1    2    0    0  0.31929328826E+02  0.13929247385E+02 -0.29548955036E+02  0.13316991501E+03  0.12509028559E+03 0.  0.
         23    2    1    2    0    0 -0.31929328826E+02 -0.13929247385E+02  0.84526941559E+02  0.12838693507E+03  0.90138200972E+02 0.  0.
          5    1    3    3  502    0  0.72237847146E+02 -0.20611466880E+02 -0.26742296536E+02  0.79848368495E+02  0.41800000000E+01 0. -1.
         -5    1    3    3    0  502 -0.40308518320E+02  0.34540714265E+02 -0.28066585002E+01  0.53321546518E+02  0.41800000000E+01 0. -1.
        -11    1    4    4    0    0 -0.42088260705E+02 -0.26327885919E+02  0.81046376777E+01  0.50301733748E+02  0.00000000000E+00 0.  1.
         11    1    4    4    0    0  0.10158931880E+02  0.12398638534E+02  0.76422303881E+02  0.78085201318E+02  0.00000000000E+00 0. -1.
</event>
<event>
 8    1  0.7114239E-009  0.1113732E+03  0.7561462E-02  0.1258048E+00
          1   -1    0    0  501    0  0.00000000000E+00  0.00000000000E+00  0.41121832234E+03  0.41121832234E+03  0.00000000000E+00 0. -1.
         -1   -1    0    0    0  501 -0.00000000000E+00 -0.00000000000E+00 -0.44728211350E+02  0.44728211350E+02  0.00000000000E+00 0.  1.
         25    2    1    2    0    0 -0.43567646121E+01 -0.56680490823E+02  0.10712494533E+03  0.17421816356E+03  0.12507819620E+03 0.  0.
         23    2    1    2    0    0  0.43567646121E+01  0.56680490823E+02  0.25936516566E+03  0.28172837013E+03  0.94174975130E+02 0.  0.
          5    1    3    3  502    0  0.14835625946E+02 -0.88046174889E+02  0.10391699230E+03  0.13707092470E+03  0.41800000000E+01 0. -1.
         -5    1    3    3    0  502 -0.19192390558E+02  0.31365684066E+02  0.32079530319E+01  0.37147238860E+02  0.41800000000E+01 0. -1.
        -11    1    4    4    0    0  0.36157833343E+02  0.53251954105E+02  0.98169562881E+02  0.11739004474E+03  0.00000000000E+00 0.  1.
         11    1    4    4    0    0 -0.31801068731E+02  0.34285367181E+01  0.16119560278E+03  0.16433832539E+03  0.00000000000E+00 0. -1.
</event>
<event>
 8    1  0.7114239E-009  0.1025201E+03  0.7561462E-02  0.1275084E+00
          2   -1    0    0  501    0  0.00000000000E+00  0.00000000000E+00  0.96008794460E+02  0.96008794460E+02  0.00000000000E+00 0. -1.
         -2   -1    0    0    0  501 -0.00000000000E+00 -0.00000000000E+00 -0.16743601220E+03  0.16743601220E+03  0.00000000000E+00 0.  1.
         25    2    1    2    0    0 -0.24883456979E+02  0.57493177640E+02 -0.60151049753E+01  0.14003034491E+03  0.12509062356E+03 0.  0.
         23    2    1    2    0    0  0.24883456979E+02 -0.57493177640E+02 -0.65412112764E+02  0.12341446175E+03  0.83831574996E+02 0.  0.
          5    1    3    3  502    0  0.37731374710E+02  0.66431411793E+02 -0.34557878806E+01  0.76591148185E+02  0.41800000000E+01 0.  1.
         -5    1    3    3    0  502 -0.62614831689E+02 -0.89382341533E+01 -0.25593170948E+01  0.63439196726E+02  0.41800000000E+01 0.  1.
        -11    1    4    4    0    0  0.23517292040E+02 -0.32538219382E+02 -0.83441661040E+02  0.92597567693E+02  0.00000000000E+00 0.  1.
         11    1    4    4    0    0  0.13661649383E+01 -0.24954958258E+02  0.18029548276E+02  0.30816894057E+02  0.00000000000E+00 0. -1.
</event>
<event>
 8    1  0.7114239E-009  0.8479497E+02  0.7561462E-02  0.1315970E+00
          1   -1    0    0  501    0  0.00000000000E+00  0.00000000000E+00  0.51309157093E+03  0.51309157093E+03  0.00000000000E+00 0.  1.
         -1   -1    0    0    0  501 -0.00000000000E+00 -0.00000000000E+00 -0.25946450234E+02  0.25946450234E+02  0.00000000000E+00 0. -1.
         25    2    1    2    0    0 -0.33166928405E+02 -0.24058710284E+02  0.28303041253E+03  0.31214868243E+03  0.12510682973E+03 0.  0.
         23    2    1    2    0    0  0.33166928405E+02  0.24058710284E+02  0.20411470816E+03  0.22688933873E+03  0.90205827204E+02 0.  0.
          5    1    3    3  502    0 -0.62464236204E+01 -0.49456647869E+02  0.34321690328E+02  0.60666536521E+02  0.41800000000E+01 0. -1.
         -5    1    3    3    0  502 -0.26920504784E+02  0.25397937584E+02  0.24870872221E+03  0.25148214591E+03  0.41800000000E+01 0. -1.
        -11    1    4    4    0    0 -0.75455982545E+01  0.38415846844E+02  0.35542022283E+02  0.52876731081E+02  0.00000000000E+00 0. -1.
         11    1    4    4    0    0  0.40712526659E+02 -0.14357136560E+02  0.16857268587E+03  0.17401260765E+03  0.00000000000E+00 0.  1.
</event>
<event>
 8    1  0.7114239E-009  0.1334843E+03  0.7561462E-02  0.1222375E+00
          1   -1    0    0  501    0  0.00000000000E+00  0.00000000000E+00  0.42191439691E+03  0.42191439691E+03  0.00000000000E+00 0. -1.
         -1   -1    0    0    0  501 -0.00000000000E+00 -0.00000000000E+00 -0.57028034838E+02  0.57028034838E+02  0.00000000000E+00 0.  1.
         25    2    1    2    0    0  0.88574820181E+02 -0.62040001333E+02  0.16529540276E+03  0.23380496491E+03  0.12509089058E+03 0.  0.
         23    2    1    2    0    0 -0.88574820181E+02  0.62040001333E+02  0.19959095932E+03  0.24513746684E+03  0.92527650319E+02 0.  0.
          5    1    3    3  502    0  0.10144248566E+03 -0.37002287353E+02  0.57683216054E+02  0.12249315483E+03  0.41800000000E+01 0.  1.
         -5    1    3    3    0  502 -0.12867665475E+02 -0.25037713980E+02  0.10761218670E+03  0.11131181008E+03  0.41800000000E+01 0.  1.
        -11    1    4    4    0    0 -0.99366653647E+02  0.65619221336E+02  0.13697964448E+03  0.18150216822E+03  0.00000000000E+00 0. -1.
         11    1    4    4    0    0  0.10791833466E+02 -0.35792200034E+01  0.62611314842E+02  0.63635298630E+02  0.00000000000E+00 0.  1.
</event>
<event>
 8    1  0.7114239E-009  0.1219751E+03  0.7561462E-02  0.1239874E+00
          1   -1    0    0  501    0  0.00000000000E+00  0.00000000000E+00  0.46629874436E+03  0.46629874436E+03  0.00000000000E+00 0. -1.
         -1   -1    0    0    0  501 -0.00000000000E+00 -0.00000000000E+00 -0.39816849496E+02  0.39816849496E+02  0.00000000000E+00 0.  1.
         25    2    1    2    0    0  0.56508227446E+02  0.27670986869E+02  0.34829008560E+03  0.37538132054E+03  0.12508512622E+03 0.  0.
         23    2    1    2    0    0 -0.56508227446E+02 -0.27670986869E+02  0.78191809262E+02  0.13073427331E+03  0.83777251682E+02 0.  0.
          5    1    3    3  502    0  0.22478952228E+02 -0.50061561869E+02  0.14039588384E+03  0.15079767860E+03  0.41800000000E+01 0.  1.
         -5    1    3    3    0  502  0.34029275218E+02  0.77732548738E+02  0.20789420176E+03  0.22458364194E+03  0.41800000000E+01 0.  1.
        -11    1    4    4    0    0  0.54495748488E+01  0.23174481133E+02  0.25103797306E+02  0.34597038616E+02  0.00000000000E+00 0.  1.
         11    1    4    4    0    0 -0.61957802294E+02 -0.50845468002E+02  0.53088011956E+02  0.96137234696E+02  0.00000000000E+00 0. -1.
</event>
<event>
 8    1  0.7114239E-009  0.1894418E+03  0.7561462E-02  0.1158966E+00
         -2   -1    0    0    0  501 -0.00000000000E+00  0.00000000000E+00  0.40177595973E+02  0.40177595973E+02  0.00000000000E+00 0.  1.
          2   -1    0    0  501    0  0.00000000000E+00 -0.00000000000E+00 -0.11277170663E+04  0.11277170663E+04  0.00000000000E+00 0. -1.
         25    2    1    2    0    0  0.22932612451E+02  0.16905155946E+03 -0.38599350566E+03  0.44016122439E+03  0.12508630053E+03 0.  0.
         23    2    1    2    0    0 -0.22932612451E+02 -0.16905155946E+03 -0.70154596469E+03  0.72773343790E+03  0.91240789123E+02 0.  0.
          5    1    3    3  502    0  0.49968252887E+02  0.63225929470E+02 -0.73680461548E+02  0.10927317726E+03  0.41800000000E+01 0.  1.
         -5    1    3    3    0  502 -0.27035640436E+02  0.10582562998E+03 -0.31231304411E+03  0.33088804713E+03  0.41800000000E+01 0.  1.
        -11    1    4    4    0    0  0.22416166569E+02 -0.12002063617E+03 -0.37323294812E+03  0.39269615632E+03  0.00000000000E+00 0. -1.
         11    1    4    4    0    0 -0.45348779020E+02 -0.49030923284E+02 -0.32831301657E+03  0.33503728158E+03  0.00000000000E+00 0.  1.
</event>
<event>
 8    1  0.7114239E-009  0.1603821E+03  0.7561462E-02  0.1188266E+00
         -1   -1    0    0    0  501 -0.00000000000E+00  0.00000000000E+00  0.33642391123E+03  0.33642391123E+03  0.00000000000E+00 0.  1.
          1   -1    0    0  501    0  0.00000000000E+00 -0.00000000000E+00 -0.95610829736E+02  0.95610829736E+02  0.00000000000E+00 0. -1.
         25    2    1    2    0    0  0.11608929607E+03 -0.65728497187E+02  0.66007188492E+02  0.19442587630E+03  0.12509001734E+03 0.  0.
         23    2    1    2    0    0 -0.11608929607E+03  0.65728497187E+02  0.17480589300E+03  0.23760886466E+03  0.90021732571E+02 0.  0.
          5    1    3    3  502    0 -0.76314531850E+01 -0.29627541937E+02  0.57415083368E+02  0.65191982000E+02  0.41800000000E+01 0.  1.
         -5    1    3    3    0  502  0.12372074925E+03 -0.36100955250E+02  0.85921051241E+01  0.12923389430E+03  0.41800000000E+01 0.  1.
        -11    1    4    4    0    0 -0.24972542141E+02 -0.22858775908E+02  0.36878482468E+02  0.50061701591E+02  0.00000000000E+00 0.  1.
         11    1    4    4    0    0 -0.91116753927E+02  0.88587273095E+02  0.13792741053E+03  0.18754716307E+03  0.00000000000E+00 0. -1.
</event>
<event>
 8    1  0.7114239E-009  0.3060877E+03  0.7561462E-02  0.1082236E+00
          2   -1    0    0  501    0  0.00000000000E+00  0.00000000000E+00  0.92400177717E+03  0.92400177717E+03  0.00000000000E+00 0. -1.
         -2   -1    0    0    0  501 -0.00000000000E+00 -0.00000000000E+00 -0.13919698682E+03  0.13919698682E+03  0.00000000000E+00 0.  1.
         25    2    1    2    0    0  0.11046529943E+03 -0.28014856759E+03  0.63677697965E+03  0.71541482814E+03  0.12509057602E+03 0.  0.
         23    2    1    2    0    0 -0.11046529943E+03  0.28014856759E+03  0.14802781070E+03  0.34778393585E+03  0.91409140650E+02 0.  0.
          5    1    3    3  502    0  0.27947914513E+02 -0.17336702357E+03  0.46403931152E+03  0.49617251619E+03  0.41800000000E+01 0. -1.
         -5    1    3    3    0  502  0.82517384922E+02 -0.10678154402E+03  0.17273766813E+03  0.21924231195E+03  0.41800000000E+01 0. -1.
        -11    1    4    4    0    0 -0.68888567535E+02  0.19354485658E+03  0.14538927132E+03  0.25168092193E+03  0.00000000000E+00 0. -1.
         11    1    4    4    0    0 -0.41576731899E+02  0.86603711003E+02  0.26385393804E+01  0.96103013923E+02  0.00000000000E+00 0.  1.
</event>
<event>
 8    1  0.7114239E-009  0.1022445E+03  0.7561462E-02  0.1275646E+00
          4   -1    0    0  501    0  0.00000000000E+00  0.00000000000E+00  0.65483351874E+02  0.65483351874E+02  0.00000000000E+00 0. -1.
         -4   -1    0    0    0  501 -0.00000000000E+00 -0.00000000000E+00 -0.21453094842E+03  0.21453094842E+03  0.00000000000E+00 0.  1.
         25    2    1    2    0    0  0.30986389537E+01 -0.25784219295E+02 -0.36491926839E+02  0.13286941916E+03  0.12509274277E+03 0.  0.
         23    2    1    2    0    0 -0.30986389537E+01  0.25784219295E+02 -0.11255566970E+03  0.14714488113E+03  0.91150478512E+02 0.  0.
          5    1    3    3  502    0 -0.15207267779E+02 -0.70840018948E+02 -0.11102477194E+01  0.72582879027E+02  0.41800000000E+01 0.  1.
         -5    1    3    3    0  502  0.18305906733E+02  0.45055799653E+02 -0.35381679120E+02  0.60286540131E+02  0.41800000000E+01 0.  1.
        -11    1    4    4    0    0 -0.39404835184E+02  0.15188869892E+01 -0.18732920450E+02  0.43657420470E+02  0.00000000000E+00 0. -1.
         11    1    4    4    0    0  0.36306196230E+02  0.24265332306E+02 -0.93822749255E+02  0.10348746066E+03  0.00000000000E+00 0.  1.
</event>
<event>
 8    1  0.7114239E-009  0.1149573E+03  0.7561462E-02  0.1251656E+00
         -3   -1    0    0    0  501 -0.00000000000E+00  0.00000000000E+00  0.49373437211E+02  0.49373437211E+02  0.00000000000E+00 0.  1.
          3   -1    0    0  501    0  0.00000000000E+00 -0.00000000000E+00 -0.32695847062E+03  0.32695847062E+03  0.00000000000E+00 0. -1.
         25    2    1    2    0    0  0.10317322131E+02 -0.61807022845E+02 -0.18052978724E+03  0.22839562730E+03  0.12508798216E+03 0.  0.
         23    2    1    2    0    0 -0.10317322131E+02  0.61807022845E+02 -0.97055246165E+02  0.14793628052E+03  0.92405990486E+02 0.  0.
          5    1    3    3  502    0  0.45154589015E+02 -0.68910911762E+02 -0.17321688817E+03  0.19185727356E+03  0.41800000000E+01 0. -1.
         -5    1    3    3    0  502 -0.34837266884E+02  0.71038889168E+01 -0.73128990669E+01  0.36538353746E+02  0.41800000000E+01 0. -1.
        -11    1    4    4    0    0  0.41248260870E+02  0.30464863355E+02 -0.46186427312E+02  0.69012411869E+02  0.00000000000E+00 0.  1.
         11    1    4    4    0    0 -0.51565583001E+02  0.31342159490E+02 -0.50868818852E+02  0.78923868653E+02  0.00000000000E+00 0. -1.
</event>
<event>
 8    1  0.7114239E-009  0.1167267E+03  0.7561462E-02  0.1248597E+00
         -1   -1    0    0    0  501 -0.00000000000E+00  0.00000000000E+00  0.14972203465E+04  0.14972203465E+04  0.00000000000E+00 0.  1.
          1   -1    0    0  501    0  0.00000000000E+00 -0.00000000000E+00 -0.21027671766E+02  0.21027671766E+02  0.00000000000E+00 0. -1.
         25    2    1    2    0    0  0.72918605850E+02  0.40484607443E+01  0.12962779631E+04  0.13043448019E+04  0.12508113948E+03 0.  0.
         23    2    1    2    0    0 -0.72918605850E+02 -0.40484607443E+01  0.17991471166E+03  0.21390321642E+03  0.89731652206E+02 0.  0.
          5    1    3    3  502    0 -0.26194204034E+02  0.17054400388E+02  0.12946808877E+03  0.13325332007E+03  0.41800000000E+01 0. -1.
         -5    1    3    3    0  502  0.99112809884E+02 -0.13005939644E+02  0.11668098743E+04  0.11710914818E+04  0.41800000000E+01 0. -1.
        -11    1    4    4    0    0 -0.35047263644E+02 -0.37507739992E+02  0.39803994107E+02  0.64957672335E+02  0.00000000000E+00 0. -1.
         11    1    4    4    0    0 -0.37871342206E+02  0.33459279248E+02  0.14011071756E+03  0.14894554408E+03  0.00000000000E+00 0.  1.
</event>
<event>
 8    1  0.7114239E-009  0.1119235E+03  0.7561462E-02  0.1257049E+00
         -3   -1    0    0    0  501 -0.00000000000E+00  0.00000000000E+00  0.80755161428E+02  0.80755161428E+02  0.00000000000E+00 0.  1.
          3   -1    0    0  501    0  0.00000000000E+00 -0.00000000000E+00 -0.19511281982E+03  0.19511281982E+03  0.00000000000E+00 0. -1.
         25    2    1    2    0    0 -0.54727030441E+02  0.15554548100E+02 -0.90920987544E+02  0.16477676290E+03  0.12509102201E+03 0.  0.
         23    2    1    2    0    0  0.54727030441E+02 -0.15554548100E+02 -0.23436670852E+02  0.11109121835E+03  0.92493185840E+02 0.  0.
          5    1    3    3  502    0 -0.34090464774E+02  0.58340498660E+02 -0.95290129785E+02  0.11689078153E+03  0.41800000000E+01 0. -1.
         -5    1    3    3    0  502 -0.20636565668E+02 -0.42785950560E+02  0.43691422410E+01  0.47885981370E+02  0.41800000000E+01 0. -1.
        -11    1    4    4    0    0 -0.17401397427E+02 -0.30205715589E+02 -0.50057188421E+01  0.35217199034E+02  0.00000000000E+00 0.  1.
         11    1    4    4    0    0  0.72128427868E+02  0.14651167489E+02 -0.18430952010E+02  0.75874019318E+02  0.00000000000E+00 0. -1.
</event>
<event>
 8    1  0.7114239E-009  0.6874006E+02  0.7561462E-02  0.1364431E+00
         -2   -1    0    0    0  501 -0.00000000000E+00  0.00000000000E+00  0.26462281408E+03  0.26462281408E+03  0.00000000000E+00 0.  1.
          2   -1    0    0  501    0  0.00000000000E+00 -0.00000000000E+00 -0.47072763127E+02  0.47072763127E+02  0.00000000000E+00 0. -1.
         25    2    1    2    0    0 -0.16486999108E+02  0.67268820039E+01  0.12921228487E+03  0.18072195039E+03  0.12509011436E+03 0.  0.
         23    2    1    2    0    0  0.16486999108E+02 -0.67268820039E+01  0.88337766076E+02  0.13097362681E+03  0.95044504960E+02 0.  0.
          5    1    3    3  502    0 -0.25463947757E+02  0.35465432967E+02  0.14134480484E+03  0.14799336412E+03  0.41800000000E+01 0. -1.
         -5    1    3    3    0  502  0.89769486485E+01 -0.28738550963E+02 -0.12132519964E+02  0.32728586269E+02  0.41800000000E+01 0. -1.
        -11    1    4    4    0    0  0.33466590112E+02 -0.22274115378E+02  0.53724877019E+00  0.40204943799E+02  0.00000000000E+00 0. -1.
         11    1    4    4    0    0 -0.16979591004E+02  0.15547233374E+02  0.87800517306E+02  0.90768683010E+02  0.00000000000E+00 0.  1.
</event>
<event>
 8    1  0.7114239E-009  0.1321602E+03  0.7561462E-02  0.1224285E+00
         -2   -1    0    0    0  501 -0.00000000000E+00  0.00000000000E+00  0.19366790479E+02  0.19366790479E+02  0.00000000000E+00 0.  1.
          2   -1    0    0  501    0  0.00000000000E+00 -0.00000000000E+00 -0.10361989419E+04  0.10361989419E+04  0.00000000000E+00 0. -1.
         25    2    1    2    0    0  0.79268423925E+02 -0.19095946332E+01 -0.73819877053E+03  0.75290902504E+03  0.12508975014E+03 0.  0.
         23    2    1    2    0    0 -0.79268423925E+02  0.19095946332E+01 -0.27863338091E+03  0.30265670736E+03  0.87620727962E+02 0.  0.
          5    1    3    3  502    0  0.13504365954E+02 -0.58923809179E+02 -0.32926493182E+03  0.33479434122E+03  0.41800000000E+01 0. -1.
         -5    1    3    3    0  502  0.65764057971E+02  0.57014214546E+02 -0.40893383871E+03  0.41811468382E+03  0.41800000000E+01 0. -1.
        -11    1    4    4    0    0 -0.64439084707E+02 -0.37446560562E+02 -0.20083561733E+03  0.21421854664E+03  0.00000000000E+00 0.  1.
         11    1    4    4    0    0 -0.14829339218E+02  0.39356155195E+02 -0.77797763579E+02  0.88438160719E+02  0.00000000000E+00 0. -1.
</event>
<event>
 8    1  0.7114239E-009  0.1123659E+03  0.7561462E-02  0.1256250E+00
         -2   -1    0    0    0  501 -0.00000000000E+00  0.00000000000E+00  0.91230973081E+02  0.91230973081E+02  0.00000000000E+00 0. -1.
          2   -1    0    0  501    0  0.00000000000E+00 -0.00000000000E+00 -0.15898753002E+03  0.15898753002E+03  0.00000000000E+00 0.  1.
         25    2    1    2    0    0  0.29395968415E+02  0.40077070868E+02 -0.21507537667E+02  0.13630787726E+03  0.12508784376E+03 0.  0.
         23    2    1    2    0    0 -0.29395968415E+02 -0.40077070868E+02 -0.46249019276E+02  0.11391062585E+03  0.91467832207E+02 0.  0.
          5    1    3    3  502    0  0.15287345710E+02 -0.41485640283E+02 -0.29079234671E+02  0.53083289061E+02  0.41800000000E+01 0.  1.
         -5    1    3    3    0  502  0.14108622705E+02  0.81562711151E+02  0.75716970037E+01  0.83224588196E+02  0.41800000000E+01 0.  1.
        -11    1    4    4    0    0 -0.33836454346E+02 -0.64383762902E+02 -0.15330393453E+02  0.74331659013E+02  0.00000000000E+00 0. -1.
         11    1    4    4    0    0  0.44404859313E+01  0.24306692034E+02 -0.30918625823E+02  0.39578966835E+02  0.00000000000E+00 0.  1.
</event>
<event>
 8    1  0.7114239E-009  0.1089828E+03  0.7561462E-02  0.1262465E+00
         -1   -1    0    0    0  501 -0.00000000000E+00  0.00000000000E+00  0.48567425516E+03  0.48567425516E+03  0.00000000000E+00 0.  1.
          1   -1    0    0  501    0  0.00000000000E+00 -0.00000000000E+00 -0.29098383865E+02  0.29098383865E+02  0.00000000000E+00 0. -1.
         25    2    1    2    0    0 -0.95609167291E+01  0.26230560669E+02  0.34677363630E+03  0.36970092712E+03  0.12508943695E+03 0.  0.
         23    2    1    2    0    0  0.95609167291E+01 -0.26230560669E+02  0.10980223500E+03  0.14507171191E+03  0.90608042382E+02 0.  0.
          5    1    3    3  502    0 -0.64042791130E+02 -0.28685720442E+00  0.13657193357E+03  0.15090038708E+03  0.41800000000E+01 0.  1.
         -5    1    3    3    0  502  0.54481874401E+02  0.26517417873E+02  0.21020170273E+03  0.21880054003E+03  0.41800000000E+01 0.  1.
        -11    1    4    4    0    0 -0.10300200095E+02 -0.56178022668E+02  0.80506277647E+02  0.98708282801E+02  0.00000000000E+00 0.  1.
         11    1    4    4    0    0  0.19861116824E+02  0.29947461999E+02  0.29295957352E+02  0.46363429110E+02  0.00000000000E+00 0. -1.
</event>
<event>
 8    1  0.7114239E-009  0.1513826E+03  0.7561462E-02  0.1198784E+00
         -2   -1    0    0    0  501 -0.00000000000E+00  0.00000000000E+00  0.39433464484E+02  0.39433464484E+02  0.00000000000E+00 0.  1.
          2   -1    0    0  501    0  0.00000000000E+00 -0.00000000000E+00 -0.94054249460E+03  0.94054249460E+03  0.00000000000E+00 0. -1.
         25    2    1    2    0    0  0.86123195680E+02 -0.11884975231E+03 -0.62307848455E+03  0.65224096427E+03  0.12509599955E+03 0.  0.
         23    2    1    2    0    0 -0.86123195680E+02  0.11884975231E+03 -0.27803054556E+03  0.32773499481E+03  0.92556869536E+02 0.  0.
          5    1    3    3  502    0  0.11001141994E+01 -0.38289687810E+02 -0.33294502881E+02  0.50924520282E+02  0.41800000000E+01 0.  1.
         -5    1    3    3    0  502  0.85023081481E+02 -0.80560064503E+02 -0.58978398167E+03  0.60131644399E+03  0.41800000000E+01 0.  1.
        -11    1    4    4    0    0 -0.23540865996E+02  0.26173419759E+02 -0.89209688276E+01  0.36315340540E+02  0.00000000000E+00 0.  1.
         11    1    4    4    0    0 -0.62582329684E+02  0.92676332554E+02 -0.26910957673E+03  0.29141965427E+03  0.00000000000E+00 0. -1.
</event>
<event>
 8    1  0.7114239E-009  0.2567393E+03  0.7561462E-02  0.1109118E+00
         -2   -1    0    0    0  501 -0.00000000000E+00  0.00000000000E+00  0.80524181521E+02  0.80524181521E+02  0.00000000000E+00 0.  1.
          2   -1    0    0  501    0  0.00000000000E+00 -0.00000000000E+00 -0.10408301902E+04  0.10408301902E+04  0.00000000000E+00 0. -1.
         25    2    1    2    0    0  0.94823161859E+02 -0.22316221526E+03 -0.71179561264E+03  0.76229493518E+03  0.12509103762E+03 0.  0.
         23    2    1    2    0    0 -0.94823161859E+02  0.22316221526E+03 -0.24851039602E+03  0.35905943651E+03  0.91506588152E+02 0.  0.
          5    1    3    3  502    0 -0.31827422693E+00 -0.13921084966E+03 -0.45488695133E+03  0.47573035729E+03  0.41800000000E+01 0.  1.
         -5    1    3    3    0  502  0.95141436086E+02 -0.83951365603E+02 -0.25690866131E+03  0.28656457789E+03  0.41800000000E+01 0.  1.
        -11    1    4    4    0    0 -0.88902679581E+02  0.15387130024E+03 -0.12483438889E+03  0.21717202427E+03  0.00000000000E+00 0.  1.
         11    1    4    4    0    0 -0.59204822780E+01  0.69290915018E+02 -0.12367600713E+03  0.14188741225E+03  0.00000000000E+00 0. -1.
</event>
<event>
 8    1  0.7114239E-009  0.1089441E+03  0.7561462E-02  0.1262538E+00
         -1   -1    0    0    0  501 -0.00000000000E+00  0.00000000000E+00  0.65794311699E+02  0.65794311699E+02  0.00000000000E+00 0.  1.
          1   -1    0    0  501    0  0.00000000000E+00 -0.00000000000E+00 -0.35599379594E+03  0.35599379594E+03  0.00000000000E+00 0. -1.
         25    2    1    2    0    0 -0.10857439108E+02  0.98719487444E+02 -0.10160430654E+03  0.18929760678E+03  0.12508688038E+03 0.  0.
         23    2    1    2    0    0  0.10857439108E+02 -0.98719487444E+02 -0.18859517771E+03  0.23249050086E+03  0.92845413181E+02 0.  0.
          5    1    3    3  502    0 -0.13934182680E+02  0.40913218925E+02  0.24942308720E+02  0.50076382598E+02  0.41800000000E+01 0.  1.
         -5    1    3    3    0  502  0.30767435721E+01  0.57806268520E+02 -0.12654661526E+03  0.13922122419E+03  0.41800000000E+01 0.  1.
        -11    1    4    4    0    0  0.30730675061E+02 -0.23667596075E+02 -0.13698821698E+02  0.41136203150E+02  0.00000000000E+00 0.  1.
         11    1    4    4    0    0 -0.19873235953E+02 -0.75051891370E+02 -0.17489635601E+03  0.19135429771E+03  0.00000000000E+00 0. -1.
</event>
<event>
 8    1  0.7114239E-009  0.2289431E+03  0.7561462E-02  0.1127386E+00
          2   -1    0    0  501    0  0.00000000000E+00  0.00000000000E+00  0.76314211568E+03  0.76314211568E+03  0.00000000000E+00 0. -1.
         -2   -1    0    0    0  501 -0.00000000000E+00 -0.00000000000E+00 -0.74308387704E+02  0.74308387704E+02  0.00000000000E+00 0.  1.
         25    2    1    2    0    0 -0.14310474843E+03 -0.15454053715E+03  0.32940370040E+03  0.41050606674E+03  0.12508671531E+03 0.  0.
         23    2    1    2    0    0  0.14310474843E+03  0.15454053715E+03  0.35943002757E+03  0.42694443664E+03  0.93433723100E+02 0.  0.
          5    1    3    3  502    0 -0.16261588271E+03 -0.15497014069E+03  0.29624363457E+03  0.37180294947E+03  0.41800000000E+01 0. -1.
         -5    1    3    3    0  502  0.19511134284E+02  0.42960353419E+00  0.33160065837E+02  0.38703117272E+02  0.41800000000E+01 0. -1.
        -11    1    4    4    0    0  0.39098183541E+02  0.22281950212E+02  0.15904198617E+03  0.16528613561E+03  0.00000000000E+00 0. -1.
         11    1    4    4    0    0  0.10400656489E+03  0.13225858694E+03  0.20038804140E+03  0.26165830103E+03  0.00000000000E+00 0.  1.
</event>
<event>
 8    1  0.7114239E-009  0.1574936E+03  0.7561462E-02  0.1191556E+00
          1   -1    0    0  501    0  0.00000000000E+00  0.00000000000E+00  0.54513509286E+03  0.54513509286E+03  0.00000000000E+00 0. -1.
         -1   -1    0    0    0  501 -0.00000000000E+00 -0.00000000000E+00 -0.54039955434E+02  0.54039955434E+02  0.00000000000E+00 0.  1.
         25    2    1    2    0    0  0.87053940546E+02  0.75314784501E+02  0.37290166187E+03  0.40982055020E+03  0.12508608481E+03 0.  0.
         23    2    1    2    0    0 -0.87053940546E+02 -0.75314784501E+02  0.11819347556E+03  0.18935449810E+03  0.92923209991E+02 0.  0.
          5    1    3    3  502    0  0.82320540784E+02 -0.11184925486E+02  0.18884354955E+03  0.20635196292E+03  0.41800000000E+01 0. -1.
         -5    1    3    3    0  502  0.47333997621E+01  0.86499709988E+02  0.18405811231E+03  0.20346858728E+03  0.41800000000E+01 0. -1.
        -11    1    4    4    0    0  0.67652483482E+01 -0.46415603854E+02  0.21630111823E+02  0.51653059966E+02  0.00000000000E+00 0.  1.
         11    1    4    4    0    0 -0.93819188894E+02 -0.28899180647E+02  0.96563363740E+02  0.13770143813E+03  0.00000000000E+00 0. -1.
</event>
<event>
 8    1  0.7114239E-009  0.1338978E+03  0.7561462E-02  0.1221784E+00
         -1   -1    0    0    0  501 -0.00000000000E+00  0.00000000000E+00  0.18879053052E+03  0.18879053052E+03  0.00000000000E+00 0.  1.
          1   -1    0    0  501    0  0.00000000000E+00 -0.00000000000E+00 -0.19720599826E+03  0.19720599826E+03  0.00000000000E+00 0. -1.
         25    2    1    2    0    0  0.57998574020E+02  0.99171917622E+02 -0.11474943480E+03  0.20496926058E+03  0.12508421628E+03 0.  0.
         23    2    1    2    0    0 -0.57998574020E+02 -0.99171917622E+02  0.10633396706E+03  0.18102726820E+03  0.90912350363E+02 0.  0.
          5    1    3    3  502    0  0.57759343011E+02  0.10584037143E+03 -0.36108311150E+02  0.12593493743E+03  0.41800000000E+01 0.  1.
         -5    1    3    3    0  502  0.23923100868E+00 -0.66684538117E+01 -0.78641123647E+02  0.79034323153E+02  0.41800000000E+01 0.  1.
        -11    1    4    4    0    0 -0.77568463909E+02 -0.85246818116E+02  0.62667618188E+02  0.13119114666E+03  0.00000000000E+00 0. -1.
         11    1    4    4    0    0  0.19569889890E+02 -0.13925099507E+02  0.43666348876E+02  0.49836121545E+02  0.00000000000E+00 0.  1.
</event>
<event>
 8    1  0.7114239E-009  0.8199925E+02  0.7561462E-02  0.1323472E+00
          1   -1    0    0  501    0  0.00000000000E+00  0.00000000000E+00  0.83061407257E+03  0.83061407257E+03  0.00000000000E+00 0. -1.
         -1   -1    0    0    0  501 -0.00000000000E+00 -0.00000000000E+00 -0.13958460609E+02  0.13958460609E+02  0.00000000000E+00 0.  1.
         25    2    1    2    0    0 -0.42405981074E+01 -0.71212754234E+01  0.47247912222E+03  0.48882773277E+03  0.12508931272E+03 0.  0.
         23    2    1    2    0    0  0.42405981074E+01  0.71212754234E+01  0.34417648973E+03  0.35574480040E+03  0.89600288450E+02 0.  0.
          5    1    3    3  502    0 -0.18999409559E+02 -0.36602866929E+02  0.49581051982E+02  0.64625850452E+02  0.41800000000E+01 0.  1.
         -5    1    3    3    0  502  0.14758811451E+02  0.29481591506E+02  0.42289807024E+03  0.42420188232E+03  0.41800000000E+01 0.  1.
        -11    1    4    4    0    0 -0.27855007478E+02 -0.29530725465E+02  0.13510493799E+03  0.14107200097E+03  0.00000000000E+00 0.  1.
         11    1    4    4    0    0  0.32095605586E+02  0.36652000889E+02  0.20907155174E+03  0.21467279943E+03  0.00000000000E+00 0. -1.
</event>
<event>
 8    1  0.7114239E-009  0.6893265E+02  0.7561462E-02  0.1363761E+00
          1   -1    0    0  501    0  0.00000000000E+00  0.00000000000E+00  0.99950826343E+03  0.99950826343E+03  0.00000000000E+00 0. -1.
         -1   -1    0    0    0  501 -0.00000000000E+00 -0.00000000000E+00 -0.14182453630E+02  0.14182453630E+02  0.00000000000E+00 0.  1.
         25    2    1    2    0    0  0.62339623976E+00 -0.24135781082E+02  0.75814918555E+03  0.76877884614E+03  0.12509117543E+03 0.  0.
         23    2    1    2    0    0 -0.62339623976E+00  0.24135781082E+02  0.22717662425E+03  0.24491187092E+03  0.88259171541E+02 0.  0.
          5    1    3    3  502    0  0.18114986213E+02  0.25242882478E+01  0.12744596296E+02  0.22680870605E+02  0.41800000000E+01 0.  1.
         -5    1    3    3    0  502 -0.17491589973E+02 -0.26660069330E+02  0.74540458925E+03  0.74609797553E+03  0.41800000000E+01 0.  1.
        -11    1    4    4    0    0 -0.25983965480E+02  0.46411666507E+02  0.99221387939E+02  0.11257927462E+03  0.00000000000E+00 0.  1.
         11    1    4    4    0    0  0.25360569240E+02 -0.22275885425E+02  0.12795523631E+03  0.13233259629E+03  0.00000000000E+00 0. -1.
</event>
<event>
 8    1  0.7114239E-009  0.1099374E+03  0.7561462E-02  0.1260686E+00
         -1   -1    0    0    0  501 -0.00000000000E+00  0.00000000000E+00  0.21811035607E+03  0.21811035607E+03  0.00000000000E+00 0.  1.
          1   -1    0    0  501    0  0.00000000000E+00 -0.00000000000E+00 -0.85874960005E+02  0.85874960005E+02  0.00000000000E+00 0. -1.
         25    2    1    2    0    0  0.20957437433E+02 -0.73422000867E+02  0.95679478718E+02  0.17502219985E+03  0.12509277916E+03 0.  0.
         23    2    1    2    0    0 -0.20957437433E+02  0.73422000867E+02  0.36555917344E+02  0.12896311622E+03  0.97288981169E+02 0.  0.
          5    1    3    3  502    0  0.16235611835E+02  0.64719723387E+01 -0.24614401607E+02  0.30476592396E+02  0.41800000000E+01 0.  1.
         -5    1    3    3    0  502  0.47218255979E+01 -0.79893973206E+02  0.12029388032E+03  0.14454560746E+03  0.41800000000E+01 0.  1.
        -11    1    4    4    0    0 -0.58254257882E+02  0.55191290293E+02  0.34640916473E+02  0.87404978002E+02  0.00000000000E+00 0.  1.
         11    1    4    4    0    0  0.37296820449E+02  0.18230710575E+02  0.19150008708E+01  0.41558138216E+02  0.00000000000E+00 0. -1.
</event>
<event>
 8    1  0.7114239E-009  0.1023627E+03  0.7561462E-02  0.1275404E+00
         -2   -1    0    0    0  501 -0.00000000000E+00  0.00000000000E+00  0.31808483579E+03  0.31808483579E+03  0.00000000000E+00 0.  1.
          2   -1    0    0  501    0  0.00000000000E+00 -0.00000000000E+00 -0.56910070630E+02  0.56910070630E+02  0.00000000000E+00 0. -1.
         25    2    1    2    0    0 -0.33070347263E+02  0.75661438905E+02  0.15482201262E+03  0.21548878314E+03  0.12508900377E+03 0.  0.
         23    2    1    2    0    0  0.33070347263E+02 -0.75661438905E+02  0.10635275255E+03  0.15950612328E+03  0.85516046362E+02 0.  0.
          5    1    3    3  502    0 -0.13401915375E+01  0.38093036521E+02 -0.13055956151E+02  0.40506862823E+02  0.41800000000E+01 0. -1.
         -5    1    3    3    0  502 -0.31730155725E+02  0.37568402384E+02  0.16787796877E+03  0.17498192032E+03  0.41800000000E+01 0. -1.
        -11    1    4    4    0    0 -0.19120338027E+02 -0.59340525877E+02  0.42574878568E+02  0.75495070188E+02  0.00000000000E+00 0. -1.
         11    1    4    4    0    0  0.52190685289E+02 -0.16320913029E+02  0.63777873977E+02  0.84011053095E+02  0.00000000000E+00 0.  1.
</event>
<event>
 8    1  0.7114239E-009  0.1074320E+03  0.7561462E-02  0.1265401E+00
          2   -1    0    0  501    0  0.00000000000E+00  0.00000000000E+00  0.38749411870E+03  0.38749411870E+03  0.00000000000E+00 0.  1.
         -2   -1    0    0    0  501 -0.00000000000E+00 -0.00000000000E+00 -0.30971844036E+02  0.30971844036E+02  0.00000000000E+00 0. -1.
         25    2    1    2    0    0 -0.19825206234E+01 -0.16435868785E+02  0.21451370655E+03  0.24887161269E+03  0.12508749392E+03 0.  0.
         23    2    1    2    0    0  0.19825206234E+01  0.16435868785E+02  0.14200856812E+03  0.16959435005E+03  0.91223582361E+02 0.  0.
          5    1    3    3  502    0 -0.15320380990E+02 -0.68960078122E+02  0.10512416986E+03  0.12672320204E+03  0.41800000000E+01 0.  1.
         -5    1    3    3    0  502  0.13337860366E+02  0.52524209337E+02  0.10938953669E+03  0.12214841065E+03  0.41800000000E+01 0.  1.
        -11    1    4    4    0    0  0.22514834713E+02 -0.30852023240E+02  0.82157911894E+02  0.90601807968E+02  0.00000000000E+00 0.  1.
         11    1    4    4    0    0 -0.20532314090E+02  0.47287892025E+02  0.59850656223E+02  0.78992542081E+02  0.00000000000E+00 0. -1.
</event>
<event>
 8    1  0.7114239E-009  0.9868553E+02  0.7561462E-02  0.1283085E+00
          1   -1    0    0  501    0  0.00000000000E+00  0.00000000000E+00  0.20514595265E+03  0.20514595265E+03  0.00000000000E+00 0. -1.
         -1   -1    0    0    0  501 -0.00000000000E+00 -0.00000000000E+00 -0.10806845563E+03  0.10806845563E+03  0.00000000000E+00 0.  1.
         25    2    1    2    0    0 -0.69385619907E+02  0.58303468644E+02  0.26402113695E+01  0.15448954635E+03  0.12508553278E+03 0.  0.
         23    2    1    2    0    0  0.69385619907E+02 -0.58303468644E+02  0.94437285647E+02  0.15872486192E+03  0.89785979784E+02 0.  0.
          5    1    3    3  502    0 -0.22842825517E+02  0.38723006925E+02 -0.59257368791E+02  0.74499490595E+02  0.41800000000E+01 0.  1.
         -5    1    3    3    0  502 -0.46542794390E+02  0.19580461719E+02  0.61897580160E+02  0.79990055760E+02  0.41800000000E+01 0.  1.
        -11    1    4    4    0    0  0.15481345271E+01 -0.26646922499E+02  0.77506539327E+02  0.81973891195E+02  0.00000000000E+00 0. -1.
         11    1    4    4    0    0  0.67837485380E+02 -0.31656546146E+02  0.16930746320E+02  0.76750970727E+02  0.00000000000E+00 0.  1.
</event>
<event>
 8    1  0.7114239E-009  0.1164174E+03  0.7561462E-02  0.1249127E+00
         -4   -1    0    0    0  501 -0.00000000000E+00  0.00000000000E+00  0.17785331500E+03  0.17785331500E+03  0.00000000000E+00 0.  1.
          4   -1    0    0  501    0  0.00000000000E+00 -0.00000000000E+00 -0.18942766975E+03  0.18942766975E+03  0.00000000000E+00 0. -1.
         25    2    1    2    0    0 -0.43453853688E+02 -0.27333739110E+02 -0.14504403667E+03  0.19829231768E+03  0.12508676983E+03 0.  0.
         23    2    1    2    0    0  0.43453853688E+02  0.27333739110E+02  0.13346968192E+03  0.16898866706E+03  0.90042450597E+02 0.  0.
          5    1    3    3  502    0  0.40249220653E+02 -0.19978971487E+02 -0.24666957645E+02  0.51430441028E+02  0.41800000000E+01 0.  1.
         -5    1    3    3    0  502 -0.83703074341E+02 -0.73547676229E+01 -0.12037707902E+03  0.14686187666E+03  0.41800000000E+01 0.  1.
        -11    1    4    4    0    0  0.10263297654E+02  0.57690877045E+02  0.72371005188E+02  0.93118929143E+02  0.00000000000E+00 0.  1.
         11    1    4    4    0    0  0.33190556034E+02 -0.30357137935E+02  0.61098676729E+02  0.75869737916E+02  0.00000000000E+00 0. -1.
</event>
<event>
 8    1  0.7114239E-009  0.1195335E+03  0.7561462E-02  0.1243869E+00
         -1   -1    0    0    0  501 -0.00000000000E+00  0.00000000000E+00  0.15092740120E+02  0.15092740120E+02  0.00000000000E+00 0.  1.
          1   -1    0    0  501    0  0.00000000000E+00 -0.00000000000E+00 -0.12161774217E+04  0.12161774217E+04  0.00000000000E+00 0. -1.
         25    2    1    2    0    0 -0.53728876633E+02 -0.42813246755E+02 -0.83199941634E+03  0.84415000887E+03  0.12508574023E+03 0.  0.
         23    2    1    2    0    0  0.53728876633E+02  0.42813246755E+02 -0.36908526522E+03  0.38712015293E+03  0.94436822894E+02 0.  0.
          5    1    3    3  502    0 -0.83108379395E+02  0.49681485075E+01 -0.57924997876E+03  0.58521764799E+03  0.41800000000E+01 0. -1.
         -5    1    3    3    0  502  0.29379502762E+02 -0.47781395262E+02 -0.25274943758E+03  0.25893236089E+03  0.41800000000E+01 0. -1.
        -11    1    4    4    0    0 -0.79312916992E+01  0.36641835389E+02 -0.52409297481E+02  0.64438062906E+02  0.00000000000E+00 0.  1.
         11    1    4    4    0    0  0.61660168332E+02  0.61714113663E+01 -0.31667596774E+03  0.32268209003E+03  0.00000000000E+00 0. -1.
</event>
<event>
 8    1  0.7114239E-009  0.2912967E+03  0.7561462E-02  0.1089674E+00
         -2   -1    0    0    0  501 -0.00000000000E+00  0.00000000000E+00  0.11209115022E+03  0.11209115022E+03  0.00000000000E+00 0. -1.
          2   -1    0    0  501    0  0.00000000000E+00 -0.00000000000E+00 -0.86667947339E+03  0.86667947339E+03  0.00000000000E+00 0.  1.
         25    2    1    2    0    0  0.26396442308E+03 -0.63888352623E+02 -0.55198310429E+03  0.62776730602E+03  0.12508998696E+03 0.  0.
         23    2    1    2    0    0 -0.26396442308E+03  0.63888352623E+02 -0.20260521889E+03  0.35100331759E+03  0.91627048331E+02 0.  0.
          5    1    3    3  502    0  0.25360216982E+03 -0.22326760404E+02 -0.44931375763E+03  0.51644251371E+03  0.41800000000E+01 0.  1.
         -5    1    3    3    0  502  0.10362253251E+02 -0.41561592219E+02 -0.10266934666E+03  0.11132479231E+03  0.41800000000E+01 0.  1.
        -11    1    4    4    0    0 -0.94920696738E+02  0.66461754187E+02 -0.63930368043E+02  0.13234120823E+03  0.00000000000E+00 0.  1.
         11    1    4    4    0    0 -0.16904372634E+03 -0.25734015638E+01 -0.13867485084E+03  0.21866210935E+03  0.00000000000E+00 0. -1.
</event>
<event>
 8    1  0.7114239E-009  0.1203509E+03  0.7561462E-02  0.1242519E+00
          2   -1    0    0  501    0  0.00000000000E+00  0.00000000000E+00  0.26205399596E+03  0.26205399596E+03  0.00000000000E+00 0. -1.
         -2   -1    0    0    0  501 -0.00000000000E+00 -0.00000000000E+00 -0.81618512140E+02  0.81618512140E+02  0.00000000000E+00 0.  1.
         25    2    1    2    0    0  0.97135665654E+02 -0.11320015729E+02  0.10417271429E+03  0.18990272366E+03  0.12509040632E+03 0.  0.
         23    2    1    2    0    0 -0.97135665654E+02  0.11320015729E+02  0.76262769528E+02  0.15376978444E+03  0.90915654825E+02 0.  0.
          5    1    3    3  502    0  0.33947016240E+02 -0.41148130164E+02 -0.11471174489E+02  0.54723201403E+02  0.41800000000E+01 0. -1.
         -5    1    3    3    0  502  0.63188649414E+02  0.29828114435E+02  0.11564388878E+03  0.13517952225E+03  0.41800000000E+01 0. -1.
        -11    1    4    4    0    0 -0.62592359105E+02 -0.24698243658E+02  0.59568021383E+01  0.67552129129E+02  0.00000000000E+00 0.  1.
         11    1    4    4    0    0 -0.34543306549E+02  0.36018259387E+02  0.70305967390E+02  0.86217655310E+02  0.00000000000E+00 0. -1.
</event>
<event>
 8    1  0.7114239E-009  0.1200805E+03  0.7561462E-02  0.1242964E+00
         -2   -1    0    0    0  501 -0.00000000000E+00  0.00000000000E+00  0.39836024363E+03  0.39836024363E+03  0.00000000000E+00 0.  1.
          2   -1    0    0  501    0  0.00000000000E+00 -0.00000000000E+00 -0.64818604624E+02  0.64818604624E+02  0.00000000000E+00 0. -1.
         25    2    1    2    0    0 -0.86050802841E+02 -0.19128452940E+02  0.28952062571E+03  0.32747448334E+03  0.12508679444E+03 0.  0.
         23    2    1    2    0    0  0.86050802841E+02  0.19128452940E+02  0.44021013292E+02  0.13570436492E+03  0.93312307146E+02 0.  0.
          5    1    3    3  502    0 -0.36707304937E+02  0.43659952263E+02  0.53654215280E+02  0.78421074238E+02  0.41800000000E+01 0. -1.
         -5    1    3    3    0  502 -0.49343497904E+02 -0.62788405202E+02  0.23586641043E+03  0.24905340910E+03  0.41800000000E+01 0. -1.
        -11    1    4    4    0    0  0.92261514812E+02  0.11213692497E+02  0.64335341132E+02  0.11303526058E+03  0.00000000000E+00 0.  1.
         11    1    4    4    0    0 -0.62107119712E+01  0.79147604423E+01 -0.20314327840E+02  0.22669104341E+02  0.00000000000E+00 0. -1.
</event>
<event>
 8    1  0.7114239E-009  0.3691061E+03  0.7561462E-02  0.1055035E+00
         -1   -1    0    0    0  501 -0.00000000000E+00  0.00000000000E+00  0.12578037651E+04  0.12578037651E+04  0.00000000000E+00 0.  1.
          1   -1    0    0  501    0  0.00000000000E+00 -0.00000000000E+00 -0.11340302881E+03  0.11340302881E+03  0.00000000000E+00 0. -1.
         25    2    1    2    0    0 -0.35179782788E+03  0.74997628409E+02  0.53983413032E+03  0.66064735693E+03  0.12509071108E+03 0.  0.
         23    2    1    2    0    0  0.35179782788E+03 -0.74997628409E+02  0.60456660596E+03  0.71055943697E+03  0.10003787509E+03 0.  0.
          5    1    3    3  502    0 -0.78163875196E+02  0.68176211540E+02  0.11179239419E+03  0.15255359388E+03  0.41800000000E+01 0.  1.
         -5    1    3    3    0  502 -0.27363395268E+03  0.68214168686E+01  0.42804173613E+03  0.50809376306E+03  0.41800000000E+01 0.  1.
        -11    1    4    4    0    0  0.23769852695E+03 -0.63159487274E+02  0.49092474960E+03  0.54908726111E+03  0.00000000000E+00 0.  1.
         11    1    4    4    0    0  0.11409930093E+03 -0.11838141135E+02  0.11364185636E+03  0.16147217585E+03  0.00000000000E+00 0. -1.
</event>
<event>
 8    1  0.7114239E-009  0.2217920E+03  0.7561462E-02  0.1132554E+00
         -2   -1    0    0    0  501 -0.00000000000E+00  0.00000000000E+00  0.50259388700E+02  0.50259388700E+02  0.00000000000E+00 0.  1.
          2   -1    0    0  501    0  0.00000000000E+00 -0.00000000000E+00 -0.11524630231E+04  0.11524630231E+04  0.00000000000E+00 0. -1.
         25    2    1    2    0    0  0.47521500648E+02 -0.19500063767E+03 -0.75997141762E+03  0.79591918440E+03  0.12508897144E+03 0.  0.
         23    2    1    2    0    0 -0.47521500648E+02  0.19500063767E+03 -0.34223221681E+03  0.40680322743E+03  0.89902357657E+02 0.  0.
          5    1    3    3  502    0  0.78102139326E+02 -0.17122779792E+03 -0.69609371939E+03  0.72109835773E+03  0.41800000000E+01 0. -1.
         -5    1    3    3    0  502 -0.30580638678E+02 -0.23772839746E+02 -0.63877698227E+02  0.74820826661E+02  0.41800000000E+01 0. -1.
        -11    1    4    4    0    0 -0.43921487850E+01  0.16203498227E+03 -0.22195391033E+03  0.27484207240E+03  0.00000000000E+00 0.  1.
         11    1    4    4    0    0 -0.43129351863E+02  0.32965655398E+02 -0.12027830648E+03  0.13196115503E+03  0.00000000000E+00 0. -1.
</event>
<event>
 8    1  0.7114239E-009  0.1393462E+03  0.7561462E-02  0.1214211E+00
         -1   -1    0    0    0  501 -0.00000000000E+00  0.00000000000E+00  0.61427229676E+02  0.61427229676E+02  0.00000000000E+00 0.  1.
          1   -1    0    0  501    0  0.00000000000E+00 -0.00000000000E+00 -0.47038278726E+03  0.47038278726E+03  0.00000000000E+00 0. -1.
         25    2    1    2    0    0 -0.11970964018E+03 -0.35065039503E+02 -0.28129977559E+03  0.33216618986E+03  0.12507941074E+03 0.  0.
         23    2    1    2    0    0  0.11970964018E+03  0.35065039503E+02 -0.12765578199E+03  0.19964382707E+03  0.89452244605E+02 0.  0.
          5    1    3    3  502    0 -0.12697767966E+03 -0.20549387134E+02 -0.14113689851E+03  0.19100446320E+03  0.41800000000E+01 0.  1.
         -5    1    3    3    0  502  0.72680394757E+01 -0.14515652370E+02 -0.14016287708E+03  0.14116172666E+03  0.41800000000E+01 0.  1.
        -11    1    4    4    0    0  0.11250296145E+03  0.44820956330E+02 -0.13807161565E+03  0.18365621555E+03  0.00000000000E+00 0. -1.
         11    1    4    4    0    0  0.72066787293E+01 -0.97559168268E+01  0.10415833658E+02  0.15987611524E+02  0.00000000000E+00 0.  1.
</event>
<event>
 8    1  0.7114239E-009  0.1260205E+03  0.7561462E-02  0.1233483E+00
          2   -1    0    0  501    0  0.00000000000E+00  0.00000000000E+00  0.60700380193E+03  0.60700380193E+03  0.00000000000E+00 0. -1.
         -2   -1    0    0    0  501 -0.00000000000E+00 -0.00000000000E+00 -0.36802239532E+02  0.36802239532E+02  0.00000000000E+00 0.  1.
         25    2    1    2    0    0  0.10069326962E+02  0.64368839322E+02  0.13710281856E+03  0.19669330491E+03  0.12508530897E+03 0.  0.
         23    2    1    2    0    0 -0.10069326962E+02 -0.64368839322E+02  0.43309874384E+03  0.44711273655E+03  0.89947420466E+02 0.  0.
          5    1    3    3  502    0 -0.24951862389E+02  0.92497657912E+02  0.95041378709E+02  0.13501388159E+03  0.41800000000E+01 0.  1.
         -5    1    3    3    0  502  0.35021189350E+02 -0.28128818590E+02  0.42061439848E+02  0.61679423318E+02  0.41800000000E+01 0.  1.
        -11    1    4    4    0    0  0.15989409633E+02 -0.79370121414E+02  0.32048454500E+03  0.33055350699E+03  0.00000000000E+00 0.  1.
         11    1    4    4    0    0 -0.26058736595E+02  0.15001282092E+02  0.11261419884E+03  0.11655922957E+03  0.00000000000E+00 0. -1.
</event>
<event>
 8    1  0.7114239E-009  0.1010351E+03  0.7561462E-02  0.1278134E+00
         -2   -1    0    0    0  501 -0.00000000000E+00  0.00000000000E+00  0.10261800703E+03  0.10261800703E+03  0.00000000000E+00 0.  1.
          2   -1    0    0  501    0  0.00000000000E+00 -0.00000000000E+00 -0.12068344875E+03  0.12068344875E+03  0.00000000000E+00 0. -1.
         25    2    1    2    0    0  0.98477422130E+01 -0.26147628740E+02 -0.11300925601E+02  0.12868159382E+03  0.12510221882E+03 0.  0.
         23    2    1    2    0    0 -0.98477422130E+01  0.26147628740E+02 -0.67645161185E+01  0.94619861967E+02  0.90147008186E+02 0.  0.
          5    1    3    3  502    0 -0.52672479042E+02 -0.96920468096E+01 -0.29636369398E+02  0.61352364346E+02  0.41800000000E+01 0.  1.
         -5    1    3    3    0  502  0.62520221255E+02 -0.16455581931E+02  0.18335443797E+02  0.67329229475E+02  0.41800000000E+01 0.  1.
        -11    1    4    4    0    0 -0.34166345390E+02 -0.13759585056E+02  0.18797882535E+02  0.41352457315E+02  0.00000000000E+00 0.  1.
         11    1    4    4    0    0  0.24318603177E+02  0.39907213796E+02 -0.25562398653E+02  0.53267404652E+02  0.00000000000E+00 0. -1.
</event>
<event>
 8    1  0.7114239E-009  0.1008299E+03  0.7561462E-02  0.1278560E+00
          1   -1    0    0  501    0  0.00000000000E+00  0.00000000000E+00  0.33869579507E+02  0.33869579507E+02  0.00000000000E+00 0. -1.
         -1   -1    0    0    0  501 -0.00000000000E+00 -0.00000000000E+00 -0.46227354657E+03  0.46227354657E+03  0.00000000000E+00 0.  1.
         25    2    1    2    0    0  0.55341138168E+02  0.27693988620E+02 -0.23294502501E+03  0.27155844339E+03  0.12510397643E+03 0.  0.
         23    2    1    2    0    0 -0.55341138168E+02 -0.27693988620E+02 -0.19545894205E+03  0.22458468269E+03  0.91675967905E+02 0.  0.
          5    1    3    3  502    0 -0.56989708836E+01 -0.43226995472E+02 -0.53537623139E+02  0.69172255262E+02  0.41800000000E+01 0.  1.
         -5    1    3    3    0  502  0.61040109051E+02  0.70920984092E+02 -0.17940740187E+03  0.20238618812E+03  0.41800000000E+01 0.  1.
        -11    1    4    4    0    0 -0.43269071360E+02 -0.13006519104E+02 -0.19999827830E+03  0.20503827301E+03  0.00000000000E+00 0.  1.
         11    1    4    4    0    0 -0.12072066808E+02 -0.14687469516E+02  0.45393362484E+01  0.19546409680E+02  0.00000000000E+00 0. -1.
</event>
<event>
 8    1  0.7114239E-009  0.1797861E+03  0.7561462E-02  0.1168010E+00
         -2   -1    0    0    0  501 -0.00000000000E+00  0.00000000000E+00  0.14877074848E+03  0.14877074848E+03  0.00000000000E+00 0.  1.
          2   -1    0    0  501    0  0.00000000000E+00 -0.00000000000E+00 -0.33199991061E+03  0.33199991061E+03  0.00000000000E+00 0. -1.
         25    2    1    2    0    0 -0.86696246324E+02  0.14341550598E+03  0.11927372150E+02  0.20946084259E+03  0.12508931165E+03 0.  0.
         23    2    1    2    0    0  0.86696246324E+02 -0.14341550598E+03 -0.19515653428E+03  0.27130981650E+03  0.86247882138E+02 0.  0.
          5    1    3    3  502    0  0.16022597925E+01  0.20999385761E+02 -0.43582662202E+02  0.48584588950E+02  0.41800000000E+01 0.  1.
         -5    1    3    3    0  502 -0.88298506116E+02  0.12241612021E+03  0.55510034352E+02  0.16087625364E+03  0.41800000000E+01 0.  1.
        -11    1    4    4    0    0  0.56102365578E+02 -0.19385269188E+02 -0.47211826773E+02  0.75843395706E+02  0.00000000000E+00 0.  1.
         11    1    4    4    0    0  0.30593880746E+02 -0.12403023679E+03 -0.14794470751E+03  0.19546642079E+03  0.00000000000E+00 0. -1.
</event>
<event>
 8    1  0.7114239E-009  0.1108263E+03  0.7561462E-02  0.1259047E+00
         -2   -1    0    0    0  501 -0.00000000000E+00  0.00000000000E+00  0.82322546392E+02  0.82322546392E+02  0.00000000000E+00 0.  1.
          2   -1    0    0  501    0  0.00000000000E+00 -0.00000000000E+00 -0.20227576566E+03  0.20227576566E+03  0.00000000000E+00 0. -1.
         25    2    1    2    0    0 -0.39099967851E+01  0.68284142563E+02 -0.75281985428E+02  0.16122397384E+03  0.12509108765E+03 0.  0.
         23    2    1    2    0    0  0.39099967851E+01 -0.68284142563E+02 -0.44671233837E+02  0.12337433821E+03  0.92453750577E+02 0.  0.
          5    1    3    3  502    0 -0.25885896316E+02  0.94004234318E+02 -0.25463598809E+02  0.10086001667E+03  0.41800000000E+01 0. -1.
         -5    1    3    3    0  502  0.21975899531E+02 -0.25720091755E+02 -0.49818386619E+02  0.60363957172E+02  0.41800000000E+01 0. -1.
        -11    1    4    4    0    0  0.31153992967E+02 -0.32817252426E+02 -0.60836450025E+02  0.75819634569E+02  0.00000000000E+00 0. -1.
         11    1    4    4    0    0 -0.27243996182E+02 -0.35466890137E+02  0.16165216188E+02  0.47554703641E+02  0.00000000000E+00 0.  1.
</event>
<event>
 8    1  0.7114239E-009  0.2162876E+03  0.7561462E-02  0.1136681E+00
         -2   -1    0    0    0  501 -0.00000000000E+00  0.00000000000E+00  0.14111789987E+03  0.14111789987E+03  0.00000000000E+00 0.  1.
          2   -1    0    0  501    0  0.00000000000E+00 -0.00000000000E+00 -0.33742271893E+03  0.33742271893E+03  0.00000000000E+00 0. -1.
         25    2    1    2    0    0  0.17312604826E+03 -0.77238125841E+02 -0.90952316470E+02  0.24465877433E+03  0.12508890964E+03 0.  0.
         23    2    1    2    0    0 -0.17312604826E+03  0.77238125841E+02 -0.10535250259E+03  0.23388184448E+03  0.87539766440E+02 0.  0.
          5    1    3    3  502    0  0.18124104029E+03 -0.96311933722E+02 -0.87828399277E+02  0.22328368365E+03  0.41800000000E+01 0. -1.
         -5    1    3    3    0  502 -0.81149920371E+01  0.19073807882E+02 -0.31239171937E+01  0.21375090678E+02  0.41800000000E+01 0. -1.
        -11    1    4    4    0    0 -0.17472573418E+03  0.54039884328E+02 -0.80429668893E+02  0.19979570296E+03  0.00000000000E+00 0.  1.
         11    1    4    4    0    0  0.15996859250E+01  0.23198241512E+02 -0.24922833699E+02  0.34086141522E+02  0.00000000000E+00 0. -1.
</event>
<event>
 8    1  0.7114239E-009  0.1423171E+03  0.7561462E-02  0.1210245E+00
          2   -1    0    0  501    0  0.00000000000E+00  0.00000000000E+00  0.45848062418E+02  0.45848062418E+02  0.00000000000E+00 0. -1.
         -2   -1    0    0    0  501 -0.00000000000E+00 -0.00000000000E+00 -0.46693931790E+03  0.46693931790E+03  0.00000000000E+00 0.  1.
         25    2    1    2    0    0  0.26111623210E+02 -0.92316017670E+02 -0.24112088156E+03  0.28808046987E+03  0.12508802345E+03 0.  0.
         23    2    1    2    0    0 -0.26111623210E+02  0.92316017670E+02 -0.17997037392E+03  0.22470691045E+03  0.94338730798E+02 0.  0.
          5    1    3    3  502    0  0.73917705307E+02 -0.50074186796E+02 -0.10639647612E+03  0.13895658988E+03  0.41800000000E+01 0. -1.
         -5    1    3    3    0  502 -0.47806082097E+02 -0.42241830874E+02 -0.13472440545E+03  0.14912387999E+03  0.41800000000E+01 0. -1.
        -11    1    4    4    0    0  0.32552929755E+02  0.20007782719E+02 -0.76480323042E+02  0.85494119199E+02  0.00000000000E+00 0. -1.
         11    1    4    4    0    0 -0.58664552965E+02  0.72308234951E+02 -0.10349005088E+03  0.13921279125E+03  0.00000000000E+00 0.  1.
</event>
<event>
 8    1  0.7114239E-009  0.1159597E+03  0.7561462E-02  0.1249915E+00
         -3   -1    0    0    0  501 -0.00000000000E+00  0.00000000000E+00  0.98409883375E+03  0.98409883375E+03  0.00000000000E+00 0.  1.
          3   -1    0    0  501    0  0.00000000000E+00 -0.00000000000E+00 -0.53092853906E+02  0.53092853906E+02  0.00000000000E+00 0. -1.
         25    2    1    2    0    0  0.10282743025E+03 -0.44305676811E+02  0.85672059408E+03  0.87301409716E+03  0.12508782559E+03 0.  0.
         23    2    1    2    0    0 -0.10282743025E+03  0.44305676811E+02  0.74285385757E+02  0.16417759049E+03  0.94337104436E+02 0.  0.
          5    1    3    3  502    0  0.70260425342E+02 -0.21675885253E+02  0.80162808082E+03  0.80500398989E+03  0.41800000000E+01 0.  1.
         -5    1    3    3    0  502  0.32567004903E+02 -0.22629791557E+02  0.55092513262E+02  0.68010107276E+02  0.41800000000E+01 0.  1.
        -11    1    4    4    0    0 -0.19254987240E+02 -0.68176173929E+01  0.62197301109E+02  0.65465553582E+02  0.00000000000E+00 0.  1.
         11    1    4    4    0    0 -0.83572443005E+02  0.51123294204E+02  0.12088084648E+02  0.98712036908E+02  0.00000000000E+00 0. -1.
</event>
<event>
 8    1  0.7114239E-009  0.1047058E+03  0.7561462E-02  0.1270700E+00
          3   -1    0    0  501    0  0.00000000000E+00  0.00000000000E+00  0.39385218093E+02  0.39385218093E+02  0.00000000000E+00 0. -1.
         -3   -1    0    0    0  501 -0.00000000000E+00 -0.00000000000E+00 -0.29278693380E+03  0.29278693380E+03  0.00000000000E+00 0.  1.
         25    2    1    2    0    0 -0.33936345341E+01  0.83435243749E+01 -0.15820854248E+03  0.20188984798E+03  0.12509371146E+03 0.  0.
         23    2    1    2    0    0  0.33936345341E+01 -0.83435243749E+01 -0.95193173230E+02  0.13028230392E+03  0.88490718896E+02 0.  0.
          5    1    3    3  502    0 -0.51892513133E+01  0.64464359956E+02 -0.58123164989E+02  0.87053757771E+02  0.41800000000E+01 0.  1.
         -5    1    3    3    0  502  0.17956167793E+01 -0.56120835581E+02 -0.10008537749E+03  0.11483609021E+03  0.41800000000E+01 0.  1.
        -11    1    4    4    0    0 -0.30979702525E+02 -0.33556198452E+02 -0.41361237380E+02  0.61615845208E+02  0.00000000000E+00 0. -1.
         11    1    4    4    0    0  0.34373337060E+02  0.25212674077E+02 -0.53831935850E+02  0.68666458712E+02  0.00000000000E+00 0.  1.
</event>
<event>
 8    1  0.7114239E-009  0.9659497E+02  0.7561462E-02  0.1287624E+00
         -4   -1    0    0    0  501 -0.00000000000E+00  0.00000000000E+00  0.57071477062E+02  0.57071477062E+02  0.00000000000E+00 0.  1.
          4   -1    0    0  501    0  0.00000000000E+00 -0.00000000000E+00 -0.26915921059E+03  0.26915921059E+03  0.00000000000E+00 0. -1.
         25    2    1    2    0    0  0.58059620533E+02 -0.22917335630E+01 -0.99174535519E+02  0.16987971021E+03  0.12508939150E+03 0.  0.
         23    2    1    2    0    0 -0.58059620533E+02  0.22917335630E+01 -0.11291319801E+03  0.15635097745E+03  0.91214397351E+02 0.  0.
          5    1    3    3  502    0 -0.20418282502E+02  0.20728387181E+02  0.12042627200E+02  0.31765855338E+02  0.41800000000E+01 0. -1.
         -5    1    3    3    0  502  0.78477903035E+02 -0.23020120744E+02 -0.11121716272E+03  0.13811385487E+03  0.41800000000E+01 0. -1.
        -11    1    4    4    0    0 -0.26740989650E+02  0.29928735566E+02 -0.10685628355E+03  0.11414497393E+03  0.00000000000E+00 0. -1.
         11    1    4    4    0    0 -0.31318630883E+02 -0.27637002003E+02 -0.60569144660E+01  0.42206003518E+02  0.00000000000E+00 0.  1.
</event>
<event>
 8    1  0.7114239E-009  0.9648323E+02  0.7561462E-02  0.1287870E+00
          1   -1    0    0  501    0  0.00000000000E+00  0.00000000000E+00  0.23089742841E+03  0.23089742841E+03  0.00000000000E+00 0. -1.
         -1   -1    0    0    0  501 -0.00000000000E+00 -0.00000000000E+00 -0.84328124165E+02  0.84328124165E+02  0.00000000000E+00 0.  1.
         25    2    1    2    0    0 -0.32689477081E+02 -0.76737028088E+02  0.39741609645E+02  0.15550837665E+03  0.12508511614E+03 0.  0.
         23    2    1    2    0    0  0.32689477081E+02  0.76737028088E+02  0.10682769460E+03  0.15971717592E+03  0.84499979642E+02 0.  0.
          5    1    3    3  502    0 -0.36481336834E+02 -0.54306899926E+02 -0.37055354738E+02  0.75304043925E+02  0.41800000000E+01 0. -1.
         -5    1    3    3    0  502  0.37918597535E+01 -0.22430128163E+02  0.76796964383E+02  0.80204332728E+02  0.41800000000E+01 0. -1.
        -11    1    4    4    0    0  0.22850988560E+00 -0.10860299458E+02 -0.66476293620E+01  0.12735356187E+02  0.00000000000E+00 0.  1.
         11    1    4    4    0    0  0.32460967195E+02  0.87597327546E+02  0.11347532396E+03  0.14698181974E+03  0.00000000000E+00 0. -1.
</event>
<event>
 8    1  0.7114239E-009  0.1022179E+03  0.7561462E-02  0.1275700E+00
          2   -1    0    0  501    0  0.00000000000E+00  0.00000000000E+00  0.24267779299E+03  0.24267779299E+03  0.00000000000E+00 0.  1.
         -2   -1    0    0    0  501 -0.00000000000E+00 -0.00000000000E+00 -0.57227061092E+02  0.57227061092E+02  0.00000000000E+00 0. -1.
         25    2    1    2    0    0 -0.28608302816E+02  0.32798236031E+02  0.10353198446E+03  0.16811041041E+03  0.12509228195E+03 0.  0.
         23    2    1    2    0    0  0.28608302816E+02 -0.32798236031E+02  0.81918747433E+02  0.13179444367E+03  0.93621231165E+02 0.  0.
          5    1    3    3  502    0 -0.36441256099E+01 -0.33979696119E+02 -0.83054432643E+01  0.35416834805E+02  0.41800000000E+01 0.  1.
         -5    1    3    3    0  502 -0.24964177206E+02  0.66777932150E+02  0.11183742773E+03  0.13269357560E+03  0.41800000000E+01 0.  1.
        -11    1    4    4    0    0 -0.26865430113E+02 -0.33716855098E+02  0.55686513272E+02  0.70424182020E+02  0.00000000000E+00 0.  1.
         11    1    4    4    0    0  0.55473732929E+02  0.91861906673E+00  0.26232234161E+02  0.61370261651E+02  0.00000000000E+00 0. -1.
</event>
<event>
 8    1  0.7114239E-009  0.1858582E+03  0.7561462E-02  0.1162251E+00
         -1   -1    0    0    0  501 -0.00000000000E+00  0.00000000000E+00  0.36047550816E+03  0.36047550816E+03  0.00000000000E+00 0.  1.
          1   -1    0    0  501    0  0.00000000000E+00 -0.00000000000E+00 -0.14615626044E+03  0.14615626044E+03  0.00000000000E+00 0. -1.
         25    2    1    2    0    0 -0.11313810629E+03 -0.13459234213E+03  0.22128202180E+03  0.30907617488E+03  0.12508804519E+03 0.  0.
         23    2    1    2    0    0  0.11313810629E+03  0.13459234213E+03 -0.69627740803E+01  0.19755559373E+03  0.89802019664E+02 0.  0.
          5    1    3    3  502    0 -0.10357277009E+03 -0.70183372359E+02  0.20757861936E+03  0.24240334172E+03  0.41800000000E+01 0.  1.
         -5    1    3    3    0  502 -0.95653361957E+01 -0.64408969768E+02  0.13703402447E+02  0.66672833162E+02  0.41800000000E+01 0.  1.
        -11    1    4    4    0    0  0.21661549379E+02  0.42956658089E+01  0.26888610646E+02  0.34794724438E+02  0.00000000000E+00 0.  1.
         11    1    4    4    0    0  0.91476556911E+02  0.13029667632E+03 -0.33851384726E+02  0.16276086929E+03  0.00000000000E+00 0. -1.
</event>
<event>
 8    1  0.7114239E-009  0.1311315E+03  0.7561462E-02  0.1225786E+00
          2   -1    0    0  501    0  0.00000000000E+00  0.00000000000E+00  0.21459441461E+03  0.21459441461E+03  0.00000000000E+00 0. -1.
         -2   -1    0    0    0  501 -0.00000000000E+00 -0.00000000000E+00 -0.11906068311E+03  0.11906068311E+03  0.00000000000E+00 0.  1.
         25    2    1    2    0    0 -0.99498804560E+02  0.26129100455E+02  0.10613729711E+03  0.19363669349E+03  0.12508917310E+03 0.  0.
         23    2    1    2    0    0  0.99498804560E+02 -0.26129100455E+02 -0.10603565609E+02  0.14001840423E+03  0.94392668781E+02 0.  0.
          5    1    3    3  502    0 -0.80901207217E+02 -0.37792644438E+02  0.85792799852E+02  0.12389982328E+03  0.41800000000E+01 0. -1.
         -5    1    3    3    0  502 -0.18597597343E+02  0.63921744893E+02  0.20344497258E+02  0.69736870203E+02  0.41800000000E+01 0. -1.
        -11    1    4    4    0    0  0.24911348295E+02 -0.18825134997E+02 -0.47217956899E+02  0.56608271792E+02  0.00000000000E+00 0.  1.
         11    1    4    4    0    0  0.74587456265E+02 -0.73039654576E+01  0.36614391290E+02  0.83410132436E+02  0.00000000000E+00 0. -1.
</event>
<event>
 8    1  0.7114239E-009  0.9209430E+02  0.7561462E-02  0.1297858E+00
          2   -1    0    0  501    0  0.00000000000E+00  0.00000000000E+00  0.18500995353E+04  0.18500995353E+04  0.00000000000E+00 0.  1.
         -2   -1    0    0    0  501 -0.00000000000E+00 -0.00000000000E+00 -0.87514462632E+01  0.87514462632E+01  0.00000000000E+00 0. -1.
         25    2    1    2    0    0  0.12043656066E+02 -0.86870006609E+01  0.14755808511E+04  0.14809477134E+04  0.12508704206E+03 0.  0.
         23    2    1    2    0    0 -0.12043656066E+02  0.86870006609E+01  0.36576723793E+03  0.37790326814E+03  0.93833331502E+02 0.  0.
          5    1    3    3  502    0 -0.30925736674E+01  0.40945640992E+02  0.11864568455E+04  0.11871745568E+04  0.41800000000E+01 0. -1.
         -5    1    3    3    0  502  0.15136229733E+02 -0.49632641652E+02  0.28912400559E+03  0.29377315667E+03  0.41800000000E+01 0. -1.
        -11    1    4    4    0    0 -0.48497346598E+02  0.20333875148E+02  0.15467543580E+03  0.16337058960E+03  0.00000000000E+00 0. -1.
         11    1    4    4    0    0  0.36453690532E+02 -0.11646874488E+02  0.21109180213E+03  0.21453267855E+03  0.00000000000E+00 0.  1.
</event>
<event>
 8    1  0.7114239E-009  0.1353748E+03  0.7561462E-02  0.1219692E+00
         -1   -1    0    0    0  501 -0.00000000000E+00  0.00000000000E+00  0.20863976596E+03  0.20863976596E+03  0.00000000000E+00 0.  1.
          1   -1    0    0  501    0  0.00000000000E+00 -0.00000000000E+00 -0.12701791254E+03  0.12701791254E+03  0.00000000000E+00 0. -1.
         25    2    1    2    0    0 -0.23678778353E+02  0.11685682972E+03  0.36399537073E+02  0.17660231183E+03  0.12508895654E+03 0.  0.
         23    2    1    2    0    0  0.23678778353E+02 -0.11685682972E+03  0.45222316347E+02  0.15905536666E+03  0.95064970262E+02 0.  0.
          5    1    3    3  502    0 -0.11230437440E+02  0.37598450933E+02  0.77047820777E+02  0.86565612828E+02  0.41800000000E+01 0.  1.
         -5    1    3    3    0  502 -0.12448340913E+02  0.79258378786E+02 -0.40648283705E+02  0.90036699003E+02  0.41800000000E+01 0.  1.
        -11    1    4    4    0    0 -0.16286473985E+02 -0.10901081924E+03  0.42853757558E+02  0.11825841401E+03  0.00000000000E+00 0. -1.
         11    1    4    4    0    0  0.39965252338E+02 -0.78460104751E+01  0.23685587890E+01  0.40796952650E+02  0.00000000000E+00 0.  1.
</event>
<event>
 8    1  0.7114239E-009  0.1788029E+03  0.7561462E-02  0.1168967E+00
         -1   -1    0    0    0  501 -0.00000000000E+00  0.00000000000E+00  0.38563677602E+02  0.38563677602E+02  0.00000000000E+00 0.  1.
          1   -1    0    0  501    0  0.00000000000E+00 -0.00000000000E+00 -0.10746891162E+04  0.10746891162E+04  0.00000000000E+00 0. -1.
         25    2    1    2    0    0  0.13053339809E+03  0.74054323692E+02 -0.78688076437E+03  0.81077222096E+03  0.12508895259E+03 0.  0.
         23    2    1    2    0    0 -0.13053339809E+03 -0.74054323692E+02 -0.24924467425E+03  0.30248057287E+03  0.82756138416E+02 0.  0.
          5    1    3    3  502    0  0.47946661668E+02  0.90094035728E+02 -0.54892369806E+03  0.55834623338E+03  0.41800000000E+01 0. -1.
         -5    1    3    3    0  502  0.82586736426E+02 -0.16039712036E+02 -0.23795706632E+03  0.25242598758E+03  0.41800000000E+01 0. -1.
        -11    1    4    4    0    0 -0.38300719715E+02  0.16745294520E+02 -0.55474125569E+02  0.69460266533E+02  0.00000000000E+00 0.  1.
         11    1    4    4    0    0 -0.92232678379E+02 -0.90799618212E+02 -0.19377054868E+03  0.23302030633E+03  0.00000000000E+00 0. -1.
</event>
<event>
 8    1  0.7114239E-009  0.3237121E+03  0.7561462E-02  0.1073953E+00
         -2   -1    0    0    0  501 -0.00000000000E+00  0.00000000000E+00  0.99512269763E+02  0.99512269763E+02  0.00000000000E+00 0.  1.
          2   -1    0    0  501    0  0.00000000000E+00 -0.00000000000E+00 -0.11237169498E+04  0.11237169498E+04  0.00000000000E+00 0. -1.
         25    2    1    2    0    0  0.19025515668E+03 -0.25148105482E+03 -0.55175463054E+03  0.64770431523E+03  0.12509181453E+03 0.  0.
         23    2    1    2    0    0 -0.19025515668E+03  0.25148105482E+03 -0.47245004951E+03  0.57552490435E+03  0.92628940797E+02 0.  0.
          5    1    3    3  502    0 -0.98183162644E+01 -0.37461722975E+02 -0.11797441684E+03  0.12423854254E+03  0.41800000000E+01 0. -1.
         -5    1    3    3    0  502  0.20007347295E+03 -0.21401933184E+03 -0.43378021370E+03  0.52346577269E+03  0.41800000000E+01 0. -1.
        -11    1    4    4    0    0 -0.12930853082E+03  0.16387685478E+03 -0.38334555355E+03  0.43649757514E+03  0.00000000000E+00 0.  1.
         11    1    4    4    0    0 -0.60946625860E+02  0.87604200036E+02 -0.89104495953E+02  0.13902732921E+03  0.00000000000E+00 0. -1.
</event>
<event>
 8    1  0.7114239E-009  0.1002682E+03  0.7561462E-02  0.1279733E+00
          2   -1    0    0  501    0  0.00000000000E+00  0.00000000000E+00  0.14918027170E+03  0.14918027170E+03  0.00000000000E+00 0. -1.
         -2   -1    0    0    0  501 -0.00000000000E+00 -0.00000000000E+00 -0.87283363903E+02  0.87283363903E+02  0.00000000000E+00 0.  1.
         25    2    1    2    0    0 -0.37729931368E+01 -0.27986655319E+02  0.56987816429E+02  0.14033449275E+03  0.12509464529E+03 0.  0.
         23    2    1    2    0    0  0.37729931368E+01  0.27986655319E+02  0.49090913651E+01  0.96129142849E+02  0.91756332608E+02 0.  0.
          5    1    3    3  502    0  0.20153207650E+02  0.41090122543E+02  0.48181405815E+02  0.66584309079E+02  0.41800000000E+01 0. -1.
         -5    1    3    3    0  502 -0.23926200786E+02 -0.69076777862E+02  0.88064106137E+01  0.73750183673E+02  0.41800000000E+01 0. -1.
        -11    1    4    4    0    0  0.38607147251E+02  0.34748483666E+01 -0.23125348175E+02  0.45137214338E+02  0.00000000000E+00 0.  1.
         11    1    4    4    0    0 -0.34834154114E+02  0.24511806953E+02  0.28034439540E+02  0.50991928511E+02  0.00000000000E+00 0. -1.
</event>
<event>
 8    1  0.7114239E-009  0.1061759E+03  0.7561462E-02  0.1267820E+00
         -2   -1    0    0    0  501 -0.00000000000E+00  0.00000000000E+00  0.32198883704E+02  0.32198883704E+02  0.00000000000E+00 0.  1.
          2   -1    0    0  501    0  0.00000000000E+00 -0.00000000000E+00 -0.45384149988E+03  0.45384149988E+03  0.00000000000E+00 0. -1.
         25    2    1    2    0    0 -0.35683507498E+02  0.28325331770E+02 -0.18054765867E+03  0.22432277778E+03  0.12509042510E+03 0.  0.
         23    2    1    2    0    0  0.35683507498E+02 -0.28325331770E+02 -0.24109495751E+03  0.26171760581E+03  0.91069695979E+02 0.  0.
          5    1    3    3  502    0 -0.43941095474E+02  0.66676901177E+02 -0.67685383113E+02  0.10476360298E+03  0.41800000000E+01 0.  1.
         -5    1    3    3    0  502  0.82575879763E+01 -0.38351569407E+02 -0.11286227556E+03  0.11955917480E+03  0.41800000000E+01 0.  1.
        -11    1    4    4    0    0  0.35076522667E+02  0.22781780296E+02 -0.57254199701E+02  0.70904268836E+02  0.00000000000E+00 0.  1.
         11    1    4    4    0    0  0.60698483075E+00 -0.51107112065E+02 -0.18384075781E+03  0.19081333697E+03  0.00000000000E+00 0. -1.
</event>
<event>
 8    1  0.7114239E-009  0.1772371E+03  0.7561462E-02  0.1170504E+00
          1   -1    0    0  501    0  0.00000000000E+00  0.00000000000E+00  0.11550917256E+04  0.11550917256E+04  0.00000000000E+00 0. -1.
         -1   -1    0    0    0  501 -0.00000000000E+00 -0.00000000000E+00 -0.31126961012E+02  0.31126961012E+02  0.00000000000E+00 0.  1.
         25    2    1    2    0    0 -0.88488390440E+02  0.11019134145E+03  0.38877135796E+03  0.43216044555E+03  0.12508858843E+03 0.  0.
         23    2    1    2    0    0  0.88488390440E+02 -0.11019134145E+03  0.73519340662E+03  0.75405824105E+03  0.90123020313E+02 0.  0.
          5    1    3    3  502    0  0.11704776634E+02  0.83465701972E+02  0.19108411835E+03  0.20888785960E+03  0.41800000000E+01 0. -1.
         -5    1    3    3    0  502 -0.10019316707E+03  0.26725639475E+02  0.19768723962E+03  0.22327258596E+03  0.41800000000E+01 0. -1.
        -11    1    4    4    0    0  0.91561888827E+02 -0.46776659066E+02  0.40750633400E+03  0.42027734601E+03  0.00000000000E+00 0.  1.
         11    1    4    4    0    0 -0.30734983866E+01 -0.63414682382E+02  0.32768707262E+03  0.33378089504E+03  0.00000000000E+00 0. -1.
</event>
<event>
 8    1  0.7114239E-009  0.1093355E+03  0.7561462E-02  0.1261805E+00
         -2   -1    0    0    0  501 -0.00000000000E+00  0.00000000000E+00  0.11030615909E+03  0.11030615909E+03  0.00000000000E+00 0.  1.
          2   -1    0    0  501    0  0.00000000000E+00 -0.00000000000E+00 -0.14189377800E+03  0.14189377800E+03  0.00000000000E+00 0. -1.
         25    2    1    2    0    0 -0.17293523218E+02  0.33422896510E+02 -0.68417919978E+02  0.14745844498E+03  0.12508727059E+03 0.  0.
         23    2    1    2    0    0  0.17293523218E+02 -0.33422896510E+02  0.36830301071E+02  0.10474149212E+03  0.90543653217E+02 0.  0.
          5    1    3    3  502    0  0.41881559568E+02  0.50588036290E+02 -0.51106255486E+02  0.83321883064E+02  0.41800000000E+01 0. -1.
         -5    1    3    3    0  502 -0.59175082786E+02 -0.17165139780E+02 -0.17311664492E+02  0.64136561912E+02  0.41800000000E+01 0. -1.
        -11    1    4    4    0    0  0.22248801900E+02  0.24429652340E+02 -0.46699506394E+01  0.33371028429E+02  0.00000000000E+00 0.  1.
         11    1    4    4    0    0 -0.49552786818E+01 -0.57852548850E+02  0.41500251710E+02  0.71370463690E+02  0.00000000000E+00 0. -1.
</event>
<event>
 8    1  0.7114239E-009  0.2003475E+03  0.7561462E-02  0.1149446E+00
         -1   -1    0    0    0  501 -0.00000000000E+00  0.00000000000E+00  0.46736318332E+02  0.46736318332E+02  0.00000000000E+00 0.  1.
          1   -1    0    0  501    0  0.00000000000E+00 -0.00000000000E+00 -0.86704560079E+03  0.86704560079E+03  0.00000000000E+00 0. -1.
         25    2    1    2    0    0  0.10947634487E+03 -0.13000486135E+03 -0.45802246123E+03  0.50430003313E+03  0.12509042475E+03 0.  0.
         23    2    1    2    0    0 -0.10947634487E+03  0.13000486135E+03 -0.36228682123E+03  0.40948188599E+03  0.86817855661E+02 0.  0.
          5    1    3    3  502    0  0.12498846832E+03 -0.59084526280E+02 -0.30049746833E+03  0.33080099657E+03  0.41800000000E+01 0. -1.
         -5    1    3    3    0  502 -0.15512123449E+02 -0.70920335066E+02 -0.15752499290E+03  0.17349903656E+03  0.41800000000E+01 0. -1.
        -11    1    4    4    0    0 -0.12341832441E+03  0.12222761647E+03 -0.31710007386E+03  0.36155792049E+03  0.00000000000E+00 0. -1.
         11    1    4    4    0    0  0.13941979546E+02  0.77772448763E+01 -0.45186747368E+02  0.47923965500E+02  0.00000000000E+00 0.  1.
</event>
<event>
 8    1  0.7114239E-009  0.1527969E+03  0.7561462E-02  0.1197078E+00
          2   -1    0    0  501    0  0.00000000000E+00  0.00000000000E+00  0.79184803856E+03  0.79184803856E+03  0.00000000000E+00 0. -1.
         -2   -1    0    0    0  501 -0.00000000000E+00 -0.00000000000E+00 -0.33797500621E+02  0.33797500621E+02  0.00000000000E+00 0.  1.
         25    2    1    2    0    0  0.11765707567E+03  0.21145684191E+02  0.40914386536E+03  0.44422566583E+03  0.12508961668E+03 0.  0.
         23    2    1    2    0    0 -0.11765707567E+03 -0.21145684191E+02  0.34890667258E+03  0.38141987336E+03  0.97236444846E+02 0.  0.
          5    1    3    3  502    0  0.10873026063E+03 -0.32486022425E+02  0.32189672772E+03  0.34133940140E+03  0.41800000000E+01 0.  1.
         -5    1    3    3    0  502  0.89268150404E+01  0.53631706616E+02  0.87247137641E+02  0.10288626443E+03  0.41800000000E+01 0.  1.
        -11    1    4    4    0    0 -0.67833935871E+02 -0.45869654787E+02  0.11617451399E+03  0.14213368984E+03  0.00000000000E+00 0.  1.
         11    1    4    4    0    0 -0.49823139800E+02  0.24723970597E+02  0.23273215859E+03  0.23928618352E+03  0.00000000000E+00 0. -1.
</event>
<event>
 8    1  0.7114239E-009  0.3254367E+03  0.7561462E-02  0.1073174E+00
         -2   -1    0    0    0  501 -0.00000000000E+00  0.00000000000E+00  0.50747131921E+02  0.50747131921E+02  0.00000000000E+00 0.  1.
          2   -1    0    0  501    0  0.00000000000E+00 -0.00000000000E+00 -0.21458567044E+04  0.21458567044E+04  0.00000000000E+00 0. -1.
         25    2    1    2    0    0  0.91249555457E+02  0.29617459622E+03 -0.11624227705E+04  0.12095123506E+04  0.12509019175E+03 0.  0.
         23    2    1    2    0    0 -0.91249555457E+02 -0.29617459622E+03 -0.93268680207E+03  0.98709148580E+03  0.91646373482E+02 0.  0.
          5    1    3    3  502    0  0.28552179886E+02  0.24697801829E+03 -0.96615265741E+03  0.99763810989E+03  0.41800000000E+01 0. -1.
         -5    1    3    3    0  502  0.62697375571E+02  0.49196577932E+02 -0.19627011305E+03  0.21187424067E+03  0.41800000000E+01 0. -1.
        -11    1    4    4    0    0  0.19532956395E+01 -0.14365349092E+03 -0.38203201868E+03  0.40815267256E+03  0.00000000000E+00 0.  1.
         11    1    4    4    0    0 -0.93202851097E+02 -0.15252110530E+03 -0.55065478339E+03  0.57893881325E+03  0.00000000000E+00 0. -1.
</event>
<event>
 8    1  0.7114239E-009  0.8245704E+02  0.7561462E-02  0.1322220E+00
         -1   -1    0    0    0  501 -0.00000000000E+00  0.00000000000E+00  0.37887946271E+02  0.37887946271E+02  0.00000000000E+00 0.  1.
          1   -1    0    0  501    0  0.00000000000E+00 -0.00000000000E+00 -0.62194459933E+03  0.62194459933E+03  0.00000000000E+00 0. -1.
         25    2    1    2    0    0  0.28700140302E+02 -0.41161526016E+01 -0.54082212654E+03  0.55585721639E+03  0.12509209285E+03 0.  0.
         23    2    1    2    0    0 -0.28700140302E+02  0.41161526016E+01 -0.43234526516E+02  0.10397532921E+03  0.90005577799E+02 0.  0.
          5    1    3    3  502    0  0.14706408040E+02 -0.36788786537E+02 -0.49993474555E+03  0.50151960626E+03  0.41800000000E+01 0. -1.
         -5    1    3    3    0  502  0.13993732262E+02  0.32672633935E+02 -0.40887380993E+02  0.54337610136E+02  0.41800000000E+01 0. -1.
        -11    1    4    4    0    0  0.22155196716E+02 -0.22762956300E+02  0.41422195827E+00  0.31767538477E+02  0.00000000000E+00 0.  1.
         11    1    4    4    0    0 -0.50855337019E+02  0.26879108902E+02 -0.43648748474E+02  0.72207790729E+02  0.00000000000E+00 0. -1.
</event>
<event>
 8    1  0.7114239E-009  0.1055582E+03  0.7561462E-02  0.1269024E+00
         -1   -1    0    0    0  501 -0.00000000000E+00  0.00000000000E+00  0.38325699981E+02  0.38325699981E+02  0.00000000000E+00 0.  1.
          1   -1    0    0  501    0  0.00000000000E+00 -0.00000000000E+00 -0.32394763347E+03  0.32394763347E+03  0.00000000000E+00 0. -1.
         25    2    1    2    0    0 -0.13898327997E+01 -0.12863849394E+01 -0.20623233459E+03  0.24121652265E+03  0.12510015406E+03 0.  0.
         23    2    1    2    0    0  0.13898327997E+01  0.12863849394E+01 -0.79389598903E+02  0.12105681081E+03  0.91369888955E+02 0.  0.
          5    1    3    3  502    0 -0.57912423432E+02 -0.23244558547E+02 -0.12487101913E+03  0.13965816163E+03  0.41800000000E+01 0. -1.
         -5    1    3    3    0  502  0.56522590632E+02  0.21958173608E+02 -0.81361315457E+02  0.10155836102E+03  0.41800000000E+01 0. -1.
        -11    1    4    4    0    0  0.36428190371E+02  0.26137416394E+02 -0.57291735369E+02  0.72749711553E+02  0.00000000000E+00 0.  1.
         11    1    4    4    0    0 -0.35038357571E+02 -0.24851031455E+02 -0.22097863534E+02  0.48307099255E+02  0.00000000000E+00 0. -1.
</event>
<event>
 8    1  0.7114239E-009  0.1063192E+03  0.7561462E-02  0.1267542E+00
          1   -1    0    0  501    0  0.00000000000E+00  0.00000000000E+00  0.10097416109E+03  0.10097416109E+03  0.00000000000E+00 0. -1.
         -1   -1    0    0    0  501 -0.00000000000E+00 -0.00000000000E+00 -0.19743575716E+03  0.19743575716E+03  0.00000000000E+00 0.  1.
         25    2    1    2    0    0  0.40256178360E+02 -0.67249507165E+02 -0.98777639489E+02  0.17761610403E+03  0.12508957685E+03 0.  0.
         23    2    1    2    0    0 -0.40256178360E+02  0.67249507165E+02  0.23160434185E+01  0.12079381422E+03  0.91884304355E+02 0.  0.
          5    1    3    3  502    0  0.47124672398E+02 -0.71968374022E+02 -0.81503942519E+01  0.86510594348E+02  0.41800000000E+01 0. -1.
         -5    1    3    3    0  502 -0.68684940381E+01  0.47188668565E+01 -0.90627245237E+02  0.91105509680E+02  0.41800000000E+01 0. -1.
        -11    1    4    4    0    0 -0.29965615831E+02 -0.15545307678E+02 -0.12612146780E+02  0.36036938956E+02  0.00000000000E+00 0. -1.
         11    1    4    4    0    0 -0.10290562529E+02  0.82794814843E+02  0.14928190198E+02  0.84756875265E+02  0.00000000000E+00 0.  1.
</event>
<event>
 8    1  0.7114239E-009  0.9846133E+02  0.7561462E-02  0.1283565E+00
         -2   -1    0    0    0  501 -0.00000000000E+00  0.00000000000E+00  0.29589116306E+02  0.29589116306E+02  0.00000000000E+00 0.  1.
          2   -1    0    0  501    0  0.00000000000E+00 -0.00000000000E+00 -0.56696087184E+03  0.56696087184E+03  0.00000000000E+00 0. -1.
         25    2    1    2    0    0 -0.87850183934E+01  0.13643106417E+02 -0.14197415514E+03  0.18991242815E+03  0.12508700466E+03 0.  0.
         23    2    1    2    0    0  0.87850183934E+01 -0.13643106417E+02 -0.39539760039E+03  0.40663755999E+03  0.93549622694E+02 0.  0.
          5    1    3    3  502    0 -0.48869812674E+02  0.31082151081E+02 -0.21899583930E+02  0.62059833088E+02  0.41800000000E+01 0.  1.
         -5    1    3    3    0  502  0.40084794281E+02 -0.17439044664E+02 -0.12007457121E+03  0.12785259506E+03  0.41800000000E+01 0.  1.
        -11    1    4    4    0    0  0.38112188380E+02 -0.40187499040E+02 -0.22866107775E+03  0.23527316562E+03  0.00000000000E+00 0.  1.
         11    1    4    4    0    0 -0.29327169986E+02  0.26544392623E+02 -0.16673652263E+03  0.17136439437E+03  0.00000000000E+00 0. -1.
</event>
<event>
 8    1  0.7114239E-009  0.8630752E+02  0.7561462E-02  0.1312048E+00
          2   -1    0    0  501    0  0.00000000000E+00  0.00000000000E+00  0.72910672938E+03  0.72910672938E+03  0.00000000000E+00 0. -1.
         -2   -1    0    0    0  501 -0.00000000000E+00 -0.00000000000E+00 -0.39319579933E+02  0.39319579933E+02  0.00000000000E+00 0.  1.
         25    2    1    2    0    0 -0.44129334026E+02  0.38942982872E+01  0.64373299327E+03  0.65726763515E+03  0.12508402740E+03 0.  0.
         23    2    1    2    0    0  0.44129334026E+02 -0.38942982872E+01  0.46054156176E+02  0.11115867416E+03  0.90954394395E+02 0.  0.
          5    1    3    3  502    0 -0.61461744324E+02  0.16016877147E+02  0.14851481218E+03  0.16158034597E+03  0.41800000000E+01 0. -1.
         -5    1    3    3    0  502  0.17332410298E+02 -0.12122578860E+02  0.49521818110E+03  0.49568728918E+03  0.41800000000E+01 0. -1.
        -11    1    4    4    0    0 -0.21517259880E+02 -0.31913837619E+01 -0.10823395228E+02  0.24296569456E+02  0.00000000000E+00 0.  1.
         11    1    4    4    0    0  0.65646593906E+02 -0.70291452529E+00  0.56877551404E+02  0.86862104706E+02  0.00000000000E+00 0. -1.
</event>
<event>
 8    1  0.7114239E-009  0.1083798E+03  0.7561462E-02  0.1263600E+00
         -1   -1    0    0    0  501 -0.00000000000E+00  0.00000000000E+00  0.10101923560E+04  0.10101923560E+04  0.00000000000E+00 0.  1.
          1   -1    0    0  501    0  0.00000000000E+00 -0.00000000000E+00 -0.17658392355E+02  0.17658392355E+02  0.00000000000E+00 0. -1.
         25    2    1    2    0    0  0.40004467667E+02  0.42489914074E+01  0.80940850195E+03  0.82000456647E+03  0.12508778774E+03 0.  0.
         23    2    1    2    0    0 -0.40004467667E+02 -0.42489914074E+01  0.18312546170E+03  0.20784618189E+03  0.89703340194E+02 0.  0.
          5    1    3    3  502    0 -0.83932862300E+01 -0.46961576619E+02  0.16702211101E+03  0.17375181985E+03  0.41800000000E+01 0. -1.
         -5    1    3    3    0  502  0.48397753897E+02  0.51210568026E+02  0.64238639094E+03  0.64625274663E+03  0.41800000000E+01 0. -1.
        -11    1    4    4    0    0 -0.45016056555E+02  0.36052565815E+02  0.10510532052E+03  0.11988895383E+03  0.00000000000E+00 0.  1.
         11    1    4    4    0    0  0.50115888879E+01 -0.40301557222E+02  0.78020141180E+02  0.87957228057E+02  0.00000000000E+00 0. -1.
</event>
<event>
 8    1  0.7114239E-009  0.1199019E+03  0.7561462E-02  0.1243259E+00
         -2   -1    0    0    0  501 -0.00000000000E+00  0.00000000000E+00  0.90056846888E+02  0.90056846888E+02  0.00000000000E+00 0. -1.
          2   -1    0    0  501    0  0.00000000000E+00 -0.00000000000E+00 -0.28304591348E+03  0.28304591348E+03  0.00000000000E+00 0.  1.
         25    2    1    2    0    0 -0.10055611247E+01  0.72236781909E+02 -0.21027175277E+03  0.25510900280E+03  0.12508888634E+03 0.  0.
         23    2    1    2    0    0  0.10055611247E+01 -0.72236781909E+02  0.17282686179E+02  0.11799375756E+03  0.91676996938E+02 0.  0.
          5    1    3    3  502    0 -0.60847948175E+02  0.18313904921E+02 -0.87865441026E+02  0.10851580547E+03  0.41800000000E+01 0.  1.
         -5    1    3    3    0  502  0.59842387050E+02  0.53922876987E+02 -0.12240631174E+03  0.14659319733E+03  0.41800000000E+01 0.  1.
        -11    1    4    4    0    0 -0.30619185706E+02 -0.38983217031E+02  0.42795707093E+02  0.65488153807E+02  0.00000000000E+00 0. -1.
         11    1    4    4    0    0  0.31624746830E+02 -0.33253564878E+02 -0.25513020915E+02  0.52505603752E+02  0.00000000000E+00 0.  1.
</event>
<event>
 8    1  0.7114239E-009  0.8207103E+02  0.7561462E-02  0.1323275E+00
          2   -1    0    0  501    0  0.00000000000E+00  0.00000000000E+00  0.55337565590E+02  0.55337565590E+02  0.00000000000E+00 0. -1.
         -2   -1    0    0    0  501 -0.00000000000E+00 -0.00000000000E+00 -0.27710755329E+03  0.27710755329E+03  0.00000000000E+00 0.  1.
         25    2    1    2    0    0  0.48222842372E+02  0.38833154144E+01 -0.17404836877E+03  0.21972844302E+03  0.12508889373E+03 0.  0.
         23    2    1    2    0    0 -0.48222842372E+02 -0.38833154144E+01 -0.47721618924E+02  0.11271667586E+03  0.89928713090E+02 0.  0.
          5    1    3    3  502    0  0.53932313515E+02 -0.26635719895E+02 -0.17820123682E+03  0.18812578032E+03  0.41800000000E+01 0. -1.
         -5    1    3    3    0  502 -0.57094711426E+01  0.30519035309E+02  0.41528680493E+01  0.31602662704E+02  0.41800000000E+01 0. -1.
        -11    1    4    4    0    0 -0.87492962103E+01 -0.25886743755E+02 -0.59963423968E+02  0.65896023403E+02  0.00000000000E+00 0.  1.
         11    1    4    4    0    0 -0.39473546162E+02  0.22003428340E+02  0.12241805044E+02  0.46820652452E+02  0.00000000000E+00 0. -1.
</event>
<event>
 8    1  0.7114239E-009  0.8060285E+02  0.7561462E-02  0.1327349E+00
         -3   -1    0    0    0  501 -0.00000000000E+00  0.00000000000E+00  0.87088163780E+02  0.87088163780E+02  0.00000000000E+00 0.  1.
          3   -1    0    0  501    0  0.00000000000E+00 -0.00000000000E+00 -0.16361020521E+03  0.16361020521E+03  0.00000000000E+00 0. -1.
         25    2    1    2    0    0  0.53829480343E+02  0.16221122937E+01 -0.32000165272E+02  0.13989878826E+03  0.12508963257E+03 0.  0.
         23    2    1    2    0    0 -0.53829480343E+02 -0.16221122937E+01 -0.44521876162E+02  0.11079958073E+03  0.85988984362E+02 0.  0.
          5    1    3    3  502    0  0.41328390942E+02 -0.13410867682E+02  0.43602476775E+02  0.61697128383E+02  0.41800000000E+01 0. -1.
         -5    1    3    3    0  502  0.12501089401E+02  0.15032979975E+02 -0.75602642047E+02  0.78201659877E+02  0.41800000000E+01 0. -1.
        -11    1    4    4    0    0 -0.90110880186E+01 -0.38488241227E+02 -0.34014319495E+01  0.39675107553E+02  0.00000000000E+00 0.  1.
         11    1    4    4    0    0 -0.44818392324E+02  0.36866128934E+02 -0.41120444213E+02  0.71124473181E+02  0.00000000000E+00 0. -1.
</event>
<event>
 8    1  0.7114239E-009  0.1904737E+03  0.7561462E-02  0.1158035E+00
          3   -1    0    0  501    0  0.00000000000E+00  0.00000000000E+00  0.39925326571E+03  0.39925326571E+03  0.00000000000E+00 0. -1.
         -3   -1    0    0    0  501 -0.00000000000E+00 -0.00000000000E+00 -0.13360185526E+03  0.13360185526E+03  0.00000000000E+00 0.  1.
         25    2    1    2    0    0 -0.17455178700E+03  0.73028971086E+02  0.22455359241E+03  0.31917596732E+03  0.12508966900E+03 0.  0.
         23    2    1    2    0    0  0.17455178700E+03 -0.73028971086E+02  0.41097818035E+02  0.21367915365E+03  0.90378056496E+02 0.  0.
          5    1    3    3  502    0 -0.12842543993E+03  0.67343324162E+02  0.23027632550E+03  0.27216332489E+03  0.41800000000E+01 0.  1.
         -5    1    3    3    0  502 -0.46126347068E+02  0.56856469234E+01 -0.57227330845E+01  0.47012642435E+02  0.41800000000E+01 0.  1.
        -11    1    4    4    0    0  0.13870431570E+03 -0.57959970802E+02 -0.86038190620E+01  0.15057314207E+03  0.00000000000E+00 0.  1.
         11    1    4    4    0    0  0.35847471295E+02 -0.15069000283E+02  0.49701637097E+02  0.63106011583E+02  0.00000000000E+00 0. -1.
</event>
<event>
 8    1  0.7114239E-009  0.1292299E+03  0.7561462E-02  0.1228603E+00
         -1   -1    0    0    0  501 -0.00000000000E+00  0.00000000000E+00  0.16582314235E+02  0.16582314235E+02  0.00000000000E+00 0.  1.
          1   -1    0    0  501    0  0.00000000000E+00 -0.00000000000E+00 -0.15198037819E+04  0.15198037819E+04  0.00000000000E+00 0. -1.
         25    2    1    2    0    0 -0.89031823220E+02 -0.86854141699E+01 -0.11736448732E+04  0.11836773971E+04  0.12509112706E+03 0.  0.
         23    2    1    2    0    0  0.89031823220E+02  0.86854141699E+01 -0.32957659448E+03  0.35270869904E+03  0.88207668518E+02 0.  0.
          5    1    3    3  502    0 -0.11429539441E+03 -0.51111497129E+01 -0.69768974677E+03  0.70702052034E+03  0.41800000000E+01 0.  1.
         -5    1    3    3    0  502  0.25263571185E+02 -0.35742644570E+01 -0.47595512639E+03  0.47665687672E+03  0.41800000000E+01 0.  1.
        -11    1    4    4    0    0  0.31948589278E+02 -0.34139531758E+02 -0.19334323664E+03  0.19891663364E+03  0.00000000000E+00 0. -1.
         11    1    4    4    0    0  0.57083233943E+02  0.42824945928E+02 -0.13623335784E+03  0.15379206539E+03  0.00000000000E+00 0.  1.
</event>
<event>
 8    1  0.7114239E-009  0.5703103E+02  0.7561462E-02  0.1410731E+00
         -1   -1    0    0    0  501 -0.00000000000E+00  0.00000000000E+00  0.49651798607E+02  0.49651798607E+02  0.00000000000E+00 0.  1.
          1   -1    0    0  501    0  0.00000000000E+00 -0.00000000000E+00 -0.31119045341E+03  0.31119045341E+03  0.00000000000E+00 0. -1.
         25    2    1    2    0    0 -0.12096961098E+02  0.36496780417E+01 -0.23485285582E+03  0.26639616883E+03  0.12510554849E+03 0.  0.
         23    2    1    2    0    0  0.12096961098E+02 -0.36496780417E+01 -0.26685798983E+02  0.94446083187E+02  0.89712173892E+02 0.  0.
          5    1    3    3  502    0 -0.87925815859E+01 -0.20050421774E+02  0.69722240039E+01  0.23354083408E+02  0.41800000000E+01 0. -1.
         -5    1    3    3    0  502 -0.33043795122E+01  0.23700099815E+02 -0.24182507982E+03  0.24304208542E+03  0.41800000000E+01 0. -1.
        -11    1    4    4    0    0 -0.27607493671E+02 -0.30168945454E+01  0.19200811513E+02  0.33763094086E+02  0.00000000000E+00 0.  1.
         11    1    4    4    0    0  0.39704454769E+02 -0.63278349632E+00 -0.45886610496E+02  0.60682989101E+02  0.00000000000E+00 0. -1.
</event>
<event>
 8    1  0.7114239E-009  0.9119925E+02  0.7561462E-02  0.1299973E+00
          1   -1    0    0  501    0  0.00000000000E+00  0.00000000000E+00  0.30338152921E+03  0.30338152921E+03  0.00000000000E+00 0. -1.
         -1   -1    0    0    0  501 -0.00000000000E+00 -0.00000000000E+00 -0.47917217820E+02  0.47917217820E+02  0.00000000000E+00 0.  1.
         25    2    1    2    0    0 -0.22549602238E+02  0.40426198902E+02  0.18274074542E+03  0.22624024455E+03  0.12509079142E+03 0.  0.
         23    2    1    2    0    0  0.22549602238E+02 -0.40426198902E+02  0.72723565976E+02  0.12505850248E+03  0.90598840372E+02 0.  0.
          5    1    3    3  502    0 -0.42712137984E+02 -0.27378488504E+02  0.12453505935E+03  0.13453758498E+03  0.41800000000E+01 0.  1.
         -5    1    3    3    0  502  0.20162535747E+02  0.67804687406E+02  0.58205686067E+02  0.91702659571E+02  0.41800000000E+01 0.  1.
        -11    1    4    4    0    0  0.19483102306E+02  0.59760138049E+00 -0.17311779418E+02  0.26070023197E+02  0.00000000000E+00 0.  1.
         11    1    4    4    0    0  0.30664999320E+01 -0.41023800282E+02  0.90035345394E+02  0.98988479288E+02  0.00000000000E+00 0. -1.
</event>
<event>
 8    1  0.7114239E-009  0.1028106E+03  0.7561462E-02  0.1274494E+00
         -2   -1    0    0    0  501 -0.00000000000E+00  0.00000000000E+00  0.12662891845E+03  0.12662891845E+03  0.00000000000E+00 0.  1.
          2   -1    0    0  501    0  0.00000000000E+00 -0.00000000000E+00 -0.10477587423E+03  0.10477587423E+03  0.00000000000E+00 0. -1.
         25    2    1    2    0    0  0.13361859783E+02  0.34576390379E+02  0.12887354889E+02  0.13110461637E+03  0.12509304717E+03 0.  0.
         23    2    1    2    0    0 -0.13361859783E+02 -0.34576390379E+02  0.89656893325E+01  0.10030017631E+03  0.92766781308E+02 0.  0.
          5    1    3    3  502    0 -0.26922027367E+02  0.68783854458E+02  0.22281296710E+02  0.77265404773E+02  0.41800000000E+01 0.  1.
         -5    1    3    3    0  502  0.40283887150E+02 -0.34207464079E+02 -0.93939418203E+01  0.53839211599E+02  0.41800000000E+01 0.  1.
        -11    1    4    4    0    0  0.26998339318E+02 -0.25818727607E+01 -0.26379976472E+02  0.37834898593E+02  0.00000000000E+00 0. -1.
         11    1    4    4    0    0 -0.40360199101E+02 -0.31994517618E+02  0.35345665805E+02  0.62465277717E+02  0.00000000000E+00 0.  1.
</event>
<event>
 8    1  0.7114239E-009  0.1591300E+03  0.7561462E-02  0.1189683E+00
         -1   -1    0    0    0  501 -0.00000000000E+00  0.00000000000E+00  0.20264885865E+03  0.20264885865E+03  0.00000000000E+00 0.  1.
          1   -1    0    0  501    0  0.00000000000E+00 -0.00000000000E+00 -0.17618353539E+03  0.17618353539E+03  0.00000000000E+00 0. -1.
         25    2    1    2    0    0  0.83722381302E+02 -0.91031809675E+02 -0.79803667087E+02  0.19316304849E+03  0.12508841080E+03 0.  0.
         23    2    1    2    0    0 -0.83722381302E+02  0.91031809675E+02  0.10626899035E+03  0.18566934556E+03  0.88790653044E+02 0.  0.
          5    1    3    3  502    0  0.62975841417E+02 -0.11866812701E+03 -0.83381351842E+02  0.15817080390E+03  0.41800000000E+01 0.  1.
         -5    1    3    3    0  502  0.20746539885E+02  0.27636317337E+02  0.35776847546E+01  0.34992244588E+02  0.41800000000E+01 0.  1.
        -11    1    4    4    0    0 -0.84476770379E+02  0.32510319595E+02  0.82594252605E+02  0.12253593831E+03  0.00000000000E+00 0.  1.
         11    1    4    4    0    0  0.75438907705E+00  0.58521490080E+02  0.23674737741E+02  0.63133407251E+02  0.00000000000E+00 0. -1.
</event>
<event>
 8    1  0.7114239E-009  0.1108322E+03  0.7561462E-02  0.1259037E+00
         -1   -1    0    0    0  501 -0.00000000000E+00  0.00000000000E+00  0.20648609323E+02  0.20648609323E+02  0.00000000000E+00 0.  1.
          1   -1    0    0  501    0  0.00000000000E+00 -0.00000000000E+00 -0.85516472745E+03  0.85516472745E+03  0.00000000000E+00 0. -1.
         25    2    1    2    0    0 -0.56375254308E+02  0.11263161402E+02 -0.63531401579E+03  0.65005863101E+03  0.12508915618E+03 0.  0.
         23    2    1    2    0    0  0.56375254308E+02 -0.11263161402E+02 -0.19920210234E+03  0.22575470576E+03  0.89323465523E+02 0.  0.
          5    1    3    3  502    0 -0.87036755093E+02  0.44988254780E+01 -0.27866261550E+03  0.29200335931E+03  0.41800000000E+01 0.  1.
         -5    1    3    3    0  502  0.30661500785E+02  0.67643359236E+01 -0.35665140029E+03  0.35805527171E+03  0.41800000000E+01 0.  1.
        -11    1    4    4    0    0 -0.14371925013E+02  0.20621165826E+02 -0.27074027695E+02  0.36943032959E+02  0.00000000000E+00 0.  1.
         11    1    4    4    0    0  0.70747179322E+02 -0.31884327228E+02 -0.17212807464E+03  0.18881167280E+03  0.00000000000E+00 0. -1.
</event>
<event>
 8    1  0.7114239E-009  0.1479927E+03  0.7561462E-02  0.1202962E+00
          1   -1    0    0  501    0  0.00000000000E+00  0.00000000000E+00  0.15743095749E+03  0.15743095749E+03  0.00000000000E+00 0. -1.
         -1   -1    0    0    0  501 -0.00000000000E+00 -0.00000000000E+00 -0.21192268882E+03  0.21192268882E+03  0.00000000000E+00 0.  1.
         25    2    1    2    0    0 -0.11913611458E+03 -0.21321402664E+02 -0.11104907445E+03  0.20646628879E+03  0.12509362679E+03 0.  0.
         23    2    1    2    0    0  0.11913611458E+03  0.21321402664E+02  0.56557343113E+02  0.16288735752E+03  0.93196256207E+02 0.  0.
          5    1    3    3  502    0 -0.50361987489E+02 -0.71101022040E+02 -0.71141033251E+02  0.11256200127E+03  0.41800000000E+01 0. -1.
         -5    1    3    3    0  502 -0.68774127091E+02  0.49779619376E+02 -0.39908041197E+02  0.93904287520E+02  0.41800000000E+01 0. -1.
        -11    1    4    4    0    0  0.72229750591E+02  0.46112265724E-02 -0.15919420830E+02  0.73963266905E+02  0.00000000000E+00 0.  1.
         11    1    4    4    0    0  0.46906363988E+02  0.21316791438E+02  0.72476763944E+02  0.88924090614E+02  0.00000000000E+00 0. -1.
</event>
<event>
 8    1  0.7114239E-009  0.2350974E+03  0.7561462E-02  0.1123103E+00
          2   -1    0    0  501    0  0.00000000000E+00  0.00000000000E+00  0.22666489068E+03  0.22666489068E+03  0.00000000000E+00 0.  1.
         -2   -1    0    0    0  501 -0.00000000000E+00 -0.00000000000E+00 -0.33940988156E+03  0.33940988156E+03  0.00000000000E+00 0. -1.
         25    2    1    2    0    0 -0.16794618833E+03  0.14447582361E+03 -0.18555537694E+03  0.31489235137E+03  0.12508880549E+03 0.  0.
         23    2    1    2    0    0  0.16794618833E+03 -0.14447582361E+03  0.72810386059E+02  0.25118242087E+03  0.93338472511E+02 0.  0.
          5    1    3    3  502    0 -0.95337557964E+02  0.13220359188E+03 -0.17698156990E+03  0.24063870875E+03  0.41800000000E+01 0.  1.
         -5    1    3    3    0  502 -0.72608630370E+02  0.12272231726E+02 -0.85738070401E+01  0.74253642624E+02  0.41800000000E+01 0.  1.
        -11    1    4    4    0    0  0.11595174939E+03 -0.13914279080E+03  0.80763528864E+02  0.19831356992E+03  0.00000000000E+00 0.  1.
         11    1    4    4    0    0  0.51994438946E+02 -0.53330328065E+01 -0.79531428057E+01  0.52868850950E+02  0.00000000000E+00 0. -1.
</event>
<event>
 8    1  0.7114239E-009  0.1376505E+03  0.7561462E-02  0.1216526E+00
          1   -1    0    0  501    0  0.00000000000E+00  0.00000000000E+00  0.76647661622E+02  0.76647661622E+02  0.00000000000E+00 0. -1.
         -1   -1    0    0    0  501 -0.00000000000E+00 -0.00000000000E+00 -0.46005051155E+03  0.46005051155E+03  0.00000000000E+00 0.  1.
         25    2    1    2    0    0  0.81154251230E+02  0.89445127758E+02 -0.71314927644E+02  0.18794068694E+03  0.12509771993E+03 0.  0.
         23    2    1    2    0    0 -0.81154251230E+02 -0.89445127758E+02 -0.31208792229E+03  0.34875748623E+03  0.98216442582E+02 0.  0.
          5    1    3    3  502    0  0.52274289081E+02  0.87297087624E+02  0.92211852648E+01  0.10225402420E+03  0.41800000000E+01 0.  1.
         -5    1    3    3    0  502  0.28879962149E+02  0.21480401341E+01 -0.80536112909E+02  0.85686662747E+02  0.41800000000E+01 0.  1.
        -11    1    4    4    0    0 -0.61119785500E+02 -0.95822822624E+01 -0.20214782482E+03  0.21140291245E+03  0.00000000000E+00 0.  1.
         11    1    4    4    0    0 -0.20034465730E+02 -0.79862845496E+02 -0.10994009746E+03  0.13735457378E+03  0.00000000000E+00 0. -1.
</event>
<event>
 8    1  0.7114239E-009  0.1026121E+03  0.7561462E-02  0.1274897E+00
         -2   -1    0    0    0  501 -0.00000000000E+00  0.00000000000E+00  0.95173594838E+02  0.95173594838E+02  0.00000000000E+00 0.  1.
          2   -1    0    0  501    0  0.00000000000E+00 -0.00000000000E+00 -0.16003263889E+03  0.16003263889E+03  0.00000000000E+00 0. -1.
         25    2    1    2    0    0  0.47724207881E+02 -0.26724227838E+02 -0.13343991090E+02  0.13717700059E+03  0.12509069918E+03 0.  0.
         23    2    1    2    0    0 -0.47724207881E+02  0.26724227838E+02 -0.51515052959E+02  0.11802923313E+03  0.91023704718E+02 0.  0.
          5    1    3    3  502    0 -0.22814636948E+02  0.75091298979E+01  0.36705120969E+02  0.44063964827E+02  0.41800000000E+01 0. -1.
         -5    1    3    3    0  502  0.70538844830E+02 -0.34233357736E+02 -0.50049112060E+02  0.93113035767E+02  0.41800000000E+01 0. -1.
        -11    1    4    4    0    0 -0.49444118161E+02 -0.21610790311E+02 -0.42824762286E+02  0.68889094518E+02  0.00000000000E+00 0. -1.
         11    1    4    4    0    0  0.17199102801E+01  0.48335018149E+02 -0.86902906730E+01  0.49140138613E+02  0.00000000000E+00 0.  1.
</event>
<event>
 8    1  0.7114239E-009  0.1329395E+03  0.7561462E-02  0.1223158E+00
         -1   -1    0    0    0  501 -0.00000000000E+00  0.00000000000E+00  0.18519735861E+02  0.18519735861E+02  0.00000000000E+00 0. -1.
          1   -1    0    0  501    0  0.00000000000E+00 -0.00000000000E+00 -0.17767100652E+04  0.17767100652E+04  0.00000000000E+00 0.  1.
         25    2    1    2    0    0  0.10796330032E+03  0.76991543937E+02 -0.12149471844E+04  0.12285467893E+04  0.12508709221E+03 0.  0.
         23    2    1    2    0    0 -0.10796330032E+03 -0.76991543937E+02 -0.54324314501E+03  0.56668301180E+03  0.91830001685E+02 0.  0.
          5    1    3    3  502    0  0.71827389102E+02  0.56618040905E+02 -0.11321358402E+04  0.11358317698E+04  0.41800000000E+01 0.  1.
         -5    1    3    3    0  502  0.36135911219E+02  0.20373503032E+02 -0.82811344210E+02  0.92715019470E+02  0.41800000000E+01 0.  1.
        -11    1    4    4    0    0 -0.39475972829E+02 -0.29741332222E+02 -0.67177661855E+02  0.83401064294E+02  0.00000000000E+00 0. -1.
         11    1    4    4    0    0 -0.68487327492E+02 -0.47250211715E+02 -0.47606548316E+03  0.48328194751E+03  0.00000000000E+00 0.  1.
</event>
<event>
 8    1  0.7114239E-009  0.1204183E+03  0.7561462E-02  0.1242409E+00
          2   -1    0    0  501    0  0.00000000000E+00  0.00000000000E+00  0.29454360994E+03  0.29454360994E+03  0.00000000000E+00 0. -1.
         -2   -1    0    0    0  501 -0.00000000000E+00 -0.00000000000E+00 -0.52185474635E+02  0.52185474635E+02  0.00000000000E+00 0.  1.
         25    2    1    2    0    0  0.67790275977E+02  0.61485508883E+01  0.14472791140E+03  0.20304645615E+03  0.12509344036E+03 0.  0.
         23    2    1    2    0    0 -0.67790275977E+02 -0.61485508883E+01  0.97630223902E+02  0.14368262843E+03  0.80496651464E+02 0.  0.
          5    1    3    3  502    0  0.24510064201E+02 -0.57738954938E+02  0.47200347543E+02  0.78612183360E+02  0.41800000000E+01 0.  1.
         -5    1    3    3    0  502  0.43280211776E+02  0.63887505827E+02  0.97527563861E+02  0.12443427279E+03  0.41800000000E+01 0.  1.
        -11    1    4    4    0    0 -0.58672005705E+02  0.28239865033E+02  0.41459675377E+02  0.77193256913E+02  0.00000000000E+00 0.  1.
         11    1    4    4    0    0 -0.91182702716E+01 -0.34388415922E+02  0.56170548526E+02  0.66489371512E+02  0.00000000000E+00 0. -1.
</event>
<event>
 8    1  0.7114239E-009  0.5703140E+02  0.7561462E-02  0.1410729E+00
         -2   -1    0    0    0  501 -0.00000000000E+00  0.00000000000E+00  0.66661230747E+02  0.66661230747E+02  0.00000000000E+00 0.  1.
          2   -1    0    0  501    0  0.00000000000E+00 -0.00000000000E+00 -0.21256283247E+03  0.21256283247E+03  0.00000000000E+00 0. -1.
         25    2    1    2    0    0  0.21869841861E+01 -0.95220209841E+01 -0.13920444914E+03  0.18740793942E+03  0.12509358622E+03 0.  0.
         23    2    1    2    0    0 -0.21869841861E+01  0.95220209841E+01 -0.66971525805E+01  0.91816123793E+02  0.91048871230E+02 0.  0.
          5    1    3    3  502    0  0.90121471096E+01  0.21052663681E+02  0.16496712107E+02  0.28531515100E+02  0.41800000000E+01 0.  1.
         -5    1    3    3    0  502 -0.68251629234E+01 -0.30574684665E+02 -0.15570116125E+03  0.15887642432E+03  0.41800000000E+01 0.  1.
        -11    1    4    4    0    0  0.23409413996E+02  0.20699575479E+02  0.31583219769E+02  0.44429414352E+02  0.00000000000E+00 0.  1.
         11    1    4    4    0    0 -0.25596398182E+02 -0.11177554495E+02 -0.38280372350E+02  0.47386709441E+02  0.00000000000E+00 0. -1.
</event>
<event>
 8    1  0.7114239E-009  0.9696536E+02  0.7561462E-02  0.1286810E+00
          2   -1    0    0  501    0  0.00000000000E+00  0.00000000000E+00  0.11513170347E+03  0.11513170347E+03  0.00000000000E+00 0. -1.
         -2   -1    0    0    0  501 -0.00000000000E+00 -0.00000000000E+00 -0.16251055952E+03  0.16251055952E+03  0.00000000000E+00 0.  1.
         25    2    1    2    0    0  0.21115857662E+01  0.80792860994E+02 -0.44100590370E+02  0.15530596695E+03  0.12507252343E+03 0.  0.
         23    2    1    2    0    0 -0.21115857662E+01 -0.80792860994E+02 -0.32782656714E+01  0.12233629604E+03  0.91779502731E+02 0.  0.
          5    1    3    3  502    0  0.31998932293E+02  0.30461451093E+02  0.35207002627E+02  0.56646598350E+02  0.41800000000E+01 0. -1.
         -5    1    3    3    0  502 -0.29887346527E+02  0.50331409901E+02 -0.79307592997E+02  0.98659368597E+02  0.41800000000E+01 0. -1.
        -11    1    4    4    0    0  0.13234902871E+02 -0.71948878887E+02 -0.38678865997E+02  0.82751788512E+02  0.00000000000E+00 0.  1.
         11    1    4    4    0    0 -0.15346488637E+02 -0.88439821067E+01  0.35400600326E+02  0.39584507530E+02  0.00000000000E+00 0. -1.
</event>
<event>
 8    1  0.7114239E-009  0.1203040E+03  0.7561462E-02  0.1242596E+00
          1   -1    0    0  501    0  0.00000000000E+00  0.00000000000E+00  0.43791669669E+02  0.43791669669E+02  0.00000000000E+00 0. -1.
         -1   -1    0    0    0  501 -0.00000000000E+00 -0.00000000000E+00 -0.41507200337E+03  0.41507200337E+03  0.00000000000E+00 0.  1.
         25    2    1    2    0    0 -0.69972167160E+02  0.27976374844E+02 -0.21938212993E+03  0.26354299778E+03  0.12509041139E+03 0.  0.
         23    2    1    2    0    0  0.69972167160E+02 -0.27976374844E+02 -0.15189820378E+03  0.19532067526E+03  0.96944933584E+02 0.  0.
          5    1    3    3  502    0  0.38364806354E+01 -0.42070443765E+02 -0.84154827790E+02  0.94255759837E+02  0.41800000000E+01 0.  1.
         -5    1    3    3    0  502 -0.73808647795E+02  0.70046818609E+02 -0.13522730214E+03  0.16928723794E+03  0.41800000000E+01 0.  1.
        -11    1    4    4    0    0  0.35553749787E+02  0.17220655408E+02 -0.12752330938E+03  0.13350211434E+03  0.00000000000E+00 0.  1.
         11    1    4    4    0    0  0.34418417373E+02 -0.45197030252E+02 -0.24374894395E+02  0.61818560925E+02  0.00000000000E+00 0. -1.
</event>
<event>
 8    1  0.7114239E-009  0.1171235E+03  0.7561462E-02  0.1247919E+00
          2   -1    0    0  501    0  0.00000000000E+00  0.00000000000E+00  0.50053470948E+02  0.50053470948E+02  0.00000000000E+00 0.  1.
         -2   -1    0    0    0  501 -0.00000000000E+00 -0.00000000000E+00 -0.93400077693E+03  0.93400077693E+03  0.00000000000E+00 0. -1.
         25    2    1    2    0    0 -0.19149954548E+02  0.50671623878E+02 -0.86356782747E+03  0.87426042437E+03  0.12509021847E+03 0.  0.
         23    2    1    2    0    0  0.19149954548E+02 -0.50671623878E+02 -0.20379478510E+02  0.10979382350E+03  0.93300730488E+02 0.  0.
          5    1    3    3  502    0  0.52188855952E+02  0.18490870923E+02 -0.44149416859E+03  0.44497209159E+03  0.41800000000E+01 0. -1.
         -5    1    3    3    0  502 -0.71338810500E+02  0.32180752956E+02 -0.42207365888E+03  0.42928833278E+03  0.41800000000E+01 0. -1.
        -11    1    4    4    0    0 -0.31983823019E+02 -0.61946785508E+01  0.11957851092E+02  0.34703446226E+02  0.00000000000E+00 0. -1.
         11    1    4    4    0    0  0.51133777566E+02 -0.44476945327E+02 -0.32337329602E+02  0.75090377277E+02  0.00000000000E+00 0.  1.
</event>
<event>
 8    1  0.7114239E-009  0.1106874E+03  0.7561462E-02  0.1259302E+00
          2   -1    0    0  501    0  0.00000000000E+00  0.00000000000E+00  0.11224246549E+04  0.11224246549E+04  0.00000000000E+00 0. -1.
         -2   -1    0    0    0  501 -0.00000000000E+00 -0.00000000000E+00 -0.27484929296E+02  0.27484929296E+02  0.00000000000E+00 0.  1.
         25    2    1    2    0    0 -0.65352702953E+02  0.36928396802E+02  0.95931535882E+03  0.97034424672E+03  0.12508923694E+03 0.  0.
         23    2    1    2    0    0  0.65352702953E+02 -0.36928396802E+02  0.13562436673E+03  0.17956533743E+03  0.90636964201E+02 0.  0.
          5    1    3    3  502    0 -0.83903059234E+02  0.45895794460E+02  0.42635329674E+03  0.43696767997E+03  0.41800000000E+01 0. -1.
         -5    1    3    3    0  502  0.18550356280E+02 -0.89673976588E+01  0.53296206208E+03  0.53337656675E+03  0.41800000000E+01 0. -1.
        -11    1    4    4    0    0  0.21280391216E+02 -0.53470513904E+02  0.32232469486E+02  0.65961223432E+02  0.00000000000E+00 0.  1.
         11    1    4    4    0    0  0.44072311737E+02  0.16542117102E+02  0.10339189725E+03  0.11360411399E+03  0.00000000000E+00 0. -1.
</event>
<event>
 8    1  0.7114239E-009  0.1222638E+03  0.7561462E-02  0.1239409E+00
          1   -1    0    0  501    0  0.00000000000E+00  0.00000000000E+00  0.11648307436E+04  0.11648307436E+04  0.00000000000E+00 0. -1.
         -1   -1    0    0    0  501 -0.00000000000E+00 -0.00000000000E+00 -0.20636475478E+02  0.20636475478E+02  0.00000000000E+00 0.  1.
         25    2    1    2    0    0  0.74970516250E+02 -0.40348789543E+02  0.87756660085E+03  0.89051602376E+03  0.12508815504E+03 0.  0.
         23    2    1    2    0    0 -0.74970516250E+02  0.40348789543E+02  0.26662766723E+03  0.29495119527E+03  0.93044567467E+02 0.  0.
          5    1    3    3  502    0 -0.32893662149E+02 -0.62607303114E+01  0.12462407325E+03  0.12911166402E+03  0.41800000000E+01 0.  1.
         -5    1    3    3    0  502  0.10786417840E+03 -0.34088059232E+02  0.75294252760E+03  0.76140435974E+03  0.41800000000E+01 0.  1.
        -11    1    4    4    0    0 -0.34502365929E+02 -0.70961296050E+01  0.20235746267E+03  0.20540036759E+03  0.00000000000E+00 0. -1.
         11    1    4    4    0    0 -0.40468150321E+02  0.47444919148E+02  0.64270204562E+02  0.89550827678E+02  0.00000000000E+00 0.  1.
</event>
<event>
 8    1  0.7114239E-009  0.9217581E+02  0.7561462E-02  0.1297667E+00
         -4   -1    0    0    0  501 -0.00000000000E+00  0.00000000000E+00  0.25223899929E+03  0.25223899929E+03  0.00000000000E+00 0.  1.
          4   -1    0    0  501    0  0.00000000000E+00 -0.00000000000E+00 -0.49500727193E+02  0.49500727193E+02  0.00000000000E+00 0. -1.
         25    2    1    2    0    0  0.17723057441E+02 -0.22165215240E+02  0.11479445320E+03  0.17213520922E+03  0.12508940897E+03 0.  0.
         23    2    1    2    0    0 -0.17723057441E+02  0.22165215240E+02  0.87943818899E+02  0.12960451726E+03  0.90872504537E+02 0.  0.
          5    1    3    3  502    0  0.66632819126E+01 -0.69107732284E+02  0.99437833947E+02  0.12134922005E+03  0.41800000000E+01 0. -1.
         -5    1    3    3    0  502  0.11059775528E+02  0.46942517044E+02  0.15356619257E+02  0.50785989172E+02  0.41800000000E+01 0. -1.
        -11    1    4    4    0    0 -0.23213505032E+02  0.40811370888E+02  0.83707356626E+01  0.47691760559E+02  0.00000000000E+00 0. -1.
         11    1    4    4    0    0  0.54904475915E+01 -0.18646155649E+02  0.79573083236E+02  0.81912756705E+02  0.00000000000E+00 0.  1.
</event>
<event>
 8    1  0.7114239E-009  0.1124914E+03  0.7561462E-02  0.1256024E+00
         -1   -1    0    0    0  501 -0.00000000000E+00  0.00000000000E+00  0.21315281647E+03  0.21315281647E+03  0.00000000000E+00 0.  1.
          1   -1    0    0  501    0  0.00000000000E+00 -0.00000000000E+00 -0.64528342526E+02  0.64528342526E+02  0.00000000000E+00 0. -1.
         25    2    1    2    0    0  0.82670220447E+01  0.39037587163E+02  0.10370209545E+03  0.16731680090E+03  0.12509400624E+03 0.  0.
         23    2    1    2    0    0 -0.82670220447E+01 -0.39037587163E+02  0.44922378498E+02  0.11036435810E+03  0.92574265238E+02 0.  0.
          5    1    3    3  502    0 -0.37454932814E+02 -0.30093148534E+02  0.35180037529E+02  0.59695703542E+02  0.41800000000E+01 0.  1.
         -5    1    3    3    0  502  0.45721954859E+02  0.69130735698E+02  0.68522057919E+02  0.10762109735E+03  0.41800000000E+01 0.  1.
        -11    1    4    4    0    0 -0.12382261208E+02  0.25895376548E+02  0.33823510775E+02  0.44361253368E+02  0.00000000000E+00 0.  1.
         11    1    4    4    0    0  0.41152391630E+01 -0.64932963712E+02  0.11098867722E+02  0.66003104734E+02  0.00000000000E+00 0. -1.
</event>
<event>
 8    1  0.7114239E-009  0.1346803E+03  0.7561462E-02  0.1220672E+00
         -2   -1    0    0    0  501 -0.00000000000E+00  0.00000000000E+00  0.54458986975E+02  0.54458986975E+02  0.00000000000E+00 0.  1.
          2   -1    0    0  501    0  0.00000000000E+00 -0.00000000000E+00 -0.38426721941E+03  0.38426721941E+03  0.00000000000E+00 0. -1.
         25    2    1    2    0    0  0.34914962969E+02 -0.75904215825E+02 -0.24608835055E+03  0.28842277478E+03  0.12509083146E+03 0.  0.
         23    2    1    2    0    0 -0.34914962969E+02  0.75904215825E+02 -0.83719881880E+02  0.15030343160E+03  0.92744802069E+02 0.  0.
          5    1    3    3  502    0 -0.31526117864E+02 -0.74161404294E+02 -0.10515658128E+03  0.13254881735E+03  0.41800000000E+01 0. -1.
         -5    1    3    3    0  502  0.66441080832E+02 -0.17428115308E+01 -0.14093176928E+03  0.15587395743E+03  0.41800000000E+01 0. -1.
        -11    1    4    4    0    0 -0.20083239629E+02  0.95448235763E+02 -0.53063007966E+02  0.11103776402E+03  0.00000000000E+00 0.  1.
         11    1    4    4    0    0 -0.14831723339E+02 -0.19544019938E+02 -0.30656873913E+02  0.39265667582E+02  0.00000000000E+00 0. -1.
</event>
<event>
 8    1  0.7114239E-009  0.1069148E+03  0.7561462E-02  0.1266392E+00
          1   -1    0    0  501    0  0.00000000000E+00  0.00000000000E+00  0.34470815988E+02  0.34470815988E+02  0.00000000000E+00 0. -1.
         -1   -1    0    0    0  501 -0.00000000000E+00 -0.00000000000E+00 -0.51885330572E+03  0.51885330572E+03  0.00000000000E+00 0.  1.
         25    2    1    2    0    0  0.82772827077E+01  0.70315569951E+02 -0.20903139493E+03  0.25368932149E+03  0.12510537553E+03 0.  0.
         23    2    1    2    0    0 -0.82772827077E+01 -0.70315569951E+02 -0.27535109480E+03  0.29963480022E+03  0.94604414830E+02 0.  0.
          5    1    3    3  502    0 -0.35260834221E+02  0.28416735919E+02 -0.11261161065E+02  0.46852144655E+02  0.41800000000E+01 0.  1.
         -5    1    3    3    0  502  0.43538116929E+02  0.41898834032E+02 -0.19777023387E+03  0.20683717684E+03  0.41800000000E+01 0.  1.
        -11    1    4    4    0    0  0.31417579534E+02 -0.56739485702E+01 -0.33982719359E+02  0.46627065222E+02  0.00000000000E+00 0. -1.
         11    1    4    4    0    0 -0.39694862241E+02 -0.64641621381E+02 -0.24136837544E+03  0.25300773500E+03  0.00000000000E+00 0.  1.
</event>
<event>
 8    1  0.7114239E-009  0.1668938E+03  0.7561462E-02  0.1181126E+00
          2   -1    0    0  501    0  0.00000000000E+00  0.00000000000E+00  0.23446586095E+03  0.23446586095E+03  0.00000000000E+00 0. -1.
         -2   -1    0    0    0  501 -0.00000000000E+00 -0.00000000000E+00 -0.12281732009E+03  0.12281732009E+03  0.00000000000E+00 0.  1.
         25    2    1    2    0    0 -0.11304974420E+03  0.63336472051E+02  0.37911813825E+02  0.18404799254E+03  0.12507839371E+03 0.  0.
         23    2    1    2    0    0  0.11304974420E+03 -0.63336472051E+02  0.73736727036E+02  0.17323518850E+03  0.88213220467E+02 0.  0.
          5    1    3    3  502    0 -0.11425353223E+03  0.94047254518E+02  0.23686663003E+02  0.14992426793E+03  0.41800000000E+01 0. -1.
         -5    1    3    3    0  502  0.12037880299E+01 -0.30710782467E+02  0.14225150822E+02  0.34123724610E+02  0.41800000000E+01 0. -1.
        -11    1    4    4    0    0  0.37282644204E+02  0.19826724156E+02  0.81347440613E+01  0.43003123265E+02  0.00000000000E+00 0.  1.
         11    1    4    4    0    0  0.75767099995E+02 -0.83163196207E+02  0.65601982975E+02  0.13023206523E+03  0.00000000000E+00 0. -1.
</event>
<event>
 8    1  0.7114239E-009  0.9695537E+02  0.7561462E-02  0.1286832E+00
         -2   -1    0    0    0  501 -0.00000000000E+00  0.00000000000E+00  0.23703825092E+02  0.23703825092E+02  0.00000000000E+00 0.  1.
          2   -1    0    0  501    0  0.00000000000E+00 -0.00000000000E+00 -0.65595246770E+03  0.65595246770E+03  0.00000000000E+00 0. -1.
         25    2    1    2    0    0 -0.22165043146E+02 -0.55187104117E+02 -0.40162042491E+03  0.42483086420E+03  0.12508154089E+03 0.  0.
         23    2    1    2    0    0  0.22165043146E+02  0.55187104117E+02 -0.23062821770E+03  0.25482542860E+03  0.90607497820E+02 0.  0.
          5    1    3    3  502    0 -0.42885302715E+02 -0.50498122961E+02 -0.86838085484E+02  0.10930478078E+03  0.41800000000E+01 0. -1.
         -5    1    3    3    0  502  0.20720259568E+02 -0.46889811562E+01 -0.31478233943E+03  0.31552608342E+03  0.41800000000E+01 0. -1.
        -11    1    4    4    0    0  0.47876687472E+02  0.33267454494E+01 -0.77908605015E+02  0.91504071898E+02  0.00000000000E+00 0.  1.
         11    1    4    4    0    0 -0.25711644326E+02  0.51860358667E+02 -0.15271961268E+03  0.16332135670E+03  0.00000000000E+00 0. -1.
</event>
<event>
 8    1  0.7114239E-009  0.3148456E+03  0.7561462E-02  0.1078046E+00
          2   -1    0    0  501    0  0.00000000000E+00  0.00000000000E+00  0.44007918619E+03  0.44007918619E+03  0.00000000000E+00 0. -1.
         -2   -1    0    0    0  501 -0.00000000000E+00 -0.00000000000E+00 -0.23914402400E+03  0.23914402400E+03  0.00000000000E+00 0.  1.
         25    2    1    2    0    0  0.18144630569E+03  0.24466599021E+03  0.12283715113E+03  0.35145468238E+03  0.12508884624E+03 0.  0.
         23    2    1    2    0    0 -0.18144630569E+03 -0.24466599021E+03  0.78098011052E+02  0.32776852781E+03  0.92459179510E+02 0.  0.
          5    1    3    3  502    0  0.11821657378E+03  0.22433461202E+03  0.12915785191E+03  0.28460569140E+03  0.41800000000E+01 0.  1.
         -5    1    3    3    0  502  0.63229731913E+02  0.20331378187E+02 -0.63207007731E+01  0.66848990980E+02  0.41800000000E+01 0.  1.
        -11    1    4    4    0    0 -0.12608434984E+03 -0.12434756118E+03  0.64890623559E+01  0.17720521205E+03  0.00000000000E+00 0.  1.
         11    1    4    4    0    0 -0.55361955857E+02 -0.12031842903E+03  0.71608948696E+02  0.15056331576E+03  0.00000000000E+00 0. -1.
</event>
<event>
 8    1  0.7114239E-009  0.7547540E+02  0.7561462E-02  0.1342405E+00
         -1   -1    0    0    0  501 -0.00000000000E+00  0.00000000000E+00  0.37626821663E+02  0.37626821663E+02  0.00000000000E+00 0.  1.
          1   -1    0    0  501    0  0.00000000000E+00 -0.00000000000E+00 -0.52221616587E+03  0.52221616587E+03  0.00000000000E+00 0. -1.
         25    2    1    2    0    0 -0.38389744878E+02  0.89181929170E+01 -0.41802910262E+03  0.43811981663E+03  0.12508931373E+03 0.  0.
         23    2    1    2    0    0  0.38389744878E+02 -0.89181929170E+01 -0.66560241587E+02  0.12172317090E+03  0.93983817214E+02 0.  0.
          5    1    3    3  502    0 -0.28930497382E+01  0.22164239159E+02 -0.49327631141E+01  0.23268600866E+02  0.41800000000E+01 0.  1.
         -5    1    3    3    0  502 -0.35496695140E+02 -0.13246046242E+02 -0.41309633950E+03  0.41485121576E+03  0.41800000000E+01 0.  1.
        -11    1    4    4    0    0  0.53607148450E+02  0.20161260971E+02 -0.67957349771E+02  0.88872966625E+02  0.00000000000E+00 0. -1.
         11    1    4    4    0    0 -0.15217403572E+02 -0.29079453888E+02  0.13971081833E+01  0.32850204279E+02  0.00000000000E+00 0.  1.
</event>
<event>
 8    1  0.7114239E-009  0.1352498E+03  0.7561462E-02  0.1219867E+00
          2   -1    0    0  501    0  0.00000000000E+00  0.00000000000E+00  0.58647973110E+03  0.58647973110E+03  0.00000000000E+00 0. -1.
         -2   -1    0    0    0  501 -0.00000000000E+00 -0.00000000000E+00 -0.42868338905E+02  0.42868338905E+02  0.00000000000E+00 0.  1.
         25    2    1    2    0    0 -0.58816989794E+02  0.92461710047E+02  0.36724264568E+03  0.40314241633E+03  0.12509212975E+03 0.  0.
         23    2    1    2    0    0  0.58816989794E+02 -0.92461710047E+02  0.17636874651E+03  0.22620565367E+03  0.89746626085E+02 0.  0.
          5    1    3    3  502    0  0.30476252199E+02  0.41248865743E+02  0.59763394738E+02  0.78863214642E+02  0.41800000000E+01 0. -1.
         -5    1    3    3    0  502 -0.89293241993E+02  0.51212844304E+02  0.30747925094E+03  0.32427920169E+03  0.41800000000E+01 0. -1.
        -11    1    4    4    0    0  0.19002223622E+02 -0.45872594563E+01 -0.55228125609E+01  0.20313269321E+02  0.00000000000E+00 0.  1.
         11    1    4    4    0    0  0.39814766172E+02 -0.87874450591E+02  0.18189155907E+03  0.20589238435E+03  0.00000000000E+00 0. -1.
</event>
<event>
 8    1  0.7114239E-009  0.1003843E+03  0.7561462E-02  0.1279490E+00
         -1   -1    0    0    0  501 -0.00000000000E+00  0.00000000000E+00  0.23625012806E+02  0.23625012806E+02  0.00000000000E+00 0.  1.
          1   -1    0    0  501    0  0.00000000000E+00 -0.00000000000E+00 -0.69426818388E+03  0.69426818388E+03  0.00000000000E+00 0. -1.
         25    2    1    2    0    0 -0.27089829603E+02  0.58844968683E+02 -0.40741331626E+03  0.43108054347E+03  0.12509290738E+03 0.  0.
         23    2    1    2    0    0  0.27089829603E+02 -0.58844968683E+02 -0.26322985481E+03  0.28681265322E+03  0.93674715783E+02 0.  0.
          5    1    3    3  502    0  0.20647617185E+02  0.18725888799E+02 -0.33174385079E+03  0.33293909044E+03  0.41800000000E+01 0. -1.
         -5    1    3    3    0  502 -0.47737446789E+02  0.40119079884E+02 -0.75669465478E+02  0.98141453027E+02  0.41800000000E+01 0. -1.
        -11    1    4    4    0    0  0.70468367375E+01  0.23915769956E+02 -0.33141455144E+02  0.41472617589E+02  0.00000000000E+00 0. -1.
         11    1    4    4    0    0  0.20042992866E+02 -0.82760738639E+02 -0.23008839966E+03  0.24534003563E+03  0.00000000000E+00 0.  1.
</event>
<event>
 8    1  0.7114239E-009  0.9729269E+02  0.7561462E-02  0.1286094E+00
         -4   -1    0    0    0  501 -0.00000000000E+00  0.00000000000E+00  0.43329836782E+03  0.43329836782E+03  0.00000000000E+00 0.  1.
          4   -1    0    0  501    0  0.00000000000E+00 -0.00000000000E+00 -0.34413653035E+02  0.34413653035E+02  0.00000000000E+00 0. -1.
         25    2    1    2    0    0  0.90225872513E+01 -0.57475836504E+01  0.33075548226E+03  0.35378072880E+03  0.12508866145E+03 0.  0.
         23    2    1    2    0    0 -0.90225872513E+01  0.57475836504E+01  0.68129232520E+02  0.11393129206E+03  0.90687955029E+02 0.  0.
          5    1    3    3  502    0  0.23836197912E+01 -0.60327945267E+02  0.10317008984E+03  0.11961054494E+03  0.41800000000E+01 0. -1.
         -5    1    3    3    0  502  0.66389674601E+01  0.54580361616E+02  0.22758539242E+03  0.23417018385E+03  0.41800000000E+01 0. -1.
        -11    1    4    4    0    0 -0.28781010470E+02 -0.27784550729E+02  0.63064957279E+02  0.74682773513E+02  0.00000000000E+00 0.  1.
         11    1    4    4    0    0  0.19758423219E+02  0.33532134379E+02  0.50642752405E+01  0.39248518543E+02  0.00000000000E+00 0. -1.
</event>
<event>
 8    1  0.7114239E-009  0.1684775E+03  0.7561462E-02  0.1179445E+00
          2   -1    0    0  501    0  0.00000000000E+00  0.00000000000E+00  0.37080087746E+03  0.37080087746E+03  0.00000000000E+00 0. -1.
         -2   -1    0    0    0  501 -0.00000000000E+00 -0.00000000000E+00 -0.17242243021E+03  0.17242243021E+03  0.00000000000E+00 0.  1.
         25    2    1    2    0    0  0.11241216270E+03  0.91873147703E+02 -0.84931313625E+02  0.20960712300E+03  0.12507856886E+03 0.  0.
         23    2    1    2    0    0 -0.11241216270E+03 -0.91873147703E+02  0.28330976087E+03  0.33361618467E+03  0.99790623179E+02 0.  0.
          5    1    3    3  502    0  0.67546478602E+02  0.10794199043E+03 -0.97167131198E+02  0.16022772499E+03  0.41800000000E+01 0. -1.
         -5    1    3    3    0  502  0.44865684102E+02 -0.16068842729E+02  0.12235817573E+02  0.49379398014E+02  0.41800000000E+01 0. -1.
        -11    1    4    4    0    0 -0.37576166432E+02  0.64747873970E+01  0.13644939736E+03  0.14167684777E+03  0.00000000000E+00 0. -1.
         11    1    4    4    0    0 -0.74835996272E+02 -0.98347935100E+02  0.14686036352E+03  0.19193933690E+03  0.00000000000E+00 0.  1.
</event>
<event>
 8    1  0.7114239E-009  0.1277902E+03  0.7561462E-02  0.1230772E+00
         -3   -1    0    0    0  501 -0.00000000000E+00  0.00000000000E+00  0.63623410893E+03  0.63623410893E+03  0.00000000000E+00 0.  1.
          3   -1    0    0  501    0  0.00000000000E+00 -0.00000000000E+00 -0.30092629399E+02  0.30092629399E+02  0.00000000000E+00 0. -1.
         25    2    1    2    0    0  0.46013990764E+02  0.61659402921E+02  0.24025759237E+03  0.28158609136E+03  0.12509135398E+03 0.  0.
         23    2    1    2    0    0 -0.46013990764E+02 -0.61659402921E+02  0.36588388716E+03  0.38474064697E+03  0.90747877294E+02 0.  0.
          5    1    3    3  502    0 -0.35489268832E+02  0.41052380198E+02  0.51581492270E+02  0.74986057817E+02  0.41800000000E+01 0. -1.
         -5    1    3    3    0  502  0.81503259596E+02  0.20607022723E+02  0.18867610010E+03  0.20660003354E+03  0.41800000000E+01 0. -1.
        -11    1    4    4    0    0 -0.26199416049E+02  0.19995013489E+02  0.13737824469E+03  0.14127629695E+03  0.00000000000E+00 0. -1.
         11    1    4    4    0    0 -0.19814574715E+02 -0.81654416410E+02  0.22850564247E+03  0.24346435002E+03  0.00000000000E+00 0.  1.
</event>
<event>
 8    1  0.7114239E-009  0.1226206E+03  0.7561462E-02  0.1238835E+00
         -1   -1    0    0    0  501 -0.00000000000E+00  0.00000000000E+00  0.51385281432E+02  0.51385281432E+02  0.00000000000E+00 0.  1.
          1   -1    0    0  501    0  0.00000000000E+00 -0.00000000000E+00 -0.40481133516E+03  0.40481133516E+03  0.00000000000E+00 0. -1.
         25    2    1    2    0    0  0.53305234379E+02 -0.60165018330E+02 -0.28930824271E+03  0.32528153061E+03  0.12509011717E+03 0.  0.
         23    2    1    2    0    0 -0.53305234379E+02  0.60165018330E+02 -0.64117811019E+02  0.13091508598E+03  0.81033256170E+02 0.  0.
          5    1    3    3  502    0 -0.27170940857E+02  0.58685091637E+01 -0.14259708844E+03  0.14534132742E+03  0.41800000000E+01 0.  1.
         -5    1    3    3    0  502  0.80476175237E+02 -0.66033527494E+02 -0.14671115427E+03  0.17994020318E+03  0.41800000000E+01 0.  1.
        -11    1    4    4    0    0 -0.34681455635E+02  0.79111758829E+02 -0.40648579980E+02  0.95466123858E+02  0.00000000000E+00 0.  1.
         11    1    4    4    0    0 -0.18623778745E+02 -0.18946740499E+02 -0.23469231039E+02  0.35448962127E+02  0.00000000000E+00 0. -1.
</event>
<event>
 8    1  0.7114239E-009  0.1204157E+03  0.7561462E-02  0.1242413E+00
         -2   -1    0    0    0  501 -0.00000000000E+00  0.00000000000E+00  0.46308936343E+02  0.46308936343E+02  0.00000000000E+00 0.  1.
          2   -1    0    0  501    0  0.00000000000E+00 -0.00000000000E+00 -0.39291288141E+03  0.39291288141E+03  0.00000000000E+00 0. -1.
         25    2    1    2    0    0 -0.29089538844E+02  0.68742084374E+02 -0.17794460952E+03  0.22995477213E+03  0.12507292966E+03 0.  0.
         23    2    1    2    0    0  0.29089538844E+02 -0.68742084374E+02 -0.16865933554E+03  0.20926704562E+03  0.98868849907E+02 0.  0.
          5    1    3    3  502    0 -0.72783582590E+02  0.66080217776E+02 -0.14398664022E+03  0.17439515486E+03  0.41800000000E+01 0.  1.
         -5    1    3    3    0  502  0.43694043746E+02  0.26618665981E+01 -0.33957969300E+02  0.55559617274E+02  0.41800000000E+01 0.  1.
        -11    1    4    4    0    0 -0.19676764050E+02 -0.31338876050E+02 -0.88503758649E+01  0.38047724617E+02  0.00000000000E+00 0.  1.
         11    1    4    4    0    0  0.48766302894E+02 -0.37403208324E+02 -0.15980895968E+03  0.17121932100E+03  0.00000000000E+00 0. -1.
</event>
<event>
 8    1  0.7114239E-009  0.1914622E+03  0.7561462E-02  0.1157149E+00
         -1   -1    0    0    0  501 -0.00000000000E+00  0.00000000000E+00  0.11828433069E+04  0.11828433069E+04  0.00000000000E+00 0.  1.
          1   -1    0    0  501    0  0.00000000000E+00 -0.00000000000E+00 -0.13687470827E+03  0.13687470827E+03  0.00000000000E+00 0. -1.
         25    2    1    2    0    0 -0.41373747529E+02  0.16243893708E+03  0.11017442704E+04  0.11214215924E+04  0.12509098819E+03 0.  0.
         23    2    1    2    0    0  0.41373747529E+02 -0.16243893708E+03 -0.55775671757E+02  0.19829642276E+03  0.90068587508E+02 0.  0.
          5    1    3    3  502    0  0.37858755905E+02  0.30032578791E+02  0.16273972943E+03  0.16981440787E+03  0.41800000000E+01 0.  1.
         -5    1    3    3    0  502 -0.79232503434E+02  0.13240635829E+03  0.93900454100E+03  0.95160718457E+03  0.41800000000E+01 0.  1.
        -11    1    4    4    0    0 -0.10107175769E+02 -0.93375138256E+02 -0.61011210621E+02  0.11199749670E+03  0.00000000000E+00 0. -1.
         11    1    4    4    0    0  0.51480923298E+02 -0.69063798821E+02  0.52355388641E+01  0.86298926056E+02  0.00000000000E+00 0.  1.
</event>
<event>
 8    1  0.7114239E-009  0.1230113E+03  0.7561462E-02  0.1238210E+00
          2   -1    0    0  501    0  0.00000000000E+00  0.00000000000E+00  0.53778378487E+03  0.53778378487E+03  0.00000000000E+00 0. -1.
         -2   -1    0    0    0  501 -0.00000000000E+00 -0.00000000000E+00 -0.64639288896E+02  0.64639288896E+02  0.00000000000E+00 0.  1.
         25    2    1    2    0    0 -0.10180314672E+03 -0.49691832965E+01  0.42980902297E+03  0.45909913560E+03  0.12509055368E+03 0.  0.
         23    2    1    2    0    0  0.10180314672E+03  0.49691832965E+01  0.43335473004E+02  0.14332393816E+03  0.90968206345E+02 0.  0.
          5    1    3    3  502    0 -0.22007417087E+02  0.36487407122E+02  0.38532908903E+02  0.57601343334E+02  0.41800000000E+01 0. -1.
         -5    1    3    3    0  502 -0.79795729632E+02 -0.41456590419E+02  0.39127611407E+03  0.40149779227E+03  0.41800000000E+01 0. -1.
        -11    1    4    4    0    0  0.86192181554E+02  0.23128328423E+02 -0.50003556337E+01  0.89381291629E+02  0.00000000000E+00 0.  1.
         11    1    4    4    0    0  0.15610965165E+02 -0.18159145126E+02  0.48335828638E+02  0.53942646535E+02  0.00000000000E+00 0. -1.
</event>
<event>
 8    1  0.7114239E-009  0.1023239E+03  0.7561462E-02  0.1275484E+00
          2   -1    0    0  501    0  0.00000000000E+00  0.00000000000E+00  0.15354924040E+03  0.15354924040E+03  0.00000000000E+00 0. -1.
         -2   -1    0    0    0  501 -0.00000000000E+00 -0.00000000000E+00 -0.94589932589E+02  0.94589932589E+02  0.00000000000E+00 0.  1.
         25    2    1    2    0    0  0.33042105740E+02  0.39722494498E+02  0.22199688432E+02  0.13715048761E+03  0.12509105789E+03 0.  0.
         23    2    1    2    0    0 -0.33042105740E+02 -0.39722494498E+02  0.36759619377E+02  0.11098868538E+03  0.91090950943E+02 0.  0.
          5    1    3    3  502    0  0.17838494772E+02  0.69246029079E+02 -0.27923688082E+02  0.76879315782E+02  0.41800000000E+01 0.  1.
         -5    1    3    3    0  502  0.15203610968E+02 -0.29523534581E+02  0.50123376514E+02  0.60271171831E+02  0.41800000000E+01 0.  1.
        -11    1    4    4    0    0 -0.26028724168E+02 -0.66739815826E+02  0.41331096425E+02  0.82704032731E+02  0.00000000000E+00 0. -1.
         11    1    4    4    0    0 -0.70133815719E+01  0.27017321328E+02 -0.45714770481E+01  0.28284652644E+02  0.00000000000E+00 0.  1.
</event>
<event>
 8    1  0.7114239E-009  0.1048891E+03  0.7561462E-02  0.1270338E+00
          1   -1    0    0  501    0  0.00000000000E+00  0.00000000000E+00  0.50702680448E+03  0.50702680448E+03  0.00000000000E+00 0. -1.
         -1   -1    0    0    0  501 -0.00000000000E+00 -0.00000000000E+00 -0.38133037033E+02  0.38133037033E+02  0.00000000000E+00 0.  1.
         25    2    1    2    0    0 -0.25097643677E+02 -0.23968166489E+02  0.41295465860E+03  0.43287604228E+03  0.12508298526E+03 0.  0.
         23    2    1    2    0    0  0.25097643677E+02  0.23968166489E+02  0.55939108847E+02  0.11228379923E+03  0.90962096215E+02 0.  0.
          5    1    3    3  502    0 -0.53394060768E+01  0.51319691358E+02  0.17287171118E+03  0.18045586969E+03  0.41800000000E+01 0. -1.
         -5    1    3    3    0  502 -0.19758237600E+02 -0.75287857846E+02  0.24008294742E+03  0.25242017259E+03  0.41800000000E+01 0. -1.
        -11    1    4    4    0    0 -0.87193236593E+00 -0.24797863904E+02  0.51120429714E+02  0.56824225946E+02  0.00000000000E+00 0. -1.
         11    1    4    4    0    0  0.25969576043E+02  0.48766030393E+02  0.48186791336E+01  0.55459573283E+02  0.00000000000E+00 0.  1.
</event>
<event>
 8    1  0.7114239E-009  0.8939040E+02  0.7561462E-02  0.1304335E+00
          3   -1    0    0  501    0  0.00000000000E+00  0.00000000000E+00  0.21658100227E+03  0.21658100227E+03  0.00000000000E+00 0. -1.
         -3   -1    0    0    0  501 -0.00000000000E+00 -0.00000000000E+00 -0.53138293392E+02  0.53138293392E+02  0.00000000000E+00 0.  1.
         25    2    1    2    0    0 -0.13020846478E+02  0.11801972786E+02  0.11577458759E+03  0.17134854548E+03  0.12509092654E+03 0.  0.
         23    2    1    2    0    0  0.13020846478E+02 -0.11801972786E+02  0.47668121294E+02  0.98370750183E+02  0.84236130604E+02 0.  0.
          5    1    3    3  502    0  0.17198442462E+02 -0.40187187614E+02  0.99732091772E+02  0.10897136780E+03  0.41800000000E+01 0.  1.
         -5    1    3    3    0  502 -0.30219288940E+02  0.51989160400E+02  0.16042495814E+02  0.62377177678E+02  0.41800000000E+01 0.  1.
        -11    1    4    4    0    0  0.43197280994E+02 -0.10118042436E+02  0.51420860740E+02  0.67915276539E+02  0.00000000000E+00 0. -1.
         11    1    4    4    0    0 -0.30176434516E+02 -0.16839303498E+01 -0.37527394461E+01  0.30455473644E+02  0.00000000000E+00 0.  1.
</event>
<event>
 8    1  0.7114239E-009  0.1575303E+03  0.7561462E-02  0.1191514E+00
         -1   -1    0    0    0  501 -0.00000000000E+00  0.00000000000E+00  0.80730397023E+02  0.80730397023E+02  0.00000000000E+00 0.  1.
          1   -1    0    0  501    0  0.00000000000E+00 -0.00000000000E+00 -0.52337532239E+03  0.52337532239E+03  0.00000000000E+00 0. -1.
         25    2    1    2    0    0 -0.97051754483E+02 -0.10912289783E+03 -0.91648116384E+02  0.21300892663E+03  0.12508627307E+03 0.  0.
         23    2    1    2    0    0  0.97051754483E+02  0.10912289783E+03 -0.35099680898E+03  0.39109679278E+03  0.91820975422E+02 0.  0.
          5    1    3    3  502    0  0.82445331124E+01 -0.16958686662E+02 -0.68425804366E+02  0.71099454869E+02  0.41800000000E+01 0.  1.
         -5    1    3    3    0  502 -0.10529628760E+03 -0.92164211166E+02 -0.23222312018E+02  0.14190947176E+03  0.41800000000E+01 0.  1.
        -11    1    4    4    0    0 -0.20067754243E+01  0.27006314277E+02 -0.14241220074E+02  0.30597066978E+02  0.00000000000E+00 0. -1.
         11    1    4    4    0    0  0.99058529907E+02  0.82116583550E+02 -0.33675558891E+03  0.36049972580E+03  0.00000000000E+00 0.  1.
</event>
<event>
 8    1  0.7114239E-009  0.1102697E+03  0.7561462E-02  0.1260071E+00
         -2   -1    0    0    0  501 -0.00000000000E+00  0.00000000000E+00  0.22064129617E+03  0.22064129617E+03  0.00000000000E+00 0. -1.
          2   -1    0    0  501    0  0.00000000000E+00 -0.00000000000E+00 -0.84305996886E+02  0.84305996886E+02  0.00000000000E+00 0.  1.
         25    2    1    2    0    0  0.59337417683E+02 -0.58134390944E+02  0.99029086780E+02  0.17987158031E+03  0.12508592577E+03 0.  0.
         23    2    1    2    0    0 -0.59337417683E+02  0.58134390944E+02  0.37306212499E+02  0.12507571274E+03  0.85741727759E+02 0.  0.
          5    1    3    3  502    0  0.68498577669E+02 -0.37458865625E+02 -0.24148742998E-01  0.78183724264E+02  0.41800000000E+01 0.  1.
         -5    1    3    3    0  502 -0.91611599864E+01 -0.20675525319E+02  0.99053235523E+02  0.10168785605E+03  0.41800000000E+01 0.  1.
        -11    1    4    4    0    0 -0.62325745550E+02  0.11914889431E+01  0.20738865571E+02  0.65696413521E+02  0.00000000000E+00 0.  1.
         11    1    4    4    0    0  0.29883278674E+01  0.56942902001E+02  0.16567346928E+02  0.59379299221E+02  0.00000000000E+00 0. -1.
</event>
<event>
 8    1  0.7114239E-009  0.1037390E+03  0.7561462E-02  0.1272624E+00
          1   -1    0    0  501    0  0.00000000000E+00  0.00000000000E+00  0.93486296606E+02  0.93486296606E+02  0.00000000000E+00 0. -1.
         -1   -1    0    0    0  501 -0.00000000000E+00 -0.00000000000E+00 -0.21060600821E+03  0.21060600821E+03  0.00000000000E+00 0.  1.
         25    2    1    2    0    0  0.38910807423E+02 -0.36977683497E+02  0.12969020450E+02  0.13673813581E+03  0.12509085611E+03 0.  0.
         23    2    1    2    0    0 -0.38910807423E+02  0.36977683497E+02 -0.13008873205E+03  0.16735416901E+03  0.90570081510E+02 0.  0.
          5    1    3    3  502    0  0.66338353085E+02  0.16015838475E+01  0.44231081282E+02  0.79857392345E+02  0.41800000000E+01 0.  1.
         -5    1    3    3    0  502 -0.27427545661E+02 -0.38579267345E+02 -0.31262060832E+02  0.56880743467E+02  0.41800000000E+01 0.  1.
        -11    1    4    4    0    0 -0.58296508373E+02  0.83442779514E+01 -0.11584954288E+03  0.12995855666E+03  0.00000000000E+00 0.  1.
         11    1    4    4    0    0  0.19385700950E+02  0.28633405546E+02 -0.14239189173E+02  0.37395612347E+02  0.00000000000E+00 0. -1.
</event>
<event>
 8    1  0.7114239E-009  0.9252807E+02  0.7561462E-02  0.1296843E+00
          1   -1    0    0  501    0  0.00000000000E+00  0.00000000000E+00  0.63611641307E+03  0.63611641307E+03  0.00000000000E+00 0. -1.
         -1   -1    0    0    0  501 -0.00000000000E+00 -0.00000000000E+00 -0.32945909224E+02  0.32945909224E+02  0.00000000000E+00 0.  1.
         25    2    1    2    0    0 -0.59413846336E+02  0.59382915912E+02  0.44046726584E+03  0.46552799105E+03  0.12509421383E+03 0.  0.
         23    2    1    2    0    0  0.59413846336E+02 -0.59382915912E+02  0.16270323801E+03  0.20353433125E+03  0.88868129831E+02 0.  0.
          5    1    3    3  502    0  0.69251984679E+01  0.24878623633E+02  0.33584800237E+03  0.33686534013E+03  0.41800000000E+01 0. -1.
         -5    1    3    3    0  502 -0.66339044804E+02  0.34504292279E+02  0.10461926347E+03  0.12866265091E+03  0.41800000000E+01 0. -1.
        -11    1    4    4    0    0  0.26792236430E+02 -0.27072328253E+02  0.15157935476E+03  0.15629150866E+03  0.00000000000E+00 0. -1.
         11    1    4    4    0    0  0.32621609906E+02 -0.32310587659E+02  0.11123883252E+02  0.47242822590E+02  0.00000000000E+00 0.  1.
</event>
<event>
 8    1  0.7114239E-009  0.1106862E+03  0.7561462E-02  0.1259304E+00
          2   -1    0    0  501    0  0.00000000000E+00  0.00000000000E+00  0.66292834243E+03  0.66292834243E+03  0.00000000000E+00 0. -1.
         -2   -1    0    0    0  501 -0.00000000000E+00 -0.00000000000E+00 -0.26143416947E+02  0.26143416947E+02  0.00000000000E+00 0.  1.
         25    2    1    2    0    0 -0.51330963006E+02  0.92982579596E+01  0.49285438397E+03  0.51114958129E+03  0.12508846988E+03 0.  0.
         23    2    1    2    0    0  0.51330963006E+02 -0.92982579596E+01  0.14393054151E+03  0.17792217808E+03  0.90658564454E+02 0.  0.
          5    1    3    3  502    0 -0.15204919292E+01  0.58935181940E+02  0.15187983514E+03  0.16297430560E+03  0.41800000000E+01 0.  1.
         -5    1    3    3    0  502 -0.49810471076E+02 -0.49636923980E+02  0.34097454883E+03  0.34817527569E+03  0.41800000000E+01 0.  1.
        -11    1    4    4    0    0  0.22115797028E+02 -0.42310645859E+02  0.31603773764E+02  0.57254674458E+02  0.00000000000E+00 0.  1.
         11    1    4    4    0    0  0.29215165977E+02  0.33012387899E+02  0.11232676775E+03  0.12066750362E+03  0.00000000000E+00 0. -1.
</event>
<event>
 8    1  0.7114239E-009  0.3133709E+03  0.7561462E-02  0.1078741E+00
         -1   -1    0    0    0  501 -0.00000000000E+00  0.00000000000E+00  0.26633194852E+03  0.26633194852E+03  0.00000000000E+00 0.  1.
          1   -1    0    0  501    0  0.00000000000E+00 -0.00000000000E+00 -0.41380814976E+03  0.41380814976E+03  0.00000000000E+00 0. -1.
         25    2    1    2    0    0  0.18901412365E+03  0.24071097480E+03 -0.14608792311E+03  0.36146579338E+03  0.12509087170E+03 0.  0.
         23    2    1    2    0    0 -0.18901412365E+03 -0.24071097480E+03 -0.13882781306E+01  0.31867430489E+03  0.88787797324E+02 0.  0.
          5    1    3    3  502    0  0.75067465608E+02  0.12594731787E+03 -0.49324126592E+01  0.14676393415E+03  0.41800000000E+01 0. -1.
         -5    1    3    3    0  502  0.11394665804E+03  0.11476365693E+03 -0.14115551045E+03  0.21470185924E+03  0.41800000000E+01 0. -1.
        -11    1    4    4    0    0 -0.11600904916E+03 -0.77573793256E+02  0.71937727516E+01  0.13974098630E+03  0.00000000000E+00 0. -1.
         11    1    4    4    0    0 -0.73005074490E+02 -0.16313718154E+03 -0.85820508823E+01  0.17893331859E+03  0.00000000000E+00 0.  1.
</event>
<event>
 8    1  0.7114239E-009  0.2121708E+03  0.7561462E-02  0.1139858E+00
          2   -1    0    0  501    0  0.00000000000E+00  0.00000000000E+00  0.65239909582E+03  0.65239909582E+03  0.00000000000E+00 0. -1.
         -2   -1    0    0    0  501 -0.00000000000E+00 -0.00000000000E+00 -0.77072299696E+02  0.77072299696E+02  0.00000000000E+00 0.  1.
         25    2    1    2    0    0 -0.19476597243E+03  0.22977160430E+02  0.29918482998E+03  0.37897332080E+03  0.12508989355E+03 0.  0.
         23    2    1    2    0    0  0.19476597243E+03 -0.22977160430E+02  0.27614196615E+03  0.35049807472E+03  0.90181932753E+02 0.  0.
          5    1    3    3  502    0 -0.10413756824E+03 -0.29061804750E+02  0.75174413219E+02  0.13174933175E+03  0.41800000000E+01 0.  1.
         -5    1    3    3    0  502 -0.90628404198E+02  0.52038965180E+02  0.22401041676E+03  0.24722398905E+03  0.41800000000E+01 0.  1.
        -11    1    4    4    0    0  0.13799990442E+03  0.21206465636E+02  0.14743941524E+03  0.20305681218E+03  0.00000000000E+00 0.  1.
         11    1    4    4    0    0  0.56766068011E+02 -0.44183626066E+02  0.12870255091E+03  0.14744126254E+03  0.00000000000E+00 0. -1.
</event>
<event>
 8    1  0.7114239E-009  0.1157720E+03  0.7561462E-02  0.1250239E+00
         -1   -1    0    0    0  501 -0.00000000000E+00  0.00000000000E+00  0.55488508070E+02  0.55488508070E+02  0.00000000000E+00 0.  1.
          1   -1    0    0  501    0  0.00000000000E+00 -0.00000000000E+00 -0.39929110749E+03  0.39929110749E+03  0.00000000000E+00 0. -1.
         25    2    1    2    0    0 -0.67946942656E+02 -0.25380046074E+02 -0.29049498753E+03  0.32449405567E+03  0.12509244835E+03 0.  0.
         23    2    1    2    0    0  0.67946942656E+02  0.25380046074E+02 -0.53307611888E+02  0.13028555988E+03  0.94189659058E+02 0.  0.
          5    1    3    3  502    0 -0.82201988720E+02 -0.49142416876E+02 -0.12973391041E+03  0.16130872263E+03  0.41800000000E+01 0.  1.
         -5    1    3    3    0  502  0.14255046064E+02  0.23762370802E+02 -0.16076107712E+03  0.16318533305E+03  0.41800000000E+01 0.  1.
        -11    1    4    4    0    0 -0.15641580500E+02  0.17845850962E+02  0.93943576414E+01  0.25522292072E+02  0.00000000000E+00 0.  1.
         11    1    4    4    0    0  0.83588523156E+02  0.75341951119E+01 -0.62701969529E+02  0.10476326781E+03  0.00000000000E+00 0. -1.
</event>
<event>
 8    1  0.7114239E-009  0.1235151E+03  0.7561462E-02  0.1237408E+00
          1   -1    0    0  501    0  0.00000000000E+00  0.00000000000E+00  0.12758806735E+03  0.12758806735E+03  0.00000000000E+00 0. -1.
         -1   -1    0    0    0  501 -0.00000000000E+00 -0.00000000000E+00 -0.13218905728E+03  0.13218905728E+03  0.00000000000E+00 0.  1.
         25    2    1    2    0    0 -0.87814349944E+01  0.64650428591E+02 -0.33570316208E+02  0.14503139712E+03  0.12510135292E+03 0.  0.
         23    2    1    2    0    0  0.87814349944E+01 -0.64650428591E+02  0.28969326274E+02  0.11474572750E+03  0.89836343415E+02 0.  0.
          5    1    3    3  502    0 -0.41939697308E+02  0.86453634906E+02 -0.56820468735E+01  0.96347948890E+02  0.41800000000E+01 0.  1.
         -5    1    3    3    0  502  0.33158262314E+02 -0.21803206314E+02 -0.27888269335E+02  0.48683448232E+02  0.41800000000E+01 0.  1.
        -11    1    4    4    0    0 -0.36581712739E+02 -0.52492436104E+02  0.14516133815E+02  0.65607893549E+02  0.00000000000E+00 0.  1.
         11    1    4    4    0    0  0.45363147733E+02 -0.12157992488E+02  0.14453192459E+02  0.49137833955E+02  0.00000000000E+00 0. -1.
</event>
<event>
 8    1  0.7114239E-009  0.1051630E+03  0.7561462E-02  0.1269799E+00
          2   -1    0    0  501    0  0.00000000000E+00  0.00000000000E+00  0.51611616631E+03  0.51611616631E+03  0.00000000000E+00 0. -1.
         -2   -1    0    0    0  501 -0.00000000000E+00 -0.00000000000E+00 -0.30663004687E+02  0.30663004687E+02  0.00000000000E+00 0.  1.
         25    2    1    2    0    0 -0.27247187804E+02 -0.12538109117E+02  0.38359842681E+03  0.40459252092E+03  0.12509093295E+03 0.  0.
         23    2    1    2    0    0  0.27247187804E+02  0.12538109117E+02  0.10185473481E+03  0.14218665008E+03  0.94567663784E+02 0.  0.
          5    1    3    3  502    0  0.40025772128E+02  0.11756172565E+02  0.60251553566E+02  0.73402943639E+02  0.41800000000E+01 0.  1.
         -5    1    3    3    0  502 -0.67272959932E+02 -0.24294281682E+02  0.32334687324E+03  0.33118957728E+03  0.41800000000E+01 0.  1.
        -11    1    4    4    0    0  0.11745689084E+02  0.52548382161E+02  0.40774946434E+02  0.67541764387E+02  0.00000000000E+00 0.  1.
         11    1    4    4    0    0  0.15501498719E+02 -0.40010273044E+02  0.61079788378E+02  0.74644885692E+02  0.00000000000E+00 0. -1.
</event>
<event>
 8    1  0.7114239E-009  0.9349611E+02  0.7561462E-02  0.1294600E+00
         -1   -1    0    0    0  501 -0.00000000000E+00  0.00000000000E+00  0.33600294074E+03  0.33600294074E+03  0.00000000000E+00 0.  1.
          1   -1    0    0  501    0  0.00000000000E+00 -0.00000000000E+00 -0.96601864963E+02  0.96601864963E+02  0.00000000000E+00 0. -1.
         25    2    1    2    0    0 -0.40481579046E+01  0.41505887900E+01 -0.47143062950E+02  0.13380537275E+03  0.12509114446E+03 0.  0.
         23    2    1    2    0    0  0.40481579046E+01 -0.41505887900E+01  0.28654413872E+03  0.29879943295E+03  0.84498181772E+02 0.  0.
          5    1    3    3  502    0 -0.32029345473E+02  0.49208008520E+02  0.52995972274E+01  0.59100467043E+02  0.41800000000E+01 0.  1.
         -5    1    3    3    0  502  0.27981187568E+02 -0.45057419730E+02 -0.52442660178E+02  0.74704905709E+02  0.41800000000E+01 0.  1.
        -11    1    4    4    0    0 -0.24470043319E+02  0.24411629350E+02  0.65099728385E+02  0.73706752088E+02  0.00000000000E+00 0. -1.
         11    1    4    4    0    0  0.28518201224E+02 -0.28562218140E+02  0.22144441034E+03  0.22509268086E+03  0.00000000000E+00 0.  1.
</event>
<event>
 8    1  0.7114239E-009  0.1170201E+03  0.7561462E-02  0.1248095E+00
          1   -1    0    0  501    0  0.00000000000E+00  0.00000000000E+00  0.71048858941E+03  0.71048858941E+03  0.00000000000E+00 0. -1.
         -1   -1    0    0    0  501 -0.00000000000E+00 -0.00000000000E+00 -0.76399744501E+02  0.76399744501E+02  0.00000000000E+00 0.  1.
         25    2    1    2    0    0 -0.11330575612E+02 -0.86140810722E+02  0.64330315294E+03  0.66108675120E+03  0.12509246507E+03 0.  0.
         23    2    1    2    0    0  0.11330575612E+02  0.86140810722E+02 -0.92143080256E+01  0.12580158271E+03  0.90512504800E+02 0.  0.
          5    1    3    3  502    0 -0.57429152556E+02 -0.31971912155E+02  0.45521777724E+03  0.45995761527E+03  0.41800000000E+01 0. -1.
         -5    1    3    3    0  502  0.46098576945E+02 -0.54168898567E+02  0.18808537570E+03  0.20112913593E+03  0.41800000000E+01 0. -1.
        -11    1    4    4    0    0 -0.11521354601E+01  0.84301201309E+02 -0.39417668908E+02  0.93068644454E+02  0.00000000000E+00 0.  1.
         11    1    4    4    0    0  0.12482711072E+02  0.18396094130E+01  0.30203360883E+02  0.32732938259E+02  0.00000000000E+00 0. -1.
</event>
<event>
 8    1  0.7114239E-009  0.8644903E+02  0.7561462E-02  0.1311686E+00
          1   -1    0    0  501    0  0.00000000000E+00  0.00000000000E+00  0.14704297787E+03  0.14704297787E+03  0.00000000000E+00 0. -1.
         -1   -1    0    0    0  501 -0.00000000000E+00 -0.00000000000E+00 -0.78194270949E+02  0.78194270949E+02  0.00000000000E+00 0.  1.
         25    2    1    2    0    0 -0.11417932143E+02 -0.87399202163E+01  0.36692268586E+02  0.13116650707E+03  0.12510625334E+03 0.  0.
         23    2    1    2    0    0  0.11417932143E+02  0.87399202163E+01  0.32156438337E+02  0.94070741748E+02  0.87226788010E+02 0.  0.
          5    1    3    3  502    0  0.25772004775E+02 -0.35799815535E+02  0.63754126716E+02  0.77639449353E+02  0.41800000000E+01 0.  1.
         -5    1    3    3    0  502 -0.37189936918E+02  0.27059895319E+02 -0.27061858131E+02  0.53527057720E+02  0.41800000000E+01 0.  1.
        -11    1    4    4    0    0  0.43873185841E+02 -0.99045868774E+01  0.34324606238E+02  0.56578581375E+02  0.00000000000E+00 0. -1.
         11    1    4    4    0    0 -0.32455253698E+02  0.18644507094E+02 -0.21681679006E+01  0.37492160373E+02  0.00000000000E+00 0.  1.
</event>
<event>
 8    1  0.7114239E-009  0.1114890E+03  0.7561462E-02  0.1257837E+00
         -2   -1    0    0    0  501 -0.00000000000E+00  0.00000000000E+00  0.26211754867E+03  0.26211754867E+03  0.00000000000E+00 0. -1.
          2   -1    0    0  501    0  0.00000000000E+00 -0.00000000000E+00 -0.90537300837E+02  0.90537300837E+02  0.00000000000E+00 0.  1.
         25    2    1    2    0    0 -0.59052944289E+02 -0.34147556668E+02 -0.46060521501E+01  0.14255630128E+03  0.12509107668E+03 0.  0.
         23    2    1    2    0    0  0.59052944289E+02  0.34147556668E+02  0.17618629998E+03  0.21009854822E+03  0.91904743118E+02 0.  0.
          5    1    3    3  502    0 -0.38217895125E+02  0.41157433759E+02  0.21179320123E+02  0.60171237833E+02  0.41800000000E+01 0.  1.
         -5    1    3    3    0  502 -0.20835049163E+02 -0.75304990427E+02 -0.25785372273E+02  0.82385063452E+02  0.41800000000E+01 0.  1.
        -11    1    4    4    0    0 -0.95100628849E+01 -0.35707812643E+01 -0.60136297841E+01  0.11804893820E+02  0.00000000000E+00 0.  1.
         11    1    4    4    0    0  0.68563007173E+02  0.37718337932E+02  0.18219992976E+03  0.19829365440E+03  0.00000000000E+00 0. -1.
</event>
<event>
 8    1  0.7114239E-009  0.1335751E+03  0.7561462E-02  0.1222245E+00
         -1   -1    0    0    0  501 -0.00000000000E+00  0.00000000000E+00  0.33580999773E+02  0.33580999773E+02  0.00000000000E+00 0.  1.
          1   -1    0    0  501    0  0.00000000000E+00 -0.00000000000E+00 -0.63643059784E+03  0.63643059784E+03  0.00000000000E+00 0. -1.
         25    2    1    2    0    0  0.57340871587E+02  0.75492122745E+02 -0.27263458528E+03  0.31458376886E+03  0.12508514855E+03 0.  0.
         23    2    1    2    0    0 -0.57340871587E+02 -0.75492122745E+02 -0.33021501279E+03  0.35542782876E+03  0.91104064854E+02 0.  0.
          5    1    3    3  502    0  0.84420020569E+02  0.63890468167E+02 -0.26262126920E+03  0.28318922160E+03  0.41800000000E+01 0. -1.
         -5    1    3    3    0  502 -0.27079148981E+02  0.11601654579E+02 -0.10013316081E+02  0.31394547257E+02  0.41800000000E+01 0. -1.
        -11    1    4    4    0    0 -0.31943726530E+02 -0.94478163502E+02 -0.24683065266E+03  0.26621776075E+03  0.00000000000E+00 0. -1.
         11    1    4    4    0    0 -0.25397145058E+02  0.18986040757E+02 -0.83384360126E+02  0.89210068010E+02  0.00000000000E+00 0.  1.
</event>
<event>
 8    1  0.7114239E-009  0.1462787E+03  0.7561462E-02  0.1205122E+00
          2   -1    0    0  501    0  0.00000000000E+00  0.00000000000E+00  0.66522151968E+02  0.66522151968E+02  0.00000000000E+00 0.  1.
         -2   -1    0    0    0  501 -0.00000000000E+00 -0.00000000000E+00 -0.38737623197E+03  0.38737623197E+03  0.00000000000E+00 0. -1.
         25    2    1    2    0    0  0.10434086482E+03  0.56112220566E+02 -0.17051831561E+03  0.24240451975E+03  0.12509139806E+03 0.  0.
         23    2    1    2    0    0 -0.10434086482E+03 -0.56112220566E+02 -0.15033576439E+03  0.21149386419E+03  0.89962298575E+02 0.  0.
          5    1    3    3  502    0  0.18120158345E+02  0.62298152324E+02 -0.13307690311E+03  0.14810919777E+03  0.41800000000E+01 0. -1.
         -5    1    3    3    0  502  0.86220706479E+02 -0.61859317580E+01 -0.37441412491E+02  0.94295321977E+02  0.41800000000E+01 0. -1.
        -11    1    4    4    0    0  0.12166963812E+02 -0.98064807460E+01  0.14769858537E+00  0.15627664186E+02  0.00000000000E+00 0.  1.
         11    1    4    4    0    0 -0.11650782864E+03 -0.46305739820E+02 -0.15048346298E+03  0.19586620000E+03  0.00000000000E+00 0. -1.
</event>
<event>
 8    1  0.7114239E-009  0.1425417E+03  0.7561462E-02  0.1209949E+00
          1   -1    0    0  501    0  0.00000000000E+00  0.00000000000E+00  0.23528311228E+03  0.23528311228E+03  0.00000000000E+00 0. -1.
         -1   -1    0    0    0  501 -0.00000000000E+00 -0.00000000000E+00 -0.13684375850E+03  0.13684375850E+03  0.00000000000E+00 0.  1.
         25    2    1    2    0    0  0.70209632281E+01  0.13999761881E+03  0.76011680764E+02  0.20266743402E+03  0.12509071111E+03 0.  0.
         23    2    1    2    0    0 -0.70209632281E+01 -0.13999761881E+03  0.22427673022E+02  0.16945943676E+03  0.92546599032E+02 0.  0.
          5    1    3    3  502    0  0.16528221884E+02  0.12754986782E+03  0.38865595783E+01  0.12874287804E+03  0.41800000000E+01 0. -1.
         -5    1    3    3    0  502 -0.95072586560E+01  0.12447750983E+02  0.72125121185E+02  0.73924555986E+02  0.41800000000E+01 0. -1.
        -11    1    4    4    0    0 -0.49486289801E+01 -0.11423582334E+03  0.55814348270E+02  0.12723817720E+03  0.00000000000E+00 0. -1.
         11    1    4    4    0    0 -0.20723342480E+01 -0.25761795464E+02 -0.33386675247E+02  0.42221259560E+02  0.00000000000E+00 0.  1.
</event>
<event>
 8    1  0.7114239E-009  0.2314858E+03  0.7561462E-02  0.1125598E+00
         -1   -1    0    0    0  501 -0.00000000000E+00  0.00000000000E+00  0.50674861678E+03  0.50674861678E+03  0.00000000000E+00 0.  1.
          1   -1    0    0  501    0  0.00000000000E+00 -0.00000000000E+00 -0.15395443420E+03  0.15395443420E+03  0.00000000000E+00 0. -1.
         25    2    1    2    0    0 -0.21713858986E+03  0.53715957525E+02  0.30663493445E+02  0.25811391335E+03  0.12509185079E+03 0.  0.
         23    2    1    2    0    0  0.21713858986E+03 -0.53715957525E+02  0.32213068913E+03  0.40258913763E+03  0.90968464617E+02 0.  0.
          5    1    3    3  502    0 -0.14559883431E+02 -0.98413559191E+00 -0.35046121802E+02  0.38192430948E+02  0.41800000000E+01 0.  1.
         -5    1    3    3    0  502 -0.20257870643E+03  0.54700093117E+02  0.65709615246E+02  0.21992148240E+03  0.41800000000E+01 0.  1.
        -11    1    4    4    0    0  0.38189545610E+02 -0.44626625649E+02  0.52072759910E+02  0.78495537678E+02  0.00000000000E+00 0. -1.
         11    1    4    4    0    0  0.17894904425E+03 -0.90893318765E+01  0.27005792922E+03  0.32409359995E+03  0.00000000000E+00 0.  1.
</event>
<event>
 8    1  0.7114239E-009  0.9761642E+02  0.7561462E-02  0.1285390E+00
          3   -1    0    0  501    0  0.00000000000E+00  0.00000000000E+00  0.83041593023E+03  0.83041593023E+03  0.00000000000E+00 0. -1.
         -3   -1    0    0    0  501 -0.00000000000E+00 -0.00000000000E+00 -0.24904889900E+02  0.24904889900E+02  0.00000000000E+00 0.  1.
         25    2    1    2    0    0 -0.13421000560E+02 -0.19570832927E+02  0.73143990132E+03  0.74243903968E+03  0.12509299601E+03 0.  0.
         23    2    1    2    0    0  0.13421000560E+02  0.19570832927E+02  0.74071139015E+02  0.11288178045E+03  0.81808446782E+02 0.  0.
          5    1    3    3  502    0  0.34411531286E+02 -0.56813344263E+02  0.38564292113E+03  0.39134364002E+03  0.41800000000E+01 0.  1.
         -5    1    3    3    0  502 -0.47832531846E+02  0.37242511336E+02  0.34579698019E+03  0.35109539966E+03  0.41800000000E+01 0.  1.
        -11    1    4    4    0    0  0.36429671287E+02  0.25113365533E+02  0.11111609151E+02  0.45620937479E+02  0.00000000000E+00 0. -1.
         11    1    4    4    0    0 -0.23008670727E+02 -0.55425326067E+01  0.62959529865E+02  0.67260842971E+02  0.00000000000E+00 0.  1.
</event>
<event>
 8    1  0.7114239E-009  0.2216655E+03  0.7561462E-02  0.1132647E+00
         -2   -1    0    0    0  501 -0.00000000000E+00  0.00000000000E+00  0.66781672927E+02  0.66781672927E+02  0.00000000000E+00 0.  1.
          2   -1    0    0  501    0  0.00000000000E+00 -0.00000000000E+00 -0.91718724933E+03  0.91718724933E+03  0.00000000000E+00 0. -1.
         25    2    1    2    0    0 -0.10348533669E+03 -0.19468945048E+03 -0.49688700108E+03  0.55781501140E+03  0.12509075929E+03 0.  0.
         23    2    1    2    0    0  0.10348533669E+03  0.19468945048E+03 -0.35351857532E+03  0.42615391086E+03  0.89546499687E+02 0.  0.
          5    1    3    3  502    0 -0.99152780928E+02 -0.18055435768E+03 -0.32212035726E+03  0.38237435453E+03  0.41800000000E+01 0. -1.
         -5    1    3    3    0  502 -0.43325557666E+01 -0.14135092793E+02 -0.17476664382E+03  0.17544065687E+03  0.41800000000E+01 0. -1.
        -11    1    4    4    0    0  0.68746647327E+02  0.15254633101E+03 -0.18710545020E+03  0.25100783676E+03  0.00000000000E+00 0.  1.
         11    1    4    4    0    0  0.34738689368E+02  0.42143119464E+02 -0.16641312512E+03  0.17514607409E+03  0.00000000000E+00 0. -1.
</event>
<event>
 8    1  0.7114239E-009  0.1066359E+03  0.7561462E-02  0.1266930E+00
         -2   -1    0    0    0  501 -0.00000000000E+00  0.00000000000E+00  0.32825644791E+03  0.32825644791E+03  0.00000000000E+00 0.  1.
          2   -1    0    0  501    0  0.00000000000E+00 -0.00000000000E+00 -0.36433368687E+02  0.36433368687E+02  0.00000000000E+00 0. -1.
         25    2    1    2    0    0 -0.14634417588E+02 -0.34718635672E+01  0.14864344221E+03  0.19485622924E+03  0.12509139518E+03 0.  0.
         23    2    1    2    0    0  0.14634417588E+02  0.34718635672E+01  0.14317963701E+03  0.16983358735E+03  0.90093390010E+02 0.  0.
          5    1    3    3  502    0  0.46679945174E+02  0.28020105814E+02  0.47417076241E+02  0.72318705260E+02  0.41800000000E+01 0. -1.
         -5    1    3    3    0  502 -0.61314362762E+02 -0.31491969381E+02  0.10122636597E+03  0.12253752398E+03  0.41800000000E+01 0. -1.
        -11    1    4    4    0    0  0.41129195033E+02 -0.27025187198E+02  0.94731386519E+02  0.10675208204E+03  0.00000000000E+00 0.  1.
         11    1    4    4    0    0 -0.26494777445E+02  0.30497050765E+02  0.48448250494E+02  0.63081505318E+02  0.00000000000E+00 0. -1.
</event>
<event>
 8    1  0.7114239E-009  0.1118415E+03  0.7561462E-02  0.1257197E+00
         -1   -1    0    0    0  501 -0.00000000000E+00  0.00000000000E+00  0.17577180729E+02  0.17577180729E+02  0.00000000000E+00 0.  1.
          1   -1    0    0  501    0  0.00000000000E+00 -0.00000000000E+00 -0.77758585871E+03  0.77758585871E+03  0.00000000000E+00 0. -1.
         25    2    1    2    0    0  0.15356520639E+02 -0.28237444552E+02 -0.53200055322E+03  0.54745295900E+03  0.12508787989E+03 0.  0.
         23    2    1    2    0    0 -0.15356520639E+02  0.28237444552E+02 -0.22800812476E+03  0.24771008044E+03  0.91320331748E+02 0.  0.
          5    1    3    3  502    0  0.20789262955E+02  0.46959584946E+02 -0.16890974583E+03  0.17659380144E+03  0.41800000000E+01 0.  1.
         -5    1    3    3    0  502 -0.54327423158E+01 -0.75197029499E+02 -0.36309080739E+03  0.37085915756E+03  0.41800000000E+01 0.  1.
        -11    1    4    4    0    0  0.97465208107E+01 -0.30901756625E+02 -0.83357973434E+02  0.89434137584E+02  0.00000000000E+00 0.  1.
         11    1    4    4    0    0 -0.25103041450E+02  0.59139201177E+02 -0.14465015133E+03  0.15827594285E+03  0.00000000000E+00 0. -1.
</event>
<event>
 8    1  0.7114239E-009  0.9965990E+02  0.7561462E-02  0.1281013E+00
          2   -1    0    0  501    0  0.00000000000E+00  0.00000000000E+00  0.97571021201E+02  0.97571021201E+02  0.00000000000E+00 0. -1.
         -2   -1    0    0    0  501 -0.00000000000E+00 -0.00000000000E+00 -0.16518942634E+03  0.16518942634E+03  0.00000000000E+00 0.  1.
         25    2    1    2    0    0  0.21714887802E+02  0.58137488450E+02 -0.61489120436E+02  0.15257827772E+03  0.12509082694E+03 0.  0.
         23    2    1    2    0    0 -0.21714887802E+02 -0.58137488450E+02 -0.61292847077E+01  0.11018216982E+03  0.90835227200E+02 0.  0.
          5    1    3    3  502    0  0.55428050352E+02  0.35655697507E+02  0.13346446249E+02  0.67373567205E+02  0.41800000000E+01 0. -1.
         -5    1    3    3    0  502 -0.33713162550E+02  0.22481790943E+02 -0.74835566685E+02  0.85204710516E+02  0.41800000000E+01 0. -1.
        -11    1    4    4    0    0 -0.43012510405E+02 -0.56741114192E+02 -0.30785122895E+02  0.77571604874E+02  0.00000000000E+00 0.  1.
         11    1    4    4    0    0  0.21297622603E+02 -0.13963742577E+01  0.24655838187E+02  0.32610564949E+02  0.00000000000E+00 0. -1.
</event>
<event>
 8    1  0.7114239E-009  0.1340686E+03  0.7561462E-02  0.1221541E+00
          1   -1    0    0  501    0  0.00000000000E+00  0.00000000000E+00  0.10794093515E+03  0.10794093515E+03  0.00000000000E+00 0.  1.
         -1   -1    0    0    0  501 -0.00000000000E+00 -0.00000000000E+00 -0.18213522623E+03  0.18213522623E+03  0.00000000000E+00 0. -1.
         25    2    1    2    0    0 -0.49972465814E+02  0.71963532116E+02 -0.55878240153E+02  0.16261021119E+03  0.12507480068E+03 0.  0.
         23    2    1    2    0    0  0.49972465814E+02 -0.71963532116E+02 -0.18316050930E+02  0.12746595019E+03  0.90752925255E+02 0.  0.
          5    1    3    3  502    0  0.13252836628E+02  0.86485702983E+02 -0.29063695686E+02  0.92290765010E+02  0.41800000000E+01 0.  1.
         -5    1    3    3    0  502 -0.63225302441E+02 -0.14522170867E+02 -0.26814544467E+02  0.70319446176E+02  0.41800000000E+01 0.  1.
        -11    1    4    4    0    0 -0.16442556280E+02 -0.36980045134E+02  0.17742593591E+02  0.44189150506E+02  0.00000000000E+00 0.  1.
         11    1    4    4    0    0  0.66415022094E+02 -0.34983486982E+02 -0.36058644520E+02  0.83276799685E+02  0.00000000000E+00 0. -1.
</event>
<event>
 8    1  0.7114239E-009  0.7124973E+02  0.7561462E-02  0.1355894E+00
          4   -1    0    0  501    0  0.00000000000E+00  0.00000000000E+00  0.45965541169E+03  0.45965541169E+03  0.00000000000E+00 0.  1.
         -4   -1    0    0    0  501 -0.00000000000E+00 -0.00000000000E+00 -0.37386293996E+02  0.37386293996E+02  0.00000000000E+00 0. -1.
         25    2    1    2    0    0  0.46549430496E+02 -0.21769282625E+02  0.33172413974E+03  0.35823027408E+03  0.12508906122E+03 0.  0.
         23    2    1    2    0    0 -0.46549430496E+02  0.21769282625E+02  0.90544977952E+02  0.13881143160E+03  0.91812141713E+02 0.  0.
          5    1    3    3  502    0  0.29499601030E+02 -0.30726363214E+02  0.33545338988E+03  0.33817271481E+03  0.41800000000E+01 0. -1.
         -5    1    3    3    0  502  0.17049829465E+02  0.89570805886E+01 -0.37292501392E+01  0.20057559275E+02  0.41800000000E+01 0. -1.
        -11    1    4    4    0    0 -0.33739407707E+02 -0.17978814106E+02  0.89178477495E+02  0.97027760138E+02  0.00000000000E+00 0.  1.
         11    1    4    4    0    0 -0.12810022789E+02  0.39748096731E+02  0.13665004567E+01  0.41783671465E+02  0.00000000000E+00 0. -1.
</event>
<event>
 8    1  0.7114239E-009  0.1285895E+03  0.7561462E-02  0.1229564E+00
         -2   -1    0    0    0  501 -0.00000000000E+00  0.00000000000E+00  0.16615700314E+02  0.16615700314E+02  0.00000000000E+00 0.  1.
          2   -1    0    0  501    0  0.00000000000E+00 -0.00000000000E+00 -0.11116033335E+04  0.11116033335E+04  0.00000000000E+00 0. -1.
         25    2    1    2    0    0 -0.19036690920E+02 -0.76690204678E+02 -0.76124233115E+03  0.77548635244E+03  0.12508162529E+03 0.  0.
         23    2    1    2    0    0  0.19036690920E+02  0.76690204678E+02 -0.33374530204E+03  0.35273268138E+03  0.82405307995E+02 0.  0.
          5    1    3    3  502    0 -0.64285387475E+02 -0.13167183103E+02 -0.25946172260E+03  0.26766367637E+03  0.41800000000E+01 0.  1.
         -5    1    3    3    0  502  0.45248696555E+02 -0.63523021575E+02 -0.50178060855E+03  0.50782267607E+03  0.41800000000E+01 0.  1.
        -11    1    4    4    0    0  0.37548015665E+02  0.33665805921E+01 -0.13205772022E+03  0.13733327643E+03  0.00000000000E+00 0. -1.
         11    1    4    4    0    0 -0.18511324745E+02  0.73323624086E+02 -0.20168758182E+03  0.21539940495E+03  0.00000000000E+00 0.  1.
</event>
<event>
 8    1  0.7114239E-009  0.9837082E+02  0.7561462E-02  0.1283760E+00
          3   -1    0    0  501    0  0.00000000000E+00  0.00000000000E+00  0.34401759314E+02  0.34401759314E+02  0.00000000000E+00 0. -1.
         -3   -1    0    0    0  501 -0.00000000000E+00 -0.00000000000E+00 -0.63780640321E+03  0.63780640321E+03  0.00000000000E+00 0.  1.
         25    2    1    2    0    0 -0.88155723059E+02  0.46077009808E+01 -0.44778325616E+03  0.47323592961E+03  0.12509891350E+03 0.  0.
         23    2    1    2    0    0  0.88155723059E+02 -0.46077009808E+01 -0.15562138773E+03  0.19897223291E+03  0.87059007198E+02 0.  0.
          5    1    3    3  502    0 -0.10749867143E+02  0.56614748622E+01 -0.34118894030E+03  0.34143077969E+03  0.41800000000E+01 0. -1.
         -5    1    3    3    0  502 -0.77405855916E+02 -0.10537738814E+01 -0.10659431586E+03  0.13180514991E+03  0.41800000000E+01 0. -1.
        -11    1    4    4    0    0  0.29340530781E+02 -0.30306884672E+02 -0.11626833384E+03  0.12368386903E+03  0.00000000000E+00 0.  1.
         11    1    4    4    0    0  0.58815192278E+02  0.25699183691E+02 -0.39353053892E+02  0.75288363880E+02  0.00000000000E+00 0. -1.
</event>
<event>
 8    1  0.7114239E-009  0.2278855E+03  0.7561462E-02  0.1128137E+00
         -2   -1    0    0    0  501 -0.00000000000E+00  0.00000000000E+00  0.17485620783E+03  0.17485620783E+03  0.00000000000E+00 0.  1.
          2   -1    0    0  501    0  0.00000000000E+00 -0.00000000000E+00 -0.61694307112E+03  0.61694307112E+03  0.00000000000E+00 0. -1.
         25    2    1    2    0    0  0.11791745190E+03  0.18056765522E+03 -0.49462151766E+03  0.55390131555E+03  0.12508804123E+03 0.  0.
         23    2    1    2    0    0 -0.11791745190E+03 -0.18056765522E+03  0.52534654377E+02  0.23789796340E+03  0.85594085689E+02 0.  0.
          5    1    3    3  502    0  0.66844956720E+02  0.26262837236E+02 -0.75209292006E+02  0.10407638955E+03  0.41800000000E+01 0. -1.
         -5    1    3    3    0  502  0.51072495182E+02  0.15430481799E+03 -0.41941222566E+03  0.44982492600E+03  0.41800000000E+01 0. -1.
        -11    1    4    4    0    0 -0.80045602955E+02 -0.15808898058E+03  0.69995396333E+02  0.19052238672E+03  0.00000000000E+00 0.  1.
         11    1    4    4    0    0 -0.37871848946E+02 -0.22478674639E+02 -0.17460741956E+02  0.47375576681E+02  0.00000000000E+00 0. -1.
</event>
<event>
 8    1  0.7114239E-009  0.1665808E+03  0.7561462E-02  0.1181461E+00
          1   -1    0    0  501    0  0.00000000000E+00  0.00000000000E+00  0.10861385151E+03  0.10861385151E+03  0.00000000000E+00 0. -1.
         -1   -1    0    0    0  501 -0.00000000000E+00 -0.00000000000E+00 -0.28670703835E+03  0.28670703835E+03  0.00000000000E+00 0.  1.
         25    2    1    2    0    0 -0.12153139573E+03 -0.40197960699E+02 -0.14755935263E+03  0.23196435582E+03  0.12509174085E+03 0.  0.
         23    2    1    2    0    0  0.12153139573E+03  0.40197960699E+02 -0.30533834212E+02  0.16335653405E+03  0.96784740491E+02 0.  0.
          5    1    3    3  502    0 -0.43325912039E+02 -0.77464037692E+02 -0.52164333903E+02  0.10303592539E+03  0.41800000000E+01 0.  1.
         -5    1    3    3    0  502 -0.78205483691E+02  0.37266076993E+02 -0.95395018727E+02  0.12892843042E+03  0.41800000000E+01 0.  1.
        -11    1    4    4    0    0  0.12513395582E+03  0.59060397285E+02 -0.36756525032E+02  0.14317010707E+03  0.00000000000E+00 0.  1.
         11    1    4    4    0    0 -0.36025600867E+01 -0.18862436586E+02  0.62226908197E+01  0.20186426979E+02  0.00000000000E+00 0. -1.
</event>
<event>
 8    1  0.7114239E-009  0.1171348E+03  0.7561462E-02  0.1247900E+00
          1   -1    0    0  501    0  0.00000000000E+00  0.00000000000E+00  0.80362912573E+03  0.80362912573E+03  0.00000000000E+00 0. -1.
         -1   -1    0    0    0  501 -0.00000000000E+00 -0.00000000000E+00 -0.24343690186E+02  0.24343690186E+02  0.00000000000E+00 0.  1.
         25    2    1    2    0    0 -0.67293203934E+02 -0.57936986320E+02  0.42907926867E+03  0.45567779670E+03  0.12509262934E+03 0.  0.
         23    2    1    2    0    0  0.67293203934E+02  0.57936986320E+02  0.35020616687E+03  0.37229501922E+03  0.89856287162E+02 0.  0.
          5    1    3    3  502    0  0.78182291989E+00  0.10948641315E+02  0.26385191177E+03  0.26411321008E+03  0.41800000000E+01 0.  1.
         -5    1    3    3    0  502 -0.68075026854E+02 -0.68885627635E+02  0.16522735690E+03  0.19156458661E+03  0.41800000000E+01 0.  1.
        -11    1    4    4    0    0 -0.19301037095E+02 -0.32276678342E+01  0.70688173412E+02  0.73346886320E+02  0.00000000000E+00 0. -1.
         11    1    4    4    0    0  0.86594241029E+02  0.61164654154E+02  0.27951799346E+03  0.29894813290E+03  0.00000000000E+00 0.  1.
</event>
<event>
 8    1  0.7114239E-009  0.1093446E+03  0.7561462E-02  0.1261789E+00
         -1   -1    0    0    0  501 -0.00000000000E+00  0.00000000000E+00  0.25651537736E+03  0.25651537736E+03  0.00000000000E+00 0.  1.
          1   -1    0    0  501    0  0.00000000000E+00 -0.00000000000E+00 -0.75985242760E+02  0.75985242760E+02  0.00000000000E+00 0. -1.
         25    2    1    2    0    0 -0.92415577658E+01 -0.86293790942E+02  0.10174688318E+03  0.18311775971E+03  0.12509061092E+03 0.  0.
         23    2    1    2    0    0  0.92415577658E+01  0.86293790942E+02  0.78783251412E+02  0.14938286040E+03  0.92608927941E+02 0.  0.
          5    1    3    3  502    0 -0.19637896325E+02 -0.18008053888E+02  0.11015604007E+03  0.11340971097E+03  0.41800000000E+01 0.  1.
         -5    1    3    3    0  502  0.10396338559E+02 -0.68285737054E+02 -0.84091568883E+01  0.69708048746E+02  0.41800000000E+01 0.  1.
        -11    1    4    4    0    0 -0.38724679251E+02  0.33668691889E+02  0.52686361361E+02  0.73546137017E+02  0.00000000000E+00 0.  1.
         11    1    4    4    0    0  0.47966237016E+02  0.52625099053E+02  0.26096890051E+02  0.75836723387E+02  0.00000000000E+00 0. -1.
</event>
<event>
 8    1  0.7114239E-009  0.1287354E+03  0.7561462E-02  0.1229344E+00
          2   -1    0    0  501    0  0.00000000000E+00  0.00000000000E+00  0.10677116562E+04  0.10677116562E+04  0.00000000000E+00 0. -1.
         -2   -1    0    0    0  501 -0.00000000000E+00 -0.00000000000E+00 -0.21723552066E+02  0.21723552066E+02  0.00000000000E+00 0.  1.
         25    2    1    2    0    0 -0.83909851729E+02  0.21650495569E+02  0.78124717071E+03  0.79592957463E+03  0.12508852405E+03 0.  0.
         23    2    1    2    0    0  0.83909851729E+02 -0.21650495569E+02  0.26474093341E+03  0.29350563362E+03  0.92456411189E+02 0.  0.
          5    1    3    3  502    0 -0.50409312092E+02  0.60922735035E+02  0.25183962276E+03  0.26399497416E+03  0.41800000000E+01 0. -1.
         -5    1    3    3    0  502 -0.33500539637E+02 -0.39272239466E+02  0.52940754795E+03  0.53193460047E+03  0.41800000000E+01 0. -1.
        -11    1    4    4    0    0  0.10392459118E+03 -0.13151679569E+02  0.22548269455E+03  0.24862769932E+03  0.00000000000E+00 0. -1.
         11    1    4    4    0    0 -0.20014739454E+02 -0.84988160000E+01  0.39258238856E+02  0.44877934298E+02  0.00000000000E+00 0.  1.
</event>
<event>
 8    1  0.7114239E-009  0.1451017E+03  0.7561462E-02  0.1206624E+00
          4   -1    0    0  501    0  0.00000000000E+00  0.00000000000E+00  0.12650661044E+03  0.12650661044E+03  0.00000000000E+00 0. -1.
         -4   -1    0    0    0  501 -0.00000000000E+00 -0.00000000000E+00 -0.23235980043E+03  0.23235980043E+03  0.00000000000E+00 0.  1.
         25    2    1    2    0    0  0.67564375858E+02  0.95548117503E+02  0.95711767343E+01  0.17155972272E+03  0.12508694334E+03 0.  0.
         23    2    1    2    0    0 -0.67564375858E+02 -0.95548117503E+02 -0.11542436672E+03  0.18730668814E+03  0.89814382732E+02 0.  0.
          5    1    3    3  502    0  0.10365500408E+03  0.69173293958E+02 -0.37059767032E+01  0.12474177781E+03  0.41800000000E+01 0. -1.
         -5    1    3    3    0  502 -0.36090628223E+02  0.26374823545E+02  0.13277153438E+02  0.46817944913E+02  0.41800000000E+01 0. -1.
        -11    1    4    4    0    0 -0.69195482332E+02 -0.83418165780E+02 -0.12935835017E+03  0.16876074163E+03  0.00000000000E+00 0.  1.
         11    1    4    4    0    0  0.16311064741E+01 -0.12129951723E+02  0.13933983449E+02  0.18545946508E+02  0.00000000000E+00 0. -1.
</event>
<event>
 8    1  0.7114239E-009  0.7832555E+02  0.7561462E-02  0.1333872E+00
         -2   -1    0    0    0  501 -0.00000000000E+00  0.00000000000E+00  0.19909591507E+02  0.19909591507E+02  0.00000000000E+00 0.  1.
          2   -1    0    0  501    0  0.00000000000E+00 -0.00000000000E+00 -0.72526346870E+03  0.72526346870E+03  0.00000000000E+00 0. -1.
         25    2    1    2    0    0  0.17273012143E+02  0.34028244193E+02 -0.50607940513E+03  0.52270274878E+03  0.12508205680E+03 0.  0.
         23    2    1    2    0    0 -0.17273012143E+02 -0.34028244193E+02 -0.19927447206E+03  0.22247031142E+03  0.91249361086E+02 0.  0.
          5    1    3    3  502    0 -0.12078608931E+02  0.31025618555E+02 -0.28020997227E+02  0.43716478427E+02  0.41800000000E+01 0. -1.
         -5    1    3    3    0  502  0.29351621074E+02  0.30026256381E+01 -0.47805840790E+03  0.47898627035E+03  0.41800000000E+01 0. -1.
        -11    1    4    4    0    0 -0.49589785925E+02 -0.49728255328E+01 -0.14255697135E+03  0.15101776698E+03  0.00000000000E+00 0. -1.
         11    1    4    4    0    0  0.32316773782E+02 -0.29055418660E+02 -0.56717500710E+02  0.71452544447E+02  0.00000000000E+00 0.  1.
</event>
<event>
 8    1  0.7114239E-009  0.9522973E+02  0.7561462E-02  0.1290660E+00
         -1   -1    0    0    0  501 -0.00000000000E+00  0.00000000000E+00  0.95198837377E+02  0.95198837377E+02  0.00000000000E+00 0.  1.
          1   -1    0    0  501    0  0.00000000000E+00 -0.00000000000E+00 -0.16593282273E+03  0.16593282273E+03  0.00000000000E+00 0. -1.
         25    2    1    2    0    0 -0.50389588508E+02  0.21763244980E+01  0.55232625053E+00  0.13487676467E+03  0.12509032563E+03 0.  0.
         23    2    1    2    0    0  0.50389588508E+02 -0.21763244980E+01 -0.71286311599E+02  0.12625489543E+03  0.91185050200E+02 0.  0.
          5    1    3    3  502    0 -0.88928573743E+02  0.18877439662E+02 -0.94581382186E+01  0.91496326345E+02  0.41800000000E+01 0.  1.
         -5    1    3    3    0  502  0.38538985235E+02 -0.16701115164E+02  0.10010464469E+02  0.43380438329E+02  0.41800000000E+01 0.  1.
        -11    1    4    4    0    0  0.10627692580E+02  0.11058040242E+02  0.20355036641E+02  0.25486381074E+02  0.00000000000E+00 0.  1.
         11    1    4    4    0    0  0.39761895928E+02 -0.13234364740E+02 -0.91641348241E+02  0.10076851435E+03  0.00000000000E+00 0. -1.
</event>
<event>
 8    1  0.7114239E-009  0.9449609E+02  0.7561462E-02  0.1292315E+00
          1   -1    0    0  501    0  0.00000000000E+00  0.00000000000E+00  0.11397118912E+04  0.11397118912E+04  0.00000000000E+00 0. -1.
         -1   -1    0    0    0  501 -0.00000000000E+00 -0.00000000000E+00 -0.13715157225E+02  0.13715157225E+02  0.00000000000E+00 0.  1.
         25    2    1    2    0    0  0.57768145050E+02 -0.20042346911E+02  0.75797260805E+03  0.77065431382E+03  0.12508694019E+03 0.  0.
         23    2    1    2    0    0 -0.57768145050E+02  0.20042346911E+02  0.36802412597E+03  0.38277273465E+03  0.85640847970E+02 0.  0.
          5    1    3    3  502    0  0.74911957846E+02 -0.92328191074E+01  0.22655634923E+03  0.23883529504E+03  0.41800000000E+01 0.  1.
         -5    1    3    3    0  502 -0.17143812795E+02 -0.10809527803E+02  0.53141625881E+03  0.53181901878E+03  0.41800000000E+01 0.  1.
        -11    1    4    4    0    0  0.12198703647E+02 -0.10751500728E+02  0.17012476030E+02  0.23533539454E+02  0.00000000000E+00 0.  1.
         11    1    4    4    0    0 -0.69966848698E+02  0.30793847639E+02  0.35101164994E+03  0.35923919519E+03  0.00000000000E+00 0. -1.
</event>
<event>
 8    1  0.7114239E-009  0.1447248E+03  0.7561462E-02  0.1207109E+00
         -1   -1    0    0    0  501 -0.00000000000E+00  0.00000000000E+00  0.25075416658E+03  0.25075416658E+03  0.00000000000E+00 0.  1.
          1   -1    0    0  501    0  0.00000000000E+00 -0.00000000000E+00 -0.94806521775E+02  0.94806521775E+02  0.00000000000E+00 0. -1.
         25    2    1    2    0    0  0.96231585579E+01  0.99386726523E+02  0.12257686512E+03  0.20160028799E+03  0.12508901497E+03 0.  0.
         23    2    1    2    0    0 -0.96231585579E+01 -0.99386726523E+02  0.33370779688E+02  0.14396040037E+03  0.98186869525E+02 0.  0.
          5    1    3    3  502    0  0.62214553914E+02  0.83080833759E+02  0.90298664959E+02  0.13763864628E+03  0.41800000000E+01 0. -1.
         -5    1    3    3    0  502 -0.52591395357E+02  0.16305892765E+02  0.32278200157E+02  0.63961641706E+02  0.41800000000E+01 0. -1.
        -11    1    4    4    0    0 -0.39987461620E+02 -0.18705156037E+02  0.37112031141E+02  0.57673068278E+02  0.00000000000E+00 0.  1.
         11    1    4    4    0    0  0.30364303062E+02 -0.80681570486E+02 -0.37412514530E+01  0.86287332088E+02  0.00000000000E+00 0. -1.
</event>
<event>
 8    1  0.7114239E-009  0.1552008E+03  0.7561462E-02  0.1194224E+00
          1   -1    0    0  501    0  0.00000000000E+00  0.00000000000E+00  0.14714933135E+03  0.14714933135E+03  0.00000000000E+00 0.  1.
         -1   -1    0    0    0  501 -0.00000000000E+00 -0.00000000000E+00 -0.22280101517E+03  0.22280101517E+03  0.00000000000E+00 0. -1.
         25    2    1    2    0    0  0.11488727995E+03 -0.85814658396E+02 -0.39784219012E+02  0.19440764600E+03  0.12509318945E+03 0.  0.
         23    2    1    2    0    0 -0.11488727995E+03  0.85814658396E+02 -0.35867464803E+02  0.17554270053E+03  0.94686440352E+02 0.  0.
          5    1    3    3  502    0  0.48249917931E+01 -0.62671953276E+01  0.37192052047E+02  0.38252835432E+02  0.41800000000E+01 0.  1.
         -5    1    3    3    0  502  0.11006228816E+03 -0.79547463068E+02 -0.76976271059E+02  0.15615481056E+03  0.41800000000E+01 0.  1.
        -11    1    4    4    0    0 -0.11892959067E+03  0.49118264891E+02 -0.46990285365E+02  0.13698517585E+03  0.00000000000E+00 0. -1.
         11    1    4    4    0    0  0.40423107187E+01  0.36696393505E+02  0.11122820562E+02  0.38557524681E+02  0.00000000000E+00 0.  1.
</event>
<event>
 8    1  0.7114239E-009  0.1068269E+03  0.7561462E-02  0.1266561E+00
         -1   -1    0    0    0  501 -0.00000000000E+00  0.00000000000E+00  0.61532547749E+03  0.61532547749E+03  0.00000000000E+00 0.  1.
          1   -1    0    0  501    0  0.00000000000E+00 -0.00000000000E+00 -0.36219976666E+02  0.36219976666E+02  0.00000000000E+00 0. -1.
         25    2    1    2    0    0 -0.28469090550E+02 -0.26174330120E+01  0.52248046671E+03  0.53800592045E+03  0.12508873758E+03 0.  0.
         23    2    1    2    0    0  0.28469090550E+02  0.26174330120E+01  0.56625034113E+02  0.11353953371E+03  0.94167357159E+02 0.  0.
          5    1    3    3  502    0  0.46468704165E+02  0.18683829726E+02  0.19840143905E+03  0.20466809565E+03  0.41800000000E+01 0. -1.
         -5    1    3    3    0  502 -0.74937794715E+02 -0.21301262738E+02  0.32407902766E+03  0.33333782480E+03  0.41800000000E+01 0. -1.
        -11    1    4    4    0    0  0.78877239207E+01  0.41039002236E+02 -0.36563340828E+00  0.41791740583E+02  0.00000000000E+00 0. -1.
         11    1    4    4    0    0  0.20581366630E+02 -0.38421569224E+02  0.56990667521E+02  0.71747793126E+02  0.00000000000E+00 0.  1.
</event>
<event>
 8    1  0.7114239E-009  0.8639109E+02  0.7561462E-02  0.1311834E+00
         -2   -1    0    0    0  501 -0.00000000000E+00  0.00000000000E+00  0.39957040988E+02  0.39957040988E+02  0.00000000000E+00 0.  1.
          2   -1    0    0  501    0  0.00000000000E+00 -0.00000000000E+00 -0.38365389544E+03  0.38365389544E+03  0.00000000000E+00 0. -1.
         25    2    1    2    0    0  0.55199133217E+02  0.20938415183E+02 -0.17441476483E+03  0.22260492965E+03  0.12508830070E+03 0.  0.
         23    2    1    2    0    0 -0.55199133217E+02 -0.20938415183E+02 -0.16928208961E+03  0.20100600678E+03  0.90893494586E+02 0.  0.
          5    1    3    3  502    0  0.23408837930E+02  0.38919753400E+02 -0.17976076255E+03  0.18545653143E+03  0.41800000000E+01 0.  1.
         -5    1    3    3    0  502  0.31790295288E+02 -0.17981338216E+02  0.53459977152E+01  0.37148398217E+02  0.41800000000E+01 0.  1.
        -11    1    4    4    0    0 -0.37592174570E+02  0.22311606938E+02 -0.27292833436E+02  0.51535212719E+02  0.00000000000E+00 0. -1.
         11    1    4    4    0    0 -0.17606958648E+02 -0.43250022122E+02 -0.14198925618E+03  0.14947079406E+03  0.00000000000E+00 0.  1.
</event>
<event>
 8    1  0.7114239E-009  0.6309209E+02  0.7561462E-02  0.1385295E+00
         -1   -1    0    0    0  501 -0.00000000000E+00  0.00000000000E+00  0.98480611643E+02  0.98480611643E+02  0.00000000000E+00 0.  1.
          1   -1    0    0  501    0  0.00000000000E+00 -0.00000000000E+00 -0.13260558197E+03  0.13260558197E+03  0.00000000000E+00 0. -1.
         25    2    1    2    0    0  0.40480566412E+01  0.40756330146E+01 -0.57529066289E+02  0.13780524604E+03  0.12509074634E+03 0.  0.
         23    2    1    2    0    0 -0.40480566412E+01 -0.40756330146E+01  0.23404095960E+02  0.93280947577E+02  0.90114293684E+02 0.  0.
          5    1    3    3  502    0 -0.14350158310E+02 -0.39737544871E+01  0.37512362019E+02  0.40575454064E+02  0.41800000000E+01 0. -1.
         -5    1    3    3    0  502  0.18398214951E+02  0.80493875017E+01 -0.95041428308E+02  0.97229791974E+02  0.41800000000E+01 0. -1.
        -11    1    4    4    0    0  0.35445708852E+02  0.23061514827E+02  0.13064764014E+02  0.44259685956E+02  0.00000000000E+00 0.  1.
         11    1    4    4    0    0 -0.39493765494E+02 -0.27137147842E+02  0.10339331946E+02  0.49021261621E+02  0.00000000000E+00 0. -1.
</event>
<event>
 8    1  0.7114239E-009  0.1136084E+03  0.7561462E-02  0.1254030E+00
          1   -1    0    0  501    0  0.00000000000E+00  0.00000000000E+00  0.68766934218E+02  0.68766934218E+02  0.00000000000E+00 0. -1.
         -1   -1    0    0    0  501 -0.00000000000E+00 -0.00000000000E+00 -0.29370898073E+03  0.29370898073E+03  0.00000000000E+00 0.  1.
         25    2    1    2    0    0 -0.75523569085E+02 -0.54321097226E+02 -0.11641692061E+03  0.19456403867E+03  0.12509066571E+03 0.  0.
         23    2    1    2    0    0  0.75523569085E+02  0.54321097226E+02 -0.10852512590E+03  0.16791187628E+03  0.88102804452E+02 0.  0.
          5    1    3    3  502    0 -0.37567360833E+02 -0.68449062700E+02 -0.78164656455E+01  0.78582124683E+02  0.41800000000E+01 0. -1.
         -5    1    3    3    0  502 -0.37956208252E+02  0.14127965474E+02 -0.10860045497E+03  0.11598191399E+03  0.41800000000E+01 0. -1.
        -11    1    4    4    0    0  0.56752409608E+02  0.67304228763E+01 -0.10121257307E+03  0.11623303978E+03  0.00000000000E+00 0.  1.
         11    1    4    4    0    0  0.18771159477E+02  0.47590674350E+02 -0.73125528303E+01  0.51678836501E+02  0.00000000000E+00 0. -1.
</event>
<event>
 8    1  0.7114239E-009  0.1873464E+03  0.7561462E-02  0.1160877E+00
         -2   -1    0    0    0  501 -0.00000000000E+00  0.00000000000E+00  0.96397323913E+02  0.96397323913E+02  0.00000000000E+00 0. -1.
          2   -1    0    0  501    0  0.00000000000E+00 -0.00000000000E+00 -0.47532291656E+03  0.47532291656E+03  0.00000000000E+00 0.  1.
         25    2    1    2    0    0 -0.15251572749E+03  0.83698424483E+02 -0.11515789497E+03  0.24325845099E+03  0.12508740869E+03 0.  0.
         23    2    1    2    0    0  0.15251572749E+03 -0.83698424483E+02 -0.26376769768E+03  0.32846178948E+03  0.89706607419E+02 0.  0.
          5    1    3    3  502    0 -0.48565775723E+02 -0.26089664041E+01  0.19399868925E+02  0.52528740624E+02  0.41800000000E+01 0.  1.
         -5    1    3    3    0  502 -0.10394995177E+03  0.86307390887E+02 -0.13455776389E+03  0.19072971037E+03  0.41800000000E+01 0.  1.
        -11    1    4    4    0    0  0.16375970853E+02  0.15271000659E+02 -0.11426506826E+02  0.25138435527E+02  0.00000000000E+00 0. -1.
         11    1    4    4    0    0  0.13613975664E+03 -0.98969425142E+02 -0.25234119086E+03  0.30332335395E+03  0.00000000000E+00 0.  1.
</event>
<event>
 8    1  0.7114239E-009  0.1069141E+03  0.7561462E-02  0.1266394E+00
          1   -1    0    0  501    0  0.00000000000E+00  0.00000000000E+00  0.79003683747E+03  0.79003683747E+03  0.00000000000E+00 0. -1.
         -1   -1    0    0    0  501 -0.00000000000E+00 -0.00000000000E+00 -0.20188836884E+02  0.20188836884E+02  0.00000000000E+00 0.  1.
         25    2    1    2    0    0  0.41191131316E+02 -0.40178991333E+02  0.37819125329E+03  0.40247650654E+03  0.12509058160E+03 0.  0.
         23    2    1    2    0    0 -0.41191131316E+02  0.40178991333E+02  0.39165674730E+03  0.40774916782E+03  0.97741063586E+02 0.  0.
          5    1    3    3  502    0  0.63103702082E+02 -0.61376192558E+01  0.34250073503E+03  0.34834461886E+03  0.41800000000E+01 0.  1.
         -5    1    3    3    0  502 -0.21912570765E+02 -0.34041372078E+02  0.35690518257E+02  0.54131887681E+02  0.41800000000E+01 0.  1.
        -11    1    4    4    0    0 -0.50983437787E+02 -0.15318267123E+02  0.13809931510E+03  0.14800466569E+03  0.00000000000E+00 0.  1.
         11    1    4    4    0    0  0.97923064705E+01  0.55497258456E+02  0.25355743220E+03  0.25974450213E+03  0.00000000000E+00 0. -1.
</event>
<event>
 8    1  0.7114239E-009  0.9751964E+02  0.7561462E-02  0.1285600E+00
         -2   -1    0    0    0  501 -0.00000000000E+00  0.00000000000E+00  0.67582941248E+02  0.67582941248E+02  0.00000000000E+00 0.  1.
          2   -1    0    0  501    0  0.00000000000E+00 -0.00000000000E+00 -0.28472811426E+03  0.28472811426E+03  0.00000000000E+00 0. -1.
         25    2    1    2    0    0 -0.57560193880E+02  0.30237727865E+02 -0.19088367319E+03  0.23729727433E+03  0.12508366644E+03 0.  0.
         23    2    1    2    0    0  0.57560193880E+02 -0.30237727865E+02 -0.26261499817E+02  0.11501378117E+03  0.91164726626E+02 0.  0.
          5    1    3    3  502    0  0.31077366679E+02 -0.81139120336E+01 -0.13114850635E+02  0.34944384318E+02  0.41800000000E+01 0.  1.
         -5    1    3    3    0  502 -0.88637560559E+02  0.38351639899E+02 -0.17776882256E+03  0.20235289002E+03  0.41800000000E+01 0.  1.
        -11    1    4    4    0    0  0.46674491199E+02 -0.19175234762E+02 -0.59688442813E+02  0.78159503339E+02  0.00000000000E+00 0. -1.
         11    1    4    4    0    0  0.10885702681E+02 -0.11062493103E+02  0.33426942995E+02  0.36854277832E+02  0.00000000000E+00 0.  1.
</event>
<event>
 8    1  0.7114239E-009  0.1002756E+03  0.7561462E-02  0.1279717E+00
         -2   -1    0    0    0  501 -0.00000000000E+00  0.00000000000E+00  0.89030521178E+02  0.89030521178E+02  0.00000000000E+00 0. -1.
          2   -1    0    0  501    0  0.00000000000E+00 -0.00000000000E+00 -0.28041797971E+03  0.28041797971E+03  0.00000000000E+00 0.  1.
         25    2    1    2    0    0 -0.62791447066E+02 -0.22240267960E+02  0.59477306957E+01  0.14184683595E+03  0.12509098299E+03 0.  0.
         23    2    1    2    0    0  0.62791447066E+02  0.22240267960E+02 -0.19733518923E+03  0.22760166494E+03  0.91782055065E+02 0.  0.
          5    1    3    3  502    0 -0.67159438705E+02  0.89309963934E+00  0.55238458429E+02  0.87062894069E+02  0.41800000000E+01 0.  1.
         -5    1    3    3    0  502  0.43679916384E+01 -0.23133367599E+02 -0.49290727733E+02  0.54783941880E+02  0.41800000000E+01 0.  1.
        -11    1    4    4    0    0  0.69259344796E+02 -0.15568494129E+02 -0.15494842127E+03  0.17043546610E+03  0.00000000000E+00 0. -1.
         11    1    4    4    0    0 -0.64678977300E+01  0.37808762089E+02 -0.42386767959E+02  0.57166198839E+02  0.00000000000E+00 0.  1.
</event>
<event>
 8    1  0.7114239E-009  0.1047598E+03  0.7561462E-02  0.1270594E+00
          1   -1    0    0  501    0  0.00000000000E+00  0.00000000000E+00  0.69810924932E+02  0.69810924932E+02  0.00000000000E+00 0. -1.
         -1   -1    0    0    0  501 -0.00000000000E+00 -0.00000000000E+00 -0.30390222233E+03  0.30390222233E+03  0.00000000000E+00 0.  1.
         25    2    1    2    0    0 -0.65088431522E+02 -0.73883054237E+01 -0.21810525364E+03  0.25982573732E+03  0.12509364945E+03 0.  0.
         23    2    1    2    0    0  0.65088431522E+02  0.73883054237E+01 -0.15986043753E+02  0.11388740994E+03  0.91780703703E+02 0.  0.
          5    1    3    3  502    0 -0.68377928134E+02  0.47898904678E+02 -0.10864970774E+03  0.13708419864E+03  0.41800000000E+01 0. -1.
         -5    1    3    3    0  502  0.32894966116E+01 -0.55287210102E+02 -0.10945554590E+03  0.12274153868E+03  0.41800000000E+01 0. -1.
        -11    1    4    4    0    0  0.58053051825E+02  0.15063012914E+02  0.29773040301E+02  0.66958831479E+02  0.00000000000E+00 0. -1.
         11    1    4    4    0    0  0.70353796971E+01 -0.76747074904E+01 -0.45759084055E+02  0.46928578458E+02  0.00000000000E+00 0.  1.
</event>
<event>
 8    1  0.7114239E-009  0.1824819E+03  0.7561462E-02  0.1165422E+00
         -2   -1    0    0    0  501 -0.00000000000E+00  0.00000000000E+00  0.18048167532E+02  0.18048167532E+02  0.00000000000E+00 0.  1.
          2   -1    0    0  501    0  0.00000000000E+00 -0.00000000000E+00 -0.20126647973E+04  0.20126647973E+04  0.00000000000E+00 0. -1.
         25    2    1    2    0    0  0.69575478418E+02 -0.13201753310E+03 -0.12728465330E+04  0.12876548209E+04  0.12508902821E+03 0.  0.
         23    2    1    2    0    0 -0.69575478418E+02  0.13201753310E+03 -0.72177009676E+03  0.74305814392E+03  0.94413751273E+02 0.  0.
          5    1    3    3  502    0 -0.23886405434E+00 -0.12217352419E+03 -0.71820001775E+03  0.72852945374E+03  0.41800000000E+01 0. -1.
         -5    1    3    3    0  502  0.69814342472E+02 -0.98440089168E+01 -0.55464651526E+03  0.55912536717E+03  0.41800000000E+01 0. -1.
        -11    1    4    4    0    0 -0.89947869006E+02  0.10998190099E+03 -0.64847564201E+03  0.66385788838E+03  0.00000000000E+00 0.  1.
         11    1    4    4    0    0  0.20372390588E+02  0.22035632117E+02 -0.73294454752E+02  0.79200255545E+02  0.00000000000E+00 0. -1.
</event>
<event>
 8    1  0.7114239E-009  0.9925309E+02  0.7561462E-02  0.1281874E+00
          2   -1    0    0  501    0  0.00000000000E+00  0.00000000000E+00  0.33462908421E+03  0.33462908421E+03  0.00000000000E+00 0. -1.
         -2   -1    0    0    0  501 -0.00000000000E+00 -0.00000000000E+00 -0.37839265230E+02  0.37839265230E+02  0.00000000000E+00 0.  1.
         25    2    1    2    0    0  0.24397051600E+02  0.80135472851E+01  0.20104293850E+03  0.23817063831E+03  0.12509019451E+03 0.  0.
         23    2    1    2    0    0 -0.24397051600E+02 -0.80135472851E+01  0.95746880476E+02  0.13429771113E+03  0.90603405165E+02 0.  0.
          5    1    3    3  502    0  0.59925438515E+02 -0.36437442486E+02  0.12004181237E+03  0.13909081390E+03  0.41800000000E+01 0. -1.
         -5    1    3    3    0  502 -0.35528386915E+02  0.44450989771E+02  0.81001126135E+02  0.99079824402E+02  0.41800000000E+01 0. -1.
        -11    1    4    4    0    0  0.16707946443E+02 -0.22129561347E+02  0.85166973024E+02  0.89567216401E+02  0.00000000000E+00 0. -1.
         11    1    4    4    0    0 -0.41104998043E+02  0.14116014062E+02  0.10579907452E+02  0.44730494731E+02  0.00000000000E+00 0.  1.
</event>
<event>
 8    1  0.7114239E-009  0.2531996E+03  0.7561462E-02  0.1111299E+00
          2   -1    0    0  501    0  0.00000000000E+00  0.00000000000E+00  0.39506471195E+03  0.39506471195E+03  0.00000000000E+00 0. -1.
         -2   -1    0    0    0  501 -0.00000000000E+00 -0.00000000000E+00 -0.18461145075E+03  0.18461145075E+03  0.00000000000E+00 0.  1.
         25    2    1    2    0    0  0.23816146933E+03  0.69223062395E+01  0.17805323994E+03  0.32267529969E+03  0.12509032328E+03 0.  0.
         23    2    1    2    0    0 -0.23816146933E+03 -0.69223062395E+01  0.32400021259E+02  0.25700086301E+03  0.90724188688E+02 0.  0.
          5    1    3    3  502    0  0.18065021674E+03 -0.44380813301E+02  0.15486837583E+03  0.24208643834E+03  0.41800000000E+01 0.  1.
         -5    1    3    3    0  502  0.57511252590E+02  0.51303119540E+02  0.23184864115E+02  0.80588861346E+02  0.41800000000E+01 0.  1.
        -11    1    4    4    0    0 -0.11780800434E+03  0.20833627372E+02 -0.22674396645E+02  0.12176573483E+03  0.00000000000E+00 0.  1.
         11    1    4    4    0    0 -0.12035346499E+03 -0.27755933612E+02  0.55074417904E+02  0.13523512818E+03  0.00000000000E+00 0. -1.
</event>
<event>
 8    1  0.7114239E-009  0.1579066E+03  0.7561462E-02  0.1191081E+00
         -2   -1    0    0    0  501 -0.00000000000E+00  0.00000000000E+00  0.94567820979E+02  0.94567820979E+02  0.00000000000E+00 0. -1.
          2   -1    0    0  501    0  0.00000000000E+00 -0.00000000000E+00 -0.35108930905E+03  0.35108930905E+03  0.00000000000E+00 0.  1.
         25    2    1    2    0    0  0.10692782441E+03  0.97779388528E+02 -0.11443544391E+03  0.22301705742E+03  0.12508704419E+03 0.  0.
         23    2    1    2    0    0 -0.10692782441E+03 -0.97779388528E+02 -0.14208604417E+03  0.22264007261E+03  0.91573956633E+02 0.  0.
          5    1    3    3  502    0  0.52612608925E+02  0.78747678974E+02 -0.13216706328E+03  0.16264958831E+03  0.41800000000E+01 0. -1.
         -5    1    3    3    0  502  0.54315215480E+02  0.19031709554E+02  0.17731619370E+02  0.60367469110E+02  0.41800000000E+01 0. -1.
        -11    1    4    4    0    0 -0.13359726444E+02 -0.61533225647E+02 -0.23288156226E+02  0.67135373460E+02  0.00000000000E+00 0.  1.
         11    1    4    4    0    0 -0.93568097961E+02 -0.36246162881E+02 -0.11879788794E+03  0.15550469915E+03  0.00000000000E+00 0. -1.
</event>
<event>
 8    1  0.7114239E-009  0.1249815E+03  0.7561462E-02  0.1235098E+00
          1   -1    0    0  501    0  0.00000000000E+00  0.00000000000E+00  0.47770558835E+03  0.47770558835E+03  0.00000000000E+00 0. -1.
         -1   -1    0    0    0  501 -0.00000000000E+00 -0.00000000000E+00 -0.34801234495E+02  0.34801234495E+02  0.00000000000E+00 0.  1.
         25    2    1    2    0    0 -0.10639538209E+02  0.63704773546E+02  0.29374380571E+03  0.32574035073E+03  0.12509937954E+03 0.  0.
         23    2    1    2    0    0  0.10639538209E+02 -0.63704773546E+02  0.14916054815E+03  0.18676647211E+03  0.91985586014E+02 0.  0.
          5    1    3    3  502    0  0.51596896200E+02  0.19557874475E+00  0.10914768325E+03  0.12080135391E+03  0.41800000000E+01 0. -1.
         -5    1    3    3    0  502 -0.62236434409E+02  0.63509194801E+02  0.18459612245E+03  0.20493899682E+03  0.41800000000E+01 0. -1.
        -11    1    4    4    0    0  0.49620451812E+02 -0.33608693534E+02  0.10355061130E+03  0.11964306340E+03  0.00000000000E+00 0.  1.
         11    1    4    4    0    0 -0.38980913603E+02 -0.30096080011E+02  0.45609936846E+02  0.67123408708E+02  0.00000000000E+00 0. -1.
</event>
<event>
 8    1  0.7114239E-009  0.9140467E+02  0.7561462E-02  0.1299485E+00
          1   -1    0    0  501    0  0.00000000000E+00  0.00000000000E+00  0.25926372187E+03  0.25926372187E+03  0.00000000000E+00 0. -1.
         -1   -1    0    0    0  501 -0.00000000000E+00 -0.00000000000E+00 -0.47107619213E+02  0.47107619213E+02  0.00000000000E+00 0.  1.
         25    2    1    2    0    0  0.17135488261E+01  0.20845561398E+02  0.13143014880E+03  0.18263485024E+03  0.12507649990E+03 0.  0.
         23    2    1    2    0    0 -0.17135488261E+01 -0.20845561398E+02  0.80725953860E+02  0.12373649085E+03  0.91414254144E+02 0.  0.
          5    1    3    3  502    0  0.11215791227E+01  0.71295169116E+02  0.10054017320E+03  0.12332906351E+03  0.41800000000E+01 0.  1.
         -5    1    3    3    0  502  0.59196970339E+00 -0.50449607718E+02  0.30889975601E+02  0.59305786730E+02  0.41800000000E+01 0.  1.
        -11    1    4    4    0    0 -0.25461514694E+02 -0.26070332375E+02 -0.29872569549E+01  0.36563296689E+02  0.00000000000E+00 0.  1.
         11    1    4    4    0    0  0.23747965868E+02  0.52247709767E+01  0.83713210814E+02  0.87173194157E+02  0.00000000000E+00 0. -1.
</event>
<event>
 8    1  0.7114239E-009  0.9985493E+02  0.7561462E-02  0.1280601E+00
          2   -1    0    0  501    0  0.00000000000E+00  0.00000000000E+00  0.61029433857E+02  0.61029433857E+02  0.00000000000E+00 0. -1.
         -2   -1    0    0    0  501 -0.00000000000E+00 -0.00000000000E+00 -0.30813563235E+03  0.30813563235E+03  0.00000000000E+00 0.  1.
         25    2    1    2    0    0  0.10166925768E+02 -0.39103673060E+02 -0.23517108133E+03  0.26941659668E+03  0.12508957367E+03 0.  0.
         23    2    1    2    0    0 -0.10166925768E+02  0.39103673060E+02 -0.11935117155E+02  0.99748469529E+02  0.90414857881E+02 0.  0.
          5    1    3    3  502    0 -0.58141242468E+01  0.29605137934E+02 -0.79769591184E+01  0.31486068501E+02  0.41800000000E+01 0. -1.
         -5    1    3    3    0  502  0.15981050015E+02 -0.68708810994E+02 -0.22719412222E+03  0.23793052817E+03  0.41800000000E+01 0. -1.
        -11    1    4    4    0    0 -0.20530632654E+02 -0.25735928103E+02 -0.84729035620E+01  0.33994631448E+02  0.00000000000E+00 0. -1.
         11    1    4    4    0    0  0.10363706886E+02  0.64839601163E+02 -0.34622135932E+01  0.65753838081E+02  0.00000000000E+00 0.  1.
</event>
<event>
 8    1  0.7114239E-009  0.1167230E+03  0.7561462E-02  0.1248603E+00
          3   -1    0    0  501    0  0.00000000000E+00  0.00000000000E+00  0.44495543168E+02  0.44495543168E+02  0.00000000000E+00 0. -1.
         -3   -1    0    0    0  501 -0.00000000000E+00 -0.00000000000E+00 -0.35336889896E+03  0.35336889896E+03  0.00000000000E+00 0.  1.
         25    2    1    2    0    0 -0.54093479323E+02 -0.32722820049E+02 -0.16517717824E+03  0.21662846200E+03  0.12508997913E+03 0.  0.
         23    2    1    2    0    0  0.54093479323E+02  0.32722820049E+02 -0.14369617754E+03  0.18123598012E+03  0.90559381583E+02 0.  0.
          5    1    3    3  502    0  0.32213882024E+02 -0.10427209757E+02 -0.10128197435E+03  0.10687362456E+03  0.41800000000E+01 0. -1.
         -5    1    3    3    0  502 -0.86307361347E+02 -0.22295610291E+02 -0.63895203889E+02  0.10975483744E+03  0.41800000000E+01 0. -1.
        -11    1    4    4    0    0  0.19622078357E+02  0.61895936372E+02 -0.91793733403E+02  0.11243763778E+03  0.00000000000E+00 0.  1.
         11    1    4    4    0    0  0.34471400966E+02 -0.29173116323E+02 -0.51902444140E+02  0.68798342337E+02  0.00000000000E+00 0. -1.
</event>
<event>
 8    1  0.7114239E-009  0.1757823E+03  0.7561462E-02  0.1171948E+00
          1   -1    0    0  501    0  0.00000000000E+00  0.00000000000E+00  0.41844295713E+03  0.41844295713E+03  0.00000000000E+00 0. -1.
         -1   -1    0    0    0  501 -0.00000000000E+00 -0.00000000000E+00 -0.92268907865E+02  0.92268907865E+02  0.00000000000E+00 0.  1.
         25    2    1    2    0    0 -0.88477003632E+02 -0.13417677487E+03  0.20265157659E+03  0.28731043252E+03  0.12509211028E+03 0.  0.
         23    2    1    2    0    0  0.88477003632E+02  0.13417677487E+03  0.12352247268E+03  0.22340143248E+03  0.93908528327E+02 0.  0.
          5    1    3    3  502    0 -0.10823577815E+03 -0.12099663311E+03  0.20669218057E+03  0.26285794415E+03  0.41800000000E+01 0.  1.
         -5    1    3    3    0  502  0.19758774513E+02 -0.13180141760E+02 -0.40406039742E+01  0.24452488372E+02  0.41800000000E+01 0.  1.
        -11    1    4    4    0    0  0.50221134642E+02  0.42781027062E+02  0.11960968959E+01  0.65983401617E+02  0.00000000000E+00 0.  1.
         11    1    4    4    0    0  0.38255868989E+02  0.91395747805E+02  0.12232637578E+03  0.15741803086E+03  0.00000000000E+00 0. -1.
</event>
<event>
 8    1  0.7114239E-009  0.1793162E+03  0.7561462E-02  0.1168466E+00
         -2   -1    0    0    0  501 -0.00000000000E+00  0.00000000000E+00  0.56988400007E+02  0.56988400007E+02  0.00000000000E+00 0.  1.
          2   -1    0    0  501    0  0.00000000000E+00 -0.00000000000E+00 -0.65311869993E+03  0.65311869993E+03  0.00000000000E+00 0. -1.
         25    2    1    2    0    0 -0.10262829044E+03  0.12009899179E+03 -0.36279408181E+03  0.41499753988E+03  0.12508828278E+03 0.  0.
         23    2    1    2    0    0  0.10262829044E+03 -0.12009899179E+03 -0.23333621812E+03  0.29510956006E+03  0.87678548822E+02 0.  0.
          5    1    3    3  502    0 -0.18137016734E+02 -0.25236212752E+02 -0.80775661403E+02  0.86648702732E+02  0.41800000000E+01 0. -1.
         -5    1    3    3    0  502 -0.84491273703E+02  0.14533520454E+03 -0.28201842040E+03  0.32834883715E+03  0.41800000000E+01 0. -1.
        -11    1    4    4    0    0  0.79189689964E+02 -0.79355535508E+02 -0.21890063196E+03  0.24593859942E+03  0.00000000000E+00 0. -1.
         11    1    4    4    0    0  0.23438600473E+02 -0.40743456282E+02 -0.14435586157E+02  0.49170960634E+02  0.00000000000E+00 0.  1.
</event>
<event>
 8    1  0.7114239E-009  0.1300675E+03  0.7561462E-02  0.1227356E+00
          2   -1    0    0  501    0  0.00000000000E+00  0.00000000000E+00  0.17793659751E+04  0.17793659751E+04  0.00000000000E+00 0. -1.
         -2   -1    0    0    0  501 -0.00000000000E+00 -0.00000000000E+00 -0.16516363837E+02  0.16516363837E+02  0.00000000000E+00 0.  1.
         25    2    1    2    0    0  0.16039845156E+02  0.10128352230E+03  0.13813667498E+04  0.13908039148E+04  0.12508318617E+03 0.  0.
         23    2    1    2    0    0 -0.16039845156E+02 -0.10128352230E+03  0.38148286144E+03  0.40507842410E+03  0.89686830596E+02 0.  0.
          5    1    3    3  502    0 -0.51468713307E+02  0.53928637620E+02  0.82080875487E+03  0.82419767707E+03  0.41800000000E+01 0. -1.
         -5    1    3    3    0  502  0.67508558463E+02  0.47354884681E+02  0.56055799494E+03  0.56660623776E+03  0.41800000000E+01 0. -1.
        -11    1    4    4    0    0 -0.95067334642E+00 -0.31164805742E+02  0.21148227996E+02  0.37674878157E+02  0.00000000000E+00 0.  1.
         11    1    4    4    0    0 -0.15089171810E+02 -0.70118716559E+02  0.36033463344E+03  0.36740354595E+03  0.00000000000E+00 0. -1.
</event>
<event>
 8    1  0.7114239E-009  0.8710156E+02  0.7561462E-02  0.1310026E+00
         -2   -1    0    0    0  501 -0.00000000000E+00  0.00000000000E+00  0.25475085755E+02  0.25475085755E+02  0.00000000000E+00 0.  1.
          2   -1    0    0  501    0  0.00000000000E+00 -0.00000000000E+00 -0.55311486190E+03  0.55311486190E+03  0.00000000000E+00 0. -1.
         25    2    1    2    0    0  0.27909228944E+02 -0.13782850987E+02 -0.34953248849E+03  0.37254593702E+03  0.12509445488E+03 0.  0.
         23    2    1    2    0    0 -0.27909228944E+02  0.13782850987E+02 -0.17810728766E+03  0.20604401063E+03  0.98808078415E+02 0.  0.
          5    1    3    3  502    0  0.49401239649E+02 -0.53894079593E+02 -0.13898847352E+03  0.15709972141E+03  0.41800000000E+01 0.  1.
         -5    1    3    3    0  502 -0.21492010705E+02  0.40111228606E+02 -0.21054401497E+03  0.21544621562E+03  0.41800000000E+01 0.  1.
        -11    1    4    4    0    0  0.12810416639E+02  0.32652253495E+01  0.78603129377E+01  0.15380279273E+02  0.00000000000E+00 0.  1.
         11    1    4    4    0    0 -0.40719645583E+02  0.10517625637E+02 -0.18596760059E+03  0.19066373136E+03  0.00000000000E+00 0. -1.
</event>
<event>
 8    1  0.7114239E-009  0.1324139E+03  0.7561462E-02  0.1223917E+00
          1   -1    0    0  501    0  0.00000000000E+00  0.00000000000E+00  0.96165771384E+03  0.96165771384E+03  0.00000000000E+00 0. -1.
         -1   -1    0    0    0  501 -0.00000000000E+00 -0.00000000000E+00 -0.24065193235E+02  0.24065193235E+02  0.00000000000E+00 0.  1.
         25    2    1    2    0    0 -0.64467296471E+02 -0.66952889856E+02  0.33918295426E+03  0.37327147906E+03  0.12509116213E+03 0.  0.
         23    2    1    2    0    0  0.64467296471E+02  0.66952889856E+02  0.59840956635E+03  0.61245142802E+03  0.91455020697E+02 0.  0.
          5    1    3    3  502    0 -0.24166780720E+02  0.34677546299E+02  0.13634605906E+03  0.14280856322E+03  0.41800000000E+01 0. -1.
         -5    1    3    3    0  502 -0.40300515750E+02 -0.10163043615E+03  0.20283689520E+03  0.23046291583E+03  0.41800000000E+01 0. -1.
        -11    1    4    4    0    0 -0.12560624836E+02  0.32148287284E+01  0.12286171193E+02  0.17862094575E+02  0.00000000000E+00 0.  1.
         11    1    4    4    0    0  0.77027921306E+02  0.63738061127E+02  0.58612339516E+03  0.59458933345E+03  0.00000000000E+00 0. -1.
</event>
<event>
 8    1  0.7114239E-009  0.1156087E+03  0.7561462E-02  0.1250522E+00
         -2   -1    0    0    0  501 -0.00000000000E+00  0.00000000000E+00  0.26204023331E+02  0.26204023331E+02  0.00000000000E+00 0.  1.
          2   -1    0    0  501    0  0.00000000000E+00 -0.00000000000E+00 -0.62864542702E+03  0.62864542702E+03  0.00000000000E+00 0. -1.
         25    2    1    2    0    0 -0.73711400194E+01  0.66302859127E+02 -0.27632732777E+03  0.31057251579E+03  0.12509233653E+03 0.  0.
         23    2    1    2    0    0  0.73711400194E+01 -0.66302859127E+02 -0.32611407593E+03  0.34427693457E+03  0.87896611561E+02 0.  0.
          5    1    3    3  502    0 -0.43997833780E+01 -0.33268489149E+02 -0.31473302964E+02  0.46197312297E+02  0.41800000000E+01 0.  1.
         -5    1    3    3    0  502 -0.29713566414E+01  0.99571348277E+02 -0.24485402480E+03  0.26437520349E+03  0.41800000000E+01 0.  1.
        -11    1    4    4    0    0 -0.23314712665E+02 -0.62584484654E+02 -0.28567191928E+03  0.29337491203E+03  0.00000000000E+00 0. -1.
         11    1    4    4    0    0  0.30685852684E+02 -0.37183744738E+01 -0.40442156645E+02  0.50902022531E+02  0.00000000000E+00 0.  1.
</event>
<event>
 8    1  0.7114239E-009  0.7237882E+02  0.7561462E-02  0.1352186E+00
         -2   -1    0    0    0  501 -0.00000000000E+00  0.00000000000E+00  0.46950911529E+02  0.46950911529E+02  0.00000000000E+00 0. -1.
          2   -1    0    0  501    0  0.00000000000E+00 -0.00000000000E+00 -0.27759961174E+03  0.27759961174E+03  0.00000000000E+00 0.  1.
         25    2    1    2    0    0 -0.30367762184E+02 -0.13577742872E+02 -0.13544950005E+03  0.18734809078E+03  0.12508470720E+03 0.  0.
         23    2    1    2    0    0  0.30367762184E+02  0.13577742872E+02 -0.95199200162E+02  0.13720243249E+03  0.93032594758E+02 0.  0.
          5    1    3    3  502    0 -0.11081171355E+02  0.11493768754E+02 -0.15096829129E+03  0.15186769391E+03  0.41800000000E+01 0. -1.
         -5    1    3    3    0  502 -0.19286590829E+02 -0.25071511627E+02  0.15518791236E+02  0.35480396876E+02  0.41800000000E+01 0. -1.
        -11    1    4    4    0    0 -0.32474659257E+02  0.63638589461E+01 -0.47896507899E+02  0.58216644213E+02  0.00000000000E+00 0.  1.
         11    1    4    4    0    0  0.62842421442E+02  0.72138839263E+01 -0.47302692264E+02  0.78985788274E+02  0.00000000000E+00 0. -1.
</event>
<event>
 8    1  0.7114239E-009  0.1529164E+03  0.7561462E-02  0.1196934E+00
          1   -1    0    0  501    0  0.00000000000E+00  0.00000000000E+00  0.14131778353E+03  0.14131778353E+03  0.00000000000E+00 0. -1.
         -1   -1    0    0    0  501 -0.00000000000E+00 -0.00000000000E+00 -0.18424922177E+03  0.18424922177E+03  0.00000000000E+00 0.  1.
         25    2    1    2    0    0  0.10107240723E+03  0.42214284309E+02 -0.68244985149E+02  0.17972901450E+03  0.12508982114E+03 0.  0.
         23    2    1    2    0    0 -0.10107240723E+03 -0.42214284309E+02  0.25313546917E+02  0.14583799080E+03  0.92899228201E+02 0.  0.
          5    1    3    3  502    0  0.26789938133E+02 -0.43718653945E+02 -0.11620564942E+02  0.52740225800E+02  0.41800000000E+01 0. -1.
         -5    1    3    3    0  502  0.74282469095E+02  0.85932938253E+02 -0.56624420207E+02  0.12698878870E+03  0.41800000000E+01 0. -1.
        -11    1    4    4    0    0 -0.53560611831E+02  0.24436477112E+02  0.25066348976E+02  0.63985954743E+02  0.00000000000E+00 0. -1.
         11    1    4    4    0    0 -0.47511795397E+02 -0.66650761421E+02  0.24719794114E+00  0.81852036057E+02  0.00000000000E+00 0.  1.
</event>
<event>
 8    1  0.7114239E-009  0.9467467E+02  0.7561462E-02  0.1291911E+00
          3   -1    0    0  501    0  0.00000000000E+00  0.00000000000E+00  0.34195973909E+02  0.34195973909E+02  0.00000000000E+00 0. -1.
         -3   -1    0    0    0  501 -0.00000000000E+00 -0.00000000000E+00 -0.54013730705E+03  0.54013730705E+03  0.00000000000E+00 0.  1.
         25    2    1    2    0    0 -0.28579569914E+02 -0.71645140403E+02 -0.33724921264E+03  0.36787883376E+03  0.12509191399E+03 0.  0.
         23    2    1    2    0    0  0.28579569914E+02  0.71645140403E+02 -0.16869212050E+03  0.20645444720E+03  0.90645404122E+02 0.  0.
          5    1    3    3  502    0 -0.47722432991E+01 -0.17544300511E+02  0.59654474526E+01  0.19586621705E+02  0.41800000000E+01 0.  1.
         -5    1    3    3    0  502 -0.23807326615E+02 -0.54100839892E+02 -0.34321466009E+03  0.34829221206E+03  0.41800000000E+01 0.  1.
        -11    1    4    4    0    0 -0.11780057827E+02  0.70064217155E+02 -0.69650440489E+02  0.99493457816E+02  0.00000000000E+00 0.  1.
         11    1    4    4    0    0  0.40359627741E+02  0.15809232480E+01 -0.99041680014E+02  0.10696098938E+03  0.00000000000E+00 0. -1.
</event>
<event>
 8    1  0.7114239E-009  0.1115383E+03  0.7561462E-02  0.1257747E+00
          2   -1    0    0  501    0  0.00000000000E+00  0.00000000000E+00  0.48332688315E+03  0.48332688315E+03  0.00000000000E+00 0.  1.
         -2   -1    0    0    0  501 -0.00000000000E+00 -0.00000000000E+00 -0.34764284351E+02  0.34764284351E+02  0.00000000000E+00 0. -1.
         25    2    1    2    0    0 -0.47355503519E+02 -0.33411081186E+02  0.33497868807E+03  0.36224019181E+03  0.12509352919E+03 0.  0.
         23    2    1    2    0    0  0.47355503519E+02  0.33411081186E+02  0.11358391073E+03  0.15585097568E+03  0.89606795426E+02 0.  0.
          5    1    3    3  502    0 -0.33582941872E+02  0.41152393354E+02  0.79413971760E+02  0.95631505134E+02  0.41800000000E+01 0. -1.
         -5    1    3    3    0  502 -0.13772561647E+02 -0.74563474540E+02  0.25556471631E+03  0.26660868668E+03  0.41800000000E+01 0. -1.
        -11    1    4    4    0    0  0.56206712388E+02 -0.30956441372E+01  0.29048151601E+02  0.63344870680E+02  0.00000000000E+00 0. -1.
         11    1    4    4    0    0 -0.88512088689E+01  0.36506725323E+02  0.84535759124E+02  0.92506105004E+02  0.00000000000E+00 0.  1.
</event>
<event>
 8    1  0.7114239E-009  0.9059473E+02  0.7561462E-02  0.1301418E+00
         -1   -1    0    0    0  501 -0.00000000000E+00  0.00000000000E+00  0.53994350278E+03  0.53994350278E+03  0.00000000000E+00 0.  1.
          1   -1    0    0  501    0  0.00000000000E+00 -0.00000000000E+00 -0.24575866408E+02  0.24575866408E+02  0.00000000000E+00 0. -1.
         25    2    1    2    0    0 -0.26587870002E+02 -0.21232127970E+02  0.25600787424E+03  0.28695980963E+03  0.12509269594E+03 0.  0.
         23    2    1    2    0    0  0.26587870002E+02  0.21232127970E+02  0.25935976213E+03  0.27755955956E+03  0.92812201794E+02 0.  0.
          5    1    3    3  502    0  0.12272535360E+02 -0.42413729115E+02  0.23406852968E+02  0.50148705940E+02  0.41800000000E+01 0.  1.
         -5    1    3    3    0  502 -0.38860405362E+02  0.21181601145E+02  0.23260102128E+03  0.23681110369E+03  0.41800000000E+01 0.  1.
        -11    1    4    4    0    0  0.27697526118E+02  0.53421471524E+02  0.11660400189E+03  0.13121547100E+03  0.00000000000E+00 0. -1.
         11    1    4    4    0    0 -0.11096561156E+01 -0.32189343554E+02  0.14275576023E+03  0.14634408856E+03  0.00000000000E+00 0.  1.
</event>
<event>
 8    1  0.7114239E-009  0.9024682E+02  0.7561462E-02  0.1302255E+00
          1   -1    0    0  501    0  0.00000000000E+00  0.00000000000E+00  0.11177977137E+04  0.11177977137E+04  0.00000000000E+00 0. -1.
         -1   -1    0    0    0  501 -0.00000000000E+00 -0.00000000000E+00 -0.17661622474E+02  0.17661622474E+02  0.00000000000E+00 0.  1.
         25    2    1    2    0    0 -0.40945077195E+02 -0.65877743716E+02  0.78290257713E+03  0.79661812251E+03  0.12509041283E+03 0.  0.
         23    2    1    2    0    0  0.40945077195E+02  0.65877743716E+02  0.31723351412E+03  0.33884121368E+03  0.90332104721E+02 0.  0.
          5    1    3    3  502    0 -0.53316663818E+02 -0.51436671944E+02  0.19888395995E+03  0.21227505691E+03  0.41800000000E+01 0.  1.
         -5    1    3    3    0  502  0.12371586623E+02 -0.14441071772E+02  0.58401861717E+03  0.58434306560E+03  0.41800000000E+01 0.  1.
        -11    1    4    4    0    0  0.31144867515E+02  0.14210180345E+02  0.26237993755E+02  0.43131940767E+02  0.00000000000E+00 0.  1.
         11    1    4    4    0    0  0.98002096792E+01  0.51667563371E+02  0.29099552036E+03  0.29570927291E+03  0.00000000000E+00 0. -1.
</event>
<event>
 8    1  0.7114239E-009  0.1533695E+03  0.7561462E-02  0.1196393E+00
         -2   -1    0    0    0  501 -0.00000000000E+00  0.00000000000E+00  0.32366195015E+03  0.32366195015E+03  0.00000000000E+00 0.  1.
          2   -1    0    0  501    0  0.00000000000E+00 -0.00000000000E+00 -0.93990523501E+02  0.93990523501E+02  0.00000000000E+00 0. -1.
         25    2    1    2    0    0  0.12666172391E+03  0.33783438638E+02  0.17557304943E+03  0.25230699339E+03  0.12509360575E+03 0.  0.
         23    2    1    2    0    0 -0.12666172391E+03 -0.33783438638E+02  0.54098377224E+02  0.16534548026E+03  0.85017529923E+02 0.  0.
          5    1    3    3  502    0  0.26501065103E+02 -0.30623242432E+02  0.72638637270E+00  0.40719644716E+02  0.41800000000E+01 0.  1.
         -5    1    3    3    0  502  0.10016065881E+03  0.64406681069E+02  0.17484666305E+03  0.21158734868E+03  0.41800000000E+01 0.  1.
        -11    1    4    4    0    0 -0.37368557436E+02  0.20249539445E+02 -0.89179831202E+01  0.43427909868E+02  0.00000000000E+00 0.  1.
         11    1    4    4    0    0 -0.89293166474E+02 -0.54032978082E+02  0.63016360344E+02  0.12191757039E+03  0.00000000000E+00 0. -1.
</event>
<event>
 8    1  0.7114239E-009  0.9116091E+02  0.7561462E-02  0.1300064E+00
          1   -1    0    0  501    0  0.00000000000E+00  0.00000000000E+00  0.43111237548E+03  0.43111237548E+03  0.00000000000E+00 0. -1.
         -1   -1    0    0    0  501 -0.00000000000E+00 -0.00000000000E+00 -0.30464457648E+02  0.30464457648E+02  0.00000000000E+00 0.  1.
         25    2    1    2    0    0  0.95823548159E+01 -0.33376609574E+02  0.24711934217E+03  0.27914360445E+03  0.12508942019E+03 0.  0.
         23    2    1    2    0    0 -0.95823548159E+01  0.33376609574E+02  0.15352857567E+03  0.18243322868E+03  0.92222772615E+02 0.  0.
          5    1    3    3  502    0  0.49025832312E+02 -0.16453967921E+02  0.34759907950E+02  0.62449891072E+02  0.41800000000E+01 0. -1.
         -5    1    3    3    0  502 -0.39443477496E+02 -0.16922641652E+02  0.21235943422E+03  0.21669371338E+03  0.41800000000E+01 0. -1.
        -11    1    4    4    0    0  0.83731769622E+01 -0.24934770883E+02  0.92380286665E+02  0.96051914378E+02  0.00000000000E+00 0. -1.
         11    1    4    4    0    0 -0.17955531778E+02  0.58311380456E+02  0.61148289004E+02  0.86381314300E+02  0.00000000000E+00 0.  1.
</event>
<event>
 8    1  0.7114239E-009  0.1039028E+03  0.7561462E-02  0.1272297E+00
          3   -1    0    0  501    0  0.00000000000E+00  0.00000000000E+00  0.14187304530E+03  0.14187304530E+03  0.00000000000E+00 0. -1.
         -3   -1    0    0    0  501 -0.00000000000E+00 -0.00000000000E+00 -0.21782927531E+03  0.21782927531E+03  0.00000000000E+00 0.  1.
         25    2    1    2    0    0 -0.17809887320E+02 -0.10228386378E+02 -0.18000673424E+03  0.22016228074E+03  0.12508874256E+03 0.  0.
         23    2    1    2    0    0  0.17809887320E+02  0.10228386378E+02  0.10405050422E+03  0.13954003988E+03  0.90681328427E+02 0.  0.
          5    1    3    3  502    0  0.40954740453E+02 -0.41073397553E+02 -0.64213326016E+02  0.86632201809E+02  0.41800000000E+01 0. -1.
         -5    1    3    3    0  502 -0.58764627773E+02  0.30845011175E+02 -0.11579340822E+03  0.13353007893E+03  0.41800000000E+01 0. -1.
        -11    1    4    4    0    0  0.47694981071E+02  0.19989012258E+02  0.92636029954E+02  0.10609338281E+03  0.00000000000E+00 0. -1.
         11    1    4    4    0    0 -0.29885093751E+02 -0.97606258800E+01  0.11414474269E+02  0.33446657066E+02  0.00000000000E+00 0.  1.
</event>
<event>
 8    1  0.7114239E-009  0.1448253E+03  0.7561462E-02  0.1206980E+00
          4   -1    0    0  501    0  0.00000000000E+00  0.00000000000E+00  0.16715133863E+02  0.16715133863E+02  0.00000000000E+00 0. -1.
         -4   -1    0    0    0  501 -0.00000000000E+00 -0.00000000000E+00 -0.18897864472E+04  0.18897864472E+04  0.00000000000E+00 0.  1.
         25    2    1    2    0    0 -0.10742537523E+03 -0.74910239894E+02 -0.12663186487E+04  0.12792037736E+04  0.12509044339E+03 0.  0.
         23    2    1    2    0    0  0.10742537523E+03  0.74910239894E+02 -0.60675266469E+03  0.62729780753E+03  0.90564827262E+02 0.  0.
          5    1    3    3  502    0 -0.29622501085E+02 -0.38779962578E+01 -0.50512921957E+02  0.58835016021E+02  0.41800000000E+01 0.  1.
         -5    1    3    3    0  502 -0.77802874149E+02 -0.71032243636E+02 -0.12158057267E+04  0.12203687575E+04  0.41800000000E+01 0.  1.
        -11    1    4    4    0    0  0.21208287436E+02 -0.17623866269E+02 -0.58893070690E+02  0.65029115737E+02  0.00000000000E+00 0.  1.
         11    1    4    4    0    0  0.86217087799E+02  0.92534106163E+02 -0.54785959400E+03  0.56226869179E+03  0.00000000000E+00 0. -1.
</event>
<event>
 8    1  0.7114239E-009  0.1420487E+03  0.7561462E-02  0.1210599E+00
          3   -1    0    0  501    0  0.00000000000E+00  0.00000000000E+00  0.14343475756E+03  0.14343475756E+03  0.00000000000E+00 0. -1.
         -3   -1    0    0    0  501 -0.00000000000E+00 -0.00000000000E+00 -0.16430802572E+03  0.16430802572E+03  0.00000000000E+00 0.  1.
         25    2    1    2    0    0  0.88269811453E+02  0.44884093853E+02  0.31896521736E+02  0.16270046400E+03  0.12509161200E+03 0.  0.
         23    2    1    2    0    0 -0.88269811453E+02 -0.44884093853E+02 -0.52769789898E+02  0.14504231927E+03  0.91904745029E+02 0.  0.
          5    1    3    3  502    0  0.19426651361E+01 -0.36194584103E+02  0.24529918972E+02  0.43966023143E+02  0.41800000000E+01 0.  1.
         -5    1    3    3    0  502  0.86327146317E+02  0.81078677956E+02  0.73666027642E+01  0.11873444086E+03  0.41800000000E+01 0.  1.
        -11    1    4    4    0    0 -0.83425324432E+02 -0.66666336243E+02 -0.58825752068E+02  0.12192068836E+03  0.00000000000E+00 0.  1.
         11    1    4    4    0    0 -0.48444870206E+01  0.21782242390E+02  0.60559621696E+01  0.23121630908E+02  0.00000000000E+00 0. -1.
</event>
<event>
 8    1  0.7114239E-009  0.2322606E+03  0.7561462E-02  0.1125059E+00
         -1   -1    0    0    0  501 -0.00000000000E+00  0.00000000000E+00  0.68582794499E+02  0.68582794499E+02  0.00000000000E+00 0.  1.
          1   -1    0    0  501    0  0.00000000000E+00 -0.00000000000E+00 -0.80888884643E+03  0.80888884643E+03  0.00000000000E+00 0. -1.
         25    2    1    2    0    0  0.16669050309E+03  0.12279136435E+03 -0.38164878080E+03  0.45184890419E+03  0.12509275500E+03 0.  0.
         23    2    1    2    0    0 -0.16669050309E+03 -0.12279136435E+03 -0.35865727113E+03  0.42562273674E+03  0.98266133109E+02 0.  0.
          5    1    3    3  502    0  0.84107334920E+02 -0.10673181505E+02 -0.13285160634E+03  0.15765462980E+03  0.41800000000E+01 0.  1.
         -5    1    3    3    0  502  0.82583168168E+02  0.13346454585E+03 -0.24879717446E+03  0.29419427439E+03  0.41800000000E+01 0.  1.
        -11    1    4    4    0    0 -0.86974892333E+02 -0.11258304897E+03 -0.17778453315E+03  0.22769917663E+03  0.00000000000E+00 0. -1.
         11    1    4    4    0    0 -0.79715610756E+02 -0.10208315379E+02 -0.18087273798E+03  0.19792356011E+03  0.00000000000E+00 0.  1.
</event>
<event>
 8    1  0.7114239E-009  0.1588674E+03  0.7561462E-02  0.1189981E+00
          2   -1    0    0  501    0  0.00000000000E+00  0.00000000000E+00  0.33047161396E+03  0.33047161396E+03  0.00000000000E+00 0.  1.
         -2   -1    0    0    0  501 -0.00000000000E+00 -0.00000000000E+00 -0.88267366817E+02  0.88267366817E+02  0.00000000000E+00 0. -1.
         25    2    1    2    0    0  0.95554198827E+02  0.84501041324E+02  0.90103319144E+02  0.20009666456E+03  0.12509610766E+03 0.  0.
         23    2    1    2    0    0 -0.95554198827E+02 -0.84501041324E+02  0.15210092800E+03  0.21864231621E+03  0.91644635643E+02 0.  0.
          5    1    3    3  502    0 -0.17570313802E+02  0.37364693280E+02 -0.89610736195E+01  0.42457148649E+02  0.41800000000E+01 0.  1.
         -5    1    3    3    0  502  0.11312451263E+03  0.47136348044E+02  0.99064392764E+02  0.15763951592E+03  0.41800000000E+01 0.  1.
        -11    1    4    4    0    0 -0.71093451587E+02 -0.10142938908E+03  0.10236166417E+03  0.16068637192E+03  0.00000000000E+00 0. -1.
         11    1    4    4    0    0 -0.24460747240E+02  0.16928347755E+02  0.49739263827E+02  0.57955944296E+02  0.00000000000E+00 0.  1.
</event>
<event>
 8    1  0.7114239E-009  0.1418681E+03  0.7561462E-02  0.1210837E+00
          2   -1    0    0  501    0  0.00000000000E+00  0.00000000000E+00  0.36177393922E+03  0.36177393922E+03  0.00000000000E+00 0. -1.
         -2   -1    0    0    0  501 -0.00000000000E+00 -0.00000000000E+00 -0.75526204582E+02  0.75526204582E+02  0.00000000000E+00 0.  1.
         25    2    1    2    0    0  0.12068033273E+03 -0.25221103782E+02  0.15458941198E+03  0.23397654938E+03  0.12508913854E+03 0.  0.
         23    2    1    2    0    0 -0.12068033273E+03  0.25221103782E+02  0.13165832266E+03  0.20332359442E+03  0.93844143881E+02 0.  0.
          5    1    3    3  502    0 -0.17867641661E+02 -0.63944488051E+01  0.65048717694E+02  0.67889245596E+02  0.41800000000E+01 0.  1.
         -5    1    3    3    0  502  0.13854797439E+03 -0.18826654976E+02  0.89540694289E+02  0.16608730378E+03  0.41800000000E+01 0.  1.
        -11    1    4    4    0    0 -0.66300785702E+02  0.22343610931E+02  0.10838934717E+02  0.70799107621E+02  0.00000000000E+00 0.  1.
         11    1    4    4    0    0 -0.54379547025E+02  0.28774928503E+01  0.12081938794E+03  0.13252448680E+03  0.00000000000E+00 0. -1.
</event>
<event>
 8    1  0.7114239E-009  0.2402519E+03  0.7561462E-02  0.1119625E+00
          1   -1    0    0  501    0  0.00000000000E+00  0.00000000000E+00  0.18479767186E+03  0.18479767186E+03  0.00000000000E+00 0. -1.
         -1   -1    0    0    0  501 -0.00000000000E+00 -0.00000000000E+00 -0.68340254340E+03  0.68340254340E+03  0.00000000000E+00 0.  1.
         25    2    1    2    0    0 -0.18297417717E+03 -0.14689150688E+03  0.44637036374E+02  0.26962286971E+03  0.12508941822E+03 0.  0.
         23    2    1    2    0    0  0.18297417717E+03  0.14689150688E+03 -0.54324190792E+03  0.59857734555E+03  0.90146568340E+02 0.  0.
          5    1    3    3  502    0 -0.15324573719E+03 -0.91098945637E+02  0.81775560856E+02  0.19618355848E+03  0.41800000000E+01 0. -1.
         -5    1    3    3    0  502 -0.29728439973E+02 -0.55792561240E+02 -0.37138524482E+02  0.73439311228E+02  0.41800000000E+01 0. -1.
        -11    1    4    4    0    0  0.25167724424E+02  0.43194486440E+02 -0.51253623488E+02  0.71596870966E+02  0.00000000000E+00 0. -1.
         11    1    4    4    0    0  0.15780645274E+03  0.10369702044E+03 -0.49198828443E+03  0.52698047458E+03  0.00000000000E+00 0.  1.
</event>
<event>
 8    1  0.7114239E-009  0.1613244E+03  0.7561462E-02  0.1187210E+00
         -2   -1    0    0    0  501 -0.00000000000E+00  0.00000000000E+00  0.55206004866E+03  0.55206004866E+03  0.00000000000E+00 0.  1.
          2   -1    0    0  501    0  0.00000000000E+00 -0.00000000000E+00 -0.10585215015E+03  0.10585215015E+03  0.00000000000E+00 0. -1.
         25    2    1    2    0    0 -0.12817130342E+03  0.68249090160E+02  0.44791285165E+03  0.48719772395E+03  0.12509947331E+03 0.  0.
         23    2    1    2    0    0  0.12817130342E+03 -0.68249090160E+02 -0.17049531402E+01  0.17071447486E+03  0.89748001286E+02 0.  0.
          5    1    3    3  502    0 -0.24027724385E+02 -0.24570002957E+02  0.19755987692E+03  0.20057017214E+03  0.41800000000E+01 0.  1.
         -5    1    3    3    0  502 -0.10414357903E+03  0.92819093117E+02  0.25035297474E+03  0.28662755182E+03  0.41800000000E+01 0.  1.
        -11    1    4    4    0    0  0.92368069893E+02 -0.32636014401E+02 -0.41527696500E+02  0.10640262848E+03  0.00000000000E+00 0. -1.
         11    1    4    4    0    0  0.35803233524E+02 -0.35613075760E+02  0.39822743359E+02  0.64311846378E+02  0.00000000000E+00 0.  1.
</event>
<event>
 8    1  0.7114239E-009  0.2526550E+03  0.7561462E-02  0.1111638E+00
          1   -1    0    0  501    0  0.00000000000E+00  0.00000000000E+00  0.47641547976E+03  0.47641547976E+03  0.00000000000E+00 0. -1.
         -1   -1    0    0    0  501 -0.00000000000E+00 -0.00000000000E+00 -0.13791983214E+03  0.13791983214E+03  0.00000000000E+00 0.  1.
         25    2    1    2    0    0  0.54145431223E+02  0.22526531166E+03  0.18736177116E+03  0.32315263671E+03  0.12508798887E+03 0.  0.
         23    2    1    2    0    0 -0.54145431223E+02 -0.22526531166E+03  0.15113387645E+03  0.29118267519E+03  0.90937964360E+02 0.  0.
          5    1    3    3  502    0 -0.20096171278E+02  0.16807312537E+03  0.11511098842E+03  0.20474482564E+03  0.41800000000E+01 0.  1.
         -5    1    3    3    0  502  0.74241602501E+02  0.57192186284E+02  0.72250782747E+02  0.11840781107E+03  0.41800000000E+01 0.  1.
        -11    1    4    4    0    0 -0.71496119441E+02 -0.18494111100E+03  0.94835846856E+02  0.21979251007E+03  0.00000000000E+00 0. -1.
         11    1    4    4    0    0  0.17350688218E+02 -0.40324200661E+02  0.56298029592E+02  0.71390165125E+02  0.00000000000E+00 0.  1.
</event>
<event>
 8    1  0.7114239E-009  0.8039406E+02  0.7561462E-02  0.1327937E+00
          1   -1    0    0  501    0  0.00000000000E+00  0.00000000000E+00  0.20323196150E+03  0.20323196150E+03  0.00000000000E+00 0.  1.
         -1   -1    0    0    0  501 -0.00000000000E+00 -0.00000000000E+00 -0.73892686158E+02  0.73892686158E+02  0.00000000000E+00 0. -1.
         25    2    1    2    0    0 -0.30530571362E+02  0.47774528893E+02  0.64664278612E+02  0.15179953394E+03  0.12508840145E+03 0.  0.
         23    2    1    2    0    0  0.30530571362E+02 -0.47774528893E+02  0.64674996730E+02  0.12532511372E+03  0.91153757614E+02 0.  0.
          5    1    3    3  502    0 -0.37253902360E+02  0.26799462150E+02  0.99911400594E+02  0.11002647309E+03  0.41800000000E+01 0. -1.
         -5    1    3    3    0  502  0.67233309981E+01  0.20975066743E+02 -0.35247121983E+02  0.41773060848E+02  0.41800000000E+01 0. -1.
        -11    1    4    4    0    0  0.21753780783E+02  0.16570458461E+02  0.52582180633E+02  0.59267974422E+02  0.00000000000E+00 0.  1.
         11    1    4    4    0    0  0.87767905792E+01 -0.64344987354E+02  0.12092816096E+02  0.66057139293E+02  0.00000000000E+00 0. -1.
</event>
<event>
 8    1  0.7114239E-009  0.1005557E+03  0.7561462E-02  0.1279132E+00
         -1   -1    0    0    0  501 -0.00000000000E+00  0.00000000000E+00  0.24603482235E+02  0.24603482235E+02  0.00000000000E+00 0.  1.
          1   -1    0    0  501    0  0.00000000000E+00 -0.00000000000E+00 -0.67356346963E+03  0.67356346963E+03  0.00000000000E+00 0. -1.
         25    2    1    2    0    0 -0.29257304250E+02 -0.51035048429E+02 -0.42740712858E+03  0.44920708807E+03  0.12509831490E+03 0.  0.
         23    2    1    2    0    0  0.29257304250E+02  0.51035048429E+02 -0.22155285881E+03  0.24895986379E+03  0.97132788035E+02 0.  0.
          5    1    3    3  502    0 -0.42225072097E+01 -0.86777228490E+02 -0.20784012660E+03  0.22530669669E+03  0.41800000000E+01 0. -1.
         -5    1    3    3    0  502 -0.25034797040E+02  0.35742180060E+02 -0.21956700199E+03  0.22390039138E+03  0.41800000000E+01 0. -1.
        -11    1    4    4    0    0 -0.20285635316E+01  0.35145492167E+02 -0.13081348109E+02  0.37555856508E+02  0.00000000000E+00 0.  1.
         11    1    4    4    0    0  0.31285867781E+02  0.15889556262E+02 -0.20847151070E+03  0.21140400728E+03  0.00000000000E+00 0. -1.
</event>
<event>
 8    1  0.7114239E-009  0.1720481E+03  0.7561462E-02  0.1175729E+00
          1   -1    0    0  501    0  0.00000000000E+00  0.00000000000E+00  0.50151926000E+03  0.50151926000E+03  0.00000000000E+00 0. -1.
         -1   -1    0    0    0  501 -0.00000000000E+00 -0.00000000000E+00 -0.90929681705E+02  0.90929681705E+02  0.00000000000E+00 0.  1.
         25    2    1    2    0    0  0.16149437896E+03  0.20586698610E+02  0.96067990811E+02  0.22667270831E+03  0.12508881341E+03 0.  0.
         23    2    1    2    0    0 -0.16149437896E+03 -0.20586698610E+02  0.31452158749E+03  0.36577623340E+03  0.91455876402E+02 0.  0.
          5    1    3    3  502    0  0.13876446358E+03 -0.56636347832E+01  0.12057572045E+03  0.18396638245E+03  0.41800000000E+01 0.  1.
         -5    1    3    3    0  502  0.22729915376E+02  0.26250333393E+02 -0.24507729634E+02  0.42706325856E+02  0.41800000000E+01 0.  1.
        -11    1    4    4    0    0 -0.10411580630E+03 -0.37007131672E+02  0.26870046929E+03  0.29053325302E+03  0.00000000000E+00 0. -1.
         11    1    4    4    0    0 -0.57378572664E+02  0.16420433062E+02  0.45821118194E+02  0.75242980373E+02  0.00000000000E+00 0.  1.
</event>
<event>
 8    1  0.7114239E-009  0.8972159E+02  0.7561462E-02  0.1303527E+00
         -1   -1    0    0    0  501 -0.00000000000E+00  0.00000000000E+00  0.11422031073E+03  0.11422031073E+03  0.00000000000E+00 0.  1.
          1   -1    0    0  501    0  0.00000000000E+00 -0.00000000000E+00 -0.12196249422E+03  0.12196249422E+03  0.00000000000E+00 0. -1.
         25    2    1    2    0    0  0.37982457045E+01  0.42495727186E+02 -0.20112217826E+02  0.13368579221E+03  0.12508827376E+03 0.  0.
         23    2    1    2    0    0 -0.37982457045E+01 -0.42495727186E+02  0.12370034334E+02  0.10249701275E+03  0.92370484317E+02 0.  0.
          5    1    3    3  502    0  0.12753396130E+02 -0.16836174519E+02 -0.58496063093E+02  0.62332717594E+02  0.41800000000E+01 0. -1.
         -5    1    3    3    0  502 -0.89551504253E+01  0.59331901705E+02  0.38383845267E+02  0.71353074612E+02  0.41800000000E+01 0. -1.
        -11    1    4    4    0    0 -0.45920844977E+02 -0.22308447582E+02 -0.77502347038E+01  0.51637747578E+02  0.00000000000E+00 0.  1.
         11    1    4    4    0    0  0.42122599273E+02 -0.20187279604E+02  0.20120269038E+02  0.50859265168E+02  0.00000000000E+00 0. -1.
</event>
<event>
 8    1  0.7114239E-009  0.1350580E+03  0.7561462E-02  0.1220138E+00
         -3   -1    0    0    0  501 -0.00000000000E+00  0.00000000000E+00  0.34383177946E+02  0.34383177946E+02  0.00000000000E+00 0.  1.
          3   -1    0    0  501    0  0.00000000000E+00 -0.00000000000E+00 -0.68768132506E+03  0.68768132506E+03  0.00000000000E+00 0. -1.
         25    2    1    2    0    0  0.22543503765E+02 -0.10606386702E+03 -0.32478992203E+03  0.36454615196E+03  0.12509056721E+03 0.  0.
         23    2    1    2    0    0 -0.22543503765E+02  0.10606386702E+03 -0.32850822508E+03  0.35751835105E+03  0.90243913594E+02 0.  0.
          5    1    3    3  502    0  0.43045676847E+02 -0.37079726219E+02 -0.26451441466E+03  0.27057934946E+03  0.41800000000E+01 0.  1.
         -5    1    3    3    0  502 -0.20502173081E+02 -0.68984140797E+02 -0.60275507368E+02  0.93966802495E+02  0.41800000000E+01 0.  1.
        -11    1    4    4    0    0  0.33332353747E+02  0.60035124872E+02 -0.15752770641E+03  0.17184365077E+03  0.00000000000E+00 0.  1.
         11    1    4    4    0    0 -0.55875857513E+02  0.46028742145E+02 -0.17098051868E+03  0.18567470028E+03  0.00000000000E+00 0. -1.
</event>
<event>
 8    1  0.7114239E-009  0.1341526E+03  0.7561462E-02  0.1221421E+00
          1   -1    0    0  501    0  0.00000000000E+00  0.00000000000E+00  0.20193640114E+03  0.20193640114E+03  0.00000000000E+00 0. -1.
         -1   -1    0    0    0  501 -0.00000000000E+00 -0.00000000000E+00 -0.10392970849E+03  0.10392970849E+03  0.00000000000E+00 0.  1.
         25    2    1    2    0    0  0.64350702627E+02 -0.51491518551E+02  0.10484245660E+03  0.18284358423E+03  0.12508975249E+03 0.  0.
         23    2    1    2    0    0 -0.64350702627E+02  0.51491518551E+02 -0.68357639518E+01  0.12302252540E+03  0.91079221974E+02 0.  0.
          5    1    3    3  502    0 -0.28452057638E+02 -0.48875358200E+02  0.35688559538E+02  0.67003476812E+02  0.41800000000E+01 0.  1.
         -5    1    3    3    0  502  0.92802760266E+02 -0.26161603507E+01  0.69153897065E+02  0.11584010742E+03  0.41800000000E+01 0.  1.
        -11    1    4    4    0    0  0.21135813118E+02  0.13761444002E+02 -0.14797379031E+02  0.29241449406E+02  0.00000000000E+00 0.  1.
         11    1    4    4    0    0 -0.85486515745E+02  0.37730074548E+02  0.79616150794E+01  0.93781075993E+02  0.00000000000E+00 0. -1.
</event>
<event>
 8    1  0.7114239E-009  0.1036387E+03  0.7561462E-02  0.1272825E+00
          2   -1    0    0  501    0  0.00000000000E+00  0.00000000000E+00  0.32521944625E+03  0.32521944625E+03  0.00000000000E+00 0.  1.
         -2   -1    0    0    0  501 -0.00000000000E+00 -0.00000000000E+00 -0.44423610783E+02  0.44423610783E+02  0.00000000000E+00 0. -1.
         25    2    1    2    0    0 -0.37644455613E+02 -0.31232000615E+02  0.21844290446E+03  0.25643346402E+03  0.12509306959E+03 0.  0.
         23    2    1    2    0    0  0.37644455613E+02  0.31232000615E+02  0.62352930999E+02  0.11320959301E+03  0.80845414488E+02 0.  0.
          5    1    3    3  502    0  0.35130911280E+02 -0.42781074055E+02  0.60577269975E+02  0.82167385636E+02  0.41800000000E+01 0. -1.
         -5    1    3    3    0  502 -0.72775366892E+02  0.11549073440E+02  0.15786563449E+03  0.17426607839E+03  0.41800000000E+01 0. -1.
        -11    1    4    4    0    0 -0.10682237396E+02  0.27483381322E+02 -0.53256910502E+01  0.29963468255E+02  0.00000000000E+00 0. -1.
         11    1    4    4    0    0  0.48326693008E+02  0.37486192924E+01  0.67678622049E+02  0.83246124752E+02  0.00000000000E+00 0.  1.
</event>
<event>
 8    1  0.7114239E-009  0.7492572E+02  0.7561462E-02  0.1344101E+00
         -2   -1    0    0    0  501 -0.00000000000E+00  0.00000000000E+00  0.87576259578E+02  0.87576259578E+02  0.00000000000E+00 0.  1.
          2   -1    0    0  501    0  0.00000000000E+00 -0.00000000000E+00 -0.19433711863E+03  0.19433711863E+03  0.00000000000E+00 0. -1.
         25    2    1    2    0    0 -0.18911426784E+02  0.47002532342E+02 -0.14456392676E+01  0.13497059194E+03  0.12509232873E+03 0.  0.
         23    2    1    2    0    0  0.18911426784E+02 -0.47002532342E+02 -0.10531521979E+03  0.14694278627E+03  0.89073041983E+02 0.  0.
          5    1    3    3  502    0  0.83258430120E+00  0.53567623286E+02  0.53646830039E+02  0.75931799889E+02  0.41800000000E+01 0.  1.
         -5    1    3    3    0  502 -0.19744011085E+02 -0.65650909442E+01 -0.55092469306E+02  0.59038792053E+02  0.41800000000E+01 0.  1.
        -11    1    4    4    0    0 -0.13472448908E+02  0.43706579959E+01  0.95012956230E+01  0.17055326130E+02  0.00000000000E+00 0.  1.
         11    1    4    4    0    0  0.32383875692E+02 -0.51373190338E+02 -0.11481651541E+03  0.12988746014E+03  0.00000000000E+00 0. -1.
</event>
<event>
 8    1  0.7114239E-009  0.9173201E+02  0.7561462E-02  0.1298711E+00
          2   -1    0    0  501    0  0.00000000000E+00  0.00000000000E+00  0.66890061403E+03  0.66890061403E+03  0.00000000000E+00 0. -1.
         -2   -1    0    0    0  501 -0.00000000000E+00 -0.00000000000E+00 -0.31941842634E+02  0.31941842634E+02  0.00000000000E+00 0.  1.
         25    2    1    2    0    0  0.23571405780E+02 -0.35782119310E+01  0.57015200328E+03  0.58419943810E+03  0.12508901571E+03 0.  0.
         23    2    1    2    0    0 -0.23571405780E+02  0.35782119310E+01  0.66806768114E+02  0.11664301857E+03  0.92596083851E+02 0.  0.
          5    1    3    3  502    0 -0.96562397762E+01 -0.42554582384E+02  0.78839488422E+02  0.90206833351E+02  0.41800000000E+01 0. -1.
         -5    1    3    3    0  502  0.33227645557E+02  0.38976370453E+02  0.49131251486E+03  0.49399260475E+03  0.41800000000E+01 0. -1.
        -11    1    4    4    0    0 -0.27182536084E+02 -0.37880565236E+02  0.12586918749E+02  0.48293457260E+02  0.00000000000E+00 0. -1.
         11    1    4    4    0    0  0.36111303033E+01  0.41458777167E+02  0.54219849365E+02  0.68349561311E+02  0.00000000000E+00 0.  1.
</event>
<event>
 8    1  0.7114239E-009  0.8408823E+02  0.7561462E-02  0.1317834E+00
          1   -1    0    0  501    0  0.00000000000E+00  0.00000000000E+00  0.19651583864E+03  0.19651583864E+03  0.00000000000E+00 0. -1.
         -1   -1    0    0    0  501 -0.00000000000E+00 -0.00000000000E+00 -0.76581300846E+02  0.76581300846E+02  0.00000000000E+00 0.  1.
         25    2    1    2    0    0 -0.26598045371E+02  0.50911703177E+02  0.74172551773E+02  0.15636205539E+03  0.12509223553E+03 0.  0.
         23    2    1    2    0    0  0.26598045371E+02 -0.50911703177E+02  0.45761986018E+02  0.11673508409E+03  0.90738431528E+02 0.  0.
          5    1    3    3  502    0 -0.35949382343E+02  0.72832981911E+02  0.94558404222E+02  0.12472275476E+03  0.41800000000E+01 0.  1.
         -5    1    3    3    0  502  0.93513369724E+01 -0.21921278734E+02 -0.20385852448E+02  0.31639300633E+02  0.41800000000E+01 0.  1.
        -11    1    4    4    0    0  0.21688393123E+02 -0.14917817533E+02  0.68837251819E+02  0.73698676475E+02  0.00000000000E+00 0.  1.
         11    1    4    4    0    0  0.49096522479E+01 -0.35993885644E+02 -0.23075265801E+02  0.43036407619E+02  0.00000000000E+00 0. -1.
</event>
<event>
 8    1  0.7114239E-009  0.1129965E+03  0.7561462E-02  0.1255119E+00
          2   -1    0    0  501    0  0.00000000000E+00  0.00000000000E+00  0.67998874529E+03  0.67998874529E+03  0.00000000000E+00 0. -1.
         -2   -1    0    0    0  501 -0.00000000000E+00 -0.00000000000E+00 -0.20117770191E+02  0.20117770191E+02  0.00000000000E+00 0.  1.
         25    2    1    2    0    0  0.29428845183E+02 -0.25409975880E+02  0.45509833057E+03  0.47357362472E+03  0.12508302742E+03 0.  0.
         23    2    1    2    0    0 -0.29428845183E+02  0.25409975880E+02  0.20477264453E+03  0.22653289076E+03  0.88733256689E+02 0.  0.
          5    1    3    3  502    0  0.21105063743E+02  0.50171580209E+02  0.17593580270E+03  0.18421045097E+03  0.41800000000E+01 0. -1.
         -5    1    3    3    0  502  0.83237814393E+01 -0.75581556089E+02  0.27916252786E+03  0.28936317375E+03  0.41800000000E+01 0. -1.
        -11    1    4    4    0    0  0.11998742289E+02 -0.26349382445E+02  0.82663019927E+02  0.87586726364E+02  0.00000000000E+00 0. -1.
         11    1    4    4    0    0 -0.41427587472E+02  0.51759358325E+02  0.12210962461E+03  0.13894616439E+03  0.00000000000E+00 0.  1.
</event>
<event>
 8    1  0.7114239E-009  0.2823068E+03  0.7561462E-02  0.1094436E+00
          1   -1    0    0  501    0  0.00000000000E+00  0.00000000000E+00  0.17880937090E+03  0.17880937090E+03  0.00000000000E+00 0. -1.
         -1   -1    0    0    0  501 -0.00000000000E+00 -0.00000000000E+00 -0.52418433973E+03  0.52418433973E+03  0.00000000000E+00 0.  1.
         25    2    1    2    0    0  0.13051091733E+03  0.24437212977E+03 -0.25819819067E+03  0.39882998117E+03  0.12509280900E+03 0.  0.
         23    2    1    2    0    0 -0.13051091733E+03 -0.24437212977E+03 -0.87176778158E+02  0.30416372946E+03  0.90360092531E+02 0.  0.
          5    1    3    3  502    0  0.14394902210E+02 -0.75034115076E+00 -0.62664561070E+02  0.64436758419E+02  0.41800000000E+01 0.  1.
         -5    1    3    3    0  502  0.11611601512E+03  0.24512247092E+03 -0.19553362960E+03  0.33439322275E+03  0.41800000000E+01 0.  1.
        -11    1    4    4    0    0 -0.44869125547E+02 -0.58852779644E+02  0.15304012724E+02  0.75571826130E+02  0.00000000000E+00 0. -1.
         11    1    4    4    0    0 -0.85641791780E+02 -0.18551935012E+03 -0.10248079088E+03  0.22859190333E+03  0.00000000000E+00 0.  1.
</event>
<event>
 8    1  0.7114239E-009  0.1080041E+03  0.7561462E-02  0.1264311E+00
         -2   -1    0    0    0  501 -0.00000000000E+00  0.00000000000E+00  0.28536677839E+03  0.28536677839E+03  0.00000000000E+00 0.  1.
          2   -1    0    0  501    0  0.00000000000E+00 -0.00000000000E+00 -0.77980366225E+02  0.77980366225E+02  0.00000000000E+00 0. -1.
         25    2    1    2    0    0  0.75429134663E+02  0.67429043620E+02  0.10824330664E+03  0.19390871234E+03  0.12509094696E+03 0.  0.
         23    2    1    2    0    0 -0.75429134663E+02 -0.67429043620E+02  0.99143105527E+02  0.16943843227E+03  0.92972020939E+02 0.  0.
          5    1    3    3  502    0  0.52907786439E+02  0.43380573630E+02  0.13490410745E+03  0.15131985541E+03  0.41800000000E+01 0. -1.
         -5    1    3    3    0  502  0.22521348224E+02  0.24048469989E+02 -0.26660800815E+02  0.42588856932E+02  0.41800000000E+01 0. -1.
        -11    1    4    4    0    0 -0.35812355479E+02  0.26785169510E+00 -0.79578972577E+01  0.36686846120E+02  0.00000000000E+00 0. -1.
         11    1    4    4    0    0 -0.39616779184E+02 -0.67696895315E+02  0.10710100278E+03  0.13275158615E+03  0.00000000000E+00 0.  1.
</event>
<event>
 8    1  0.7114239E-009  0.1550028E+03  0.7561462E-02  0.1194457E+00
         -3   -1    0    0    0  501 -0.00000000000E+00  0.00000000000E+00  0.80594800434E+02  0.80594800434E+02  0.00000000000E+00 0.  1.
          3   -1    0    0  501    0  0.00000000000E+00 -0.00000000000E+00 -0.38841047234E+03  0.38841047234E+03  0.00000000000E+00 0. -1.
         25    2    1    2    0    0  0.10549508194E+03  0.77936984309E+02 -0.11450482847E+03  0.21438905514E+03  0.12509166793E+03 0.  0.
         23    2    1    2    0    0 -0.10549508194E+03 -0.77936984309E+02 -0.19331084343E+03  0.25461621763E+03  0.10127660270E+03 0.  0.
          5    1    3    3  502    0  0.65608198164E+02  0.83013754209E+02 -0.14953589090E+02  0.10694298145E+03  0.41800000000E+01 0. -1.
         -5    1    3    3    0  502  0.39886883775E+02 -0.50767699008E+01 -0.99551239384E+02  0.10744607370E+03  0.41800000000E+01 0. -1.
        -11    1    4    4    0    0 -0.11003704475E+03 -0.27998562285E+02 -0.11485601563E+03  0.16150534057E+03  0.00000000000E+00 0.  1.
         11    1    4    4    0    0  0.45419628124E+01 -0.49938422024E+02 -0.78454827806E+02  0.93110877058E+02  0.00000000000E+00 0. -1.
</event>
<event>
 8    1  0.7114239E-009  0.1086332E+03  0.7561462E-02  0.1263122E+00
          2   -1    0    0  501    0  0.00000000000E+00  0.00000000000E+00  0.72983275180E+03  0.72983275180E+03  0.00000000000E+00 0.  1.
         -2   -1    0    0    0  501 -0.00000000000E+00 -0.00000000000E+00 -0.16972227762E+02  0.16972227762E+02  0.00000000000E+00 0. -1.
         25    2    1    2    0    0 -0.36113410397E+02  0.16787947653E+02  0.40885547612E+03  0.42941432825E+03  0.12509137202E+03 0.  0.
         23    2    1    2    0    0  0.36113410397E+02 -0.16787947653E+02  0.30400504791E+03  0.31739065131E+03  0.82047198514E+02 0.  0.
          5    1    3    3  502    0  0.87204050130E+01  0.62282975628E+02  0.25706250338E+03  0.26467681720E+03  0.41800000000E+01 0. -1.
         -5    1    3    3    0  502 -0.44833815410E+02 -0.45495027976E+02  0.15179297274E+03  0.16473751105E+03  0.41800000000E+01 0. -1.
        -11    1    4    4    0    0  0.62237217447E+02 -0.84719296319E+01  0.18903512409E+03  0.19919719618E+03  0.00000000000E+00 0. -1.
         11    1    4    4    0    0 -0.26123807051E+02 -0.83160180209E+01  0.11496992382E+03  0.11819345512E+03  0.00000000000E+00 0.  1.
</event>
<event>
 8    1  0.7114239E-009  0.1780898E+03  0.7561462E-02  0.1169665E+00
          3   -1    0    0  501    0  0.00000000000E+00  0.00000000000E+00  0.25222326733E+03  0.25222326733E+03  0.00000000000E+00 0. -1.
         -3   -1    0    0    0  501 -0.00000000000E+00 -0.00000000000E+00 -0.13882086416E+03  0.13882086416E+03  0.00000000000E+00 0.  1.
         25    2    1    2    0    0 -0.14907947092E+03 -0.27048038242E+02  0.46297940148E+02  0.20185809852E+03  0.12508759991E+03 0.  0.
         23    2    1    2    0    0  0.14907947092E+03  0.27048038242E+02  0.67104463020E+02  0.18918603297E+03  0.91280124290E+02 0.  0.
          5    1    3    3  502    0  0.12262993435E+01 -0.31098372110E+02 -0.20261656733E+02  0.37371375296E+02  0.41800000000E+01 0.  1.
         -5    1    3    3    0  502 -0.15030577026E+03  0.40503338686E+01  0.66559596880E+02  0.16448672322E+03  0.41800000000E+01 0.  1.
        -11    1    4    4    0    0  0.39500029534E+02 -0.31130728386E+02  0.34236039286E+02  0.60839797575E+02  0.00000000000E+00 0. -1.
         11    1    4    4    0    0  0.10957944139E+03  0.58178766627E+02  0.32868423734E+02  0.12834623539E+03  0.00000000000E+00 0.  1.
</event>
<event>
 8    1  0.7114239E-009  0.1030495E+03  0.7561462E-02  0.1274011E+00
         -1   -1    0    0    0  501 -0.00000000000E+00  0.00000000000E+00  0.33640917136E+03  0.33640917136E+03  0.00000000000E+00 0.  1.
          1   -1    0    0  501    0  0.00000000000E+00 -0.00000000000E+00 -0.41318286993E+02  0.41318286993E+02  0.00000000000E+00 0. -1.
         25    2    1    2    0    0  0.32766907726E+02 -0.24552837359E+02  0.20850121014E+03  0.24657127064E+03  0.12509246504E+03 0.  0.
         23    2    1    2    0    0 -0.32766907726E+02  0.24552837359E+02  0.86589674227E+02  0.13115618771E+03  0.89597219984E+02 0.  0.
          5    1    3    3  502    0  0.10121424764E+01 -0.59863065105E+02  0.41676072934E+02  0.73068313593E+02  0.41800000000E+01 0. -1.
         -5    1    3    3    0  502  0.31754765249E+02  0.35310227746E+02  0.16682513721E+03  0.17350295705E+03  0.41800000000E+01 0. -1.
        -11    1    4    4    0    0 -0.10095285612E+02  0.57519833233E+02  0.48460045156E+02  0.75886902580E+02  0.00000000000E+00 0.  1.
         11    1    4    4    0    0 -0.22671622114E+02 -0.32966995874E+02  0.38129629070E+02  0.55269285134E+02  0.00000000000E+00 0. -1.
</event>
<event>
 8    1  0.7114239E-009  0.8401712E+02  0.7561462E-02  0.1318023E+00
          3   -1    0    0  501    0  0.00000000000E+00  0.00000000000E+00  0.15496764822E+03  0.15496764822E+03  0.00000000000E+00 0. -1.
         -3   -1    0    0    0  501 -0.00000000000E+00 -0.00000000000E+00 -0.11007462322E+03  0.11007462322E+03  0.00000000000E+00 0.  1.
         25    2    1    2    0    0  0.15291726913E+02 -0.24860115098E+02  0.94546224539E+02  0.15949085306E+03  0.12508589609E+03 0.  0.
         23    2    1    2    0    0 -0.15291726913E+02  0.24860115098E+02 -0.49653199538E+02  0.10555141837E+03  0.88452243960E+02 0.  0.
          5    1    3    3  502    0 -0.12837351767E+02 -0.44458399949E+02 -0.11581557558E+02  0.47884776306E+02  0.41800000000E+01 0. -1.
         -5    1    3    3    0  502  0.28129078680E+02  0.19598284851E+02  0.10612778210E+03  0.11160607676E+03  0.41800000000E+01 0. -1.
        -11    1    4    4    0    0 -0.14319454629E+02  0.55022873304E+02 -0.49481830144E+02  0.75372507467E+02  0.00000000000E+00 0.  1.
         11    1    4    4    0    0 -0.97227228361E+00 -0.30162758206E+02 -0.17136939419E+00  0.30178910906E+02  0.00000000000E+00 0. -1.
</event>
<event>
 8    1  0.7114239E-009  0.7516658E+02  0.7561462E-02  0.1343356E+00
          2   -1    0    0  501    0  0.00000000000E+00  0.00000000000E+00  0.10910289249E+03  0.10910289249E+03  0.00000000000E+00 0. -1.
         -2   -1    0    0    0  501 -0.00000000000E+00 -0.00000000000E+00 -0.14535449384E+03  0.14535449384E+03  0.00000000000E+00 0.  1.
         25    2    1    2    0    0 -0.34418632284E+02 -0.41928694157E+02  0.13193603805E+02  0.13697102656E+03  0.12507730927E+03 0.  0.
         23    2    1    2    0    0  0.34418632284E+02  0.41928694157E+02 -0.49445205162E+02  0.11748635977E+03  0.91736354712E+02 0.  0.
          5    1    3    3  502    0 -0.20798145718E+02  0.21965155209E+02  0.52412096227E+02  0.60659138962E+02  0.41800000000E+01 0. -1.
         -5    1    3    3    0  502 -0.13620486566E+02 -0.63893849366E+02 -0.39218492422E+02  0.76311887600E+02  0.41800000000E+01 0. -1.
        -11    1    4    4    0    0  0.16386360379E+02  0.17557532751E+02 -0.74424999411E+02  0.78203966013E+02  0.00000000000E+00 0.  1.
         11    1    4    4    0    0  0.18032271906E+02  0.24371161406E+02  0.24979794249E+02  0.39282393755E+02  0.00000000000E+00 0. -1.
</event>
<event>
 8    1  0.7114239E-009  0.1102759E+03  0.7561462E-02  0.1260060E+00
         -1   -1    0    0    0  501 -0.00000000000E+00  0.00000000000E+00  0.70373689331E+03  0.70373689331E+03  0.00000000000E+00 0.  1.
          1   -1    0    0  501    0  0.00000000000E+00 -0.00000000000E+00 -0.24057801626E+02  0.24057801626E+02  0.00000000000E+00 0. -1.
         25    2    1    2    0    0 -0.13751103354E+02  0.49244676228E+02  0.50690926734E+03  0.52461367181E+03  0.12509343851E+03 0.  0.
         23    2    1    2    0    0  0.13751103354E+02 -0.49244676228E+02  0.17276982434E+03  0.20318102312E+03  0.93909450923E+02 0.  0.
          5    1    3    3  502    0  0.21654664706E+02  0.78237585554E+02  0.40114509535E+03  0.40929806281E+03  0.41800000000E+01 0. -1.
         -5    1    3    3    0  502 -0.35405768060E+02 -0.28992909326E+02  0.10576417199E+03  0.11531560900E+03  0.41800000000E+01 0. -1.
        -11    1    4    4    0    0 -0.23121882088E+02  0.86383908274E+01  0.10062152272E+03  0.10360470096E+03  0.00000000000E+00 0.  1.
         11    1    4    4    0    0  0.36872985442E+02 -0.57883067055E+02  0.72148301620E+02  0.99576322154E+02  0.00000000000E+00 0. -1.
</event>
<event>
 8    1  0.7114239E-009  0.1008454E+03  0.7561462E-02  0.1278528E+00
          2   -1    0    0  501    0  0.00000000000E+00  0.00000000000E+00  0.24889686408E+03  0.24889686408E+03  0.00000000000E+00 0.  1.
         -2   -1    0    0    0  501 -0.00000000000E+00 -0.00000000000E+00 -0.75554921990E+02  0.75554921990E+02  0.00000000000E+00 0. -1.
         25    2    1    2    0    0 -0.40490946658E+02 -0.10023892471E+02  0.18267309253E+03  0.22529335772E+03  0.12509053968E+03 0.  0.
         23    2    1    2    0    0  0.40490946658E+02  0.10023892471E+02 -0.93311504481E+01  0.99158428340E+02  0.89472500584E+02 0.  0.
          5    1    3    3  502    0  0.44125424291E+02  0.85261303776E+01  0.62536023354E+02  0.77123113170E+02  0.41800000000E+01 0.  1.
         -5    1    3    3    0  502 -0.84616370949E+02 -0.18550022849E+02  0.12013706918E+03  0.14817024455E+03  0.41800000000E+01 0.  1.
        -11    1    4    4    0    0  0.36751261504E+01 -0.21223787426E+02  0.29963251031E+02  0.36901925658E+02  0.00000000000E+00 0.  1.
         11    1    4    4    0    0  0.36815820508E+02  0.31247679897E+02 -0.39294401479E+02  0.62256502682E+02  0.00000000000E+00 0. -1.
</event>
<event>
 8    1  0.7114239E-009  0.7408937E+02  0.7561462E-02  0.1346714E+00
          2   -1    0    0  501    0  0.00000000000E+00  0.00000000000E+00  0.10235473224E+04  0.10235473224E+04  0.00000000000E+00 0. -1.
         -2   -1    0    0    0  501 -0.00000000000E+00 -0.00000000000E+00 -0.12529706311E+02  0.12529706311E+02  0.00000000000E+00 0.  1.
         25    2    1    2    0    0  0.69270719406E+01 -0.26181680062E+02  0.67925337499E+03  0.69120622056E+03  0.12508967669E+03 0.  0.
         23    2    1    2    0    0 -0.69270719406E+01  0.26181680062E+02  0.33176424111E+03  0.34487080816E+03  0.90193669083E+02 0.  0.
          5    1    3    3  502    0  0.67904017971E+01 -0.41716611928E+02  0.70954313682E+02  0.82694451430E+02  0.41800000000E+01 0.  1.
         -5    1    3    3    0  502  0.13667014351E+00  0.15534931866E+02  0.60829906130E+03  0.60851176913E+03  0.41800000000E+01 0.  1.
        -11    1    4    4    0    0  0.23079148688E+01  0.57204302726E+02  0.25868007889E+03  0.26493969490E+03  0.00000000000E+00 0. -1.
         11    1    4    4    0    0 -0.92349868094E+01 -0.31022622664E+02  0.73084162224E+02  0.79931113256E+02  0.00000000000E+00 0.  1.
</event>
<event>
 8    1  0.7114239E-009  0.1032401E+03  0.7561462E-02  0.1273626E+00
          1   -1    0    0  501    0  0.00000000000E+00  0.00000000000E+00  0.18204520320E+03  0.18204520320E+03  0.00000000000E+00 0. -1.
         -1   -1    0    0    0  501 -0.00000000000E+00 -0.00000000000E+00 -0.70856887118E+02  0.70856887118E+02  0.00000000000E+00 0.  1.
         25    2    1    2    0    0 -0.99030399092E+01  0.18490466256E+02  0.32363965656E+02  0.13090038735E+03  0.12509003795E+03 0.  0.
         23    2    1    2    0    0  0.99030399092E+01 -0.18490466256E+02  0.78824350428E+02  0.12200170297E+03  0.90725794377E+02 0.  0.
          5    1    3    3  502    0  0.50035785998E+02 -0.96830804082E+01 -0.10089417173E+02  0.52121115352E+02  0.41800000000E+01 0. -1.
         -5    1    3    3    0  502 -0.59938825907E+02  0.28173546664E+02  0.42453382830E+02  0.78779271997E+02  0.41800000000E+01 0. -1.
        -11    1    4    4    0    0 -0.26299881843E+02  0.22273200607E+02  0.48856678520E+02  0.59789248919E+02  0.00000000000E+00 0.  1.
         11    1    4    4    0    0  0.36202921752E+02 -0.40763666863E+02  0.29967671908E+02  0.62212454051E+02  0.00000000000E+00 0. -1.
</event>
<event>
 8    1  0.7114239E-009  0.1941888E+03  0.7561462E-02  0.1154737E+00
          1   -1    0    0  501    0  0.00000000000E+00  0.00000000000E+00  0.82664567200E+03  0.82664567200E+03  0.00000000000E+00 0. -1.
         -1   -1    0    0    0  501 -0.00000000000E+00 -0.00000000000E+00 -0.50691987846E+02  0.50691987846E+02  0.00000000000E+00 0.  1.
         25    2    1    2    0    0 -0.16925362686E+03  0.38901192659E+02  0.40337672438E+03  0.45664065265E+03  0.12509121028E+03 0.  0.
         23    2    1    2    0    0  0.16925362686E+03 -0.38901192659E+02  0.37257695978E+03  0.42069700720E+03  0.89511384243E+02 0.  0.
          5    1    3    3  502    0 -0.13710602252E+03  0.79491288062E+02  0.33634506355E+03  0.37183652384E+03  0.41800000000E+01 0. -1.
         -5    1    3    3    0  502 -0.32147604347E+02 -0.40590095404E+02  0.67031660827E+02  0.84804128810E+02  0.41800000000E+01 0. -1.
        -11    1    4    4    0    0  0.59306800260E+02  0.49721781664E+01  0.52249604553E+02  0.79196213853E+02  0.00000000000E+00 0. -1.
         11    1    4    4    0    0  0.10994682660E+03 -0.43873370825E+02  0.32032735523E+03  0.34150079334E+03  0.00000000000E+00 0.  1.
</event>
<event>
 8    1  0.7114239E-009  0.4125595E+03  0.7561462E-02  0.1039515E+00
         -1   -1    0    0    0  501 -0.00000000000E+00  0.00000000000E+00  0.14601395999E+03  0.14601395999E+03  0.00000000000E+00 0.  1.
          1   -1    0    0  501    0  0.00000000000E+00 -0.00000000000E+00 -0.12174021241E+04  0.12174021241E+04  0.00000000000E+00 0. -1.
         25    2    1    2    0    0  0.96597524740E+02 -0.39470758722E+03 -0.58153972934E+03  0.72038926918E+03  0.12508829344E+03 0.  0.
         23    2    1    2    0    0 -0.96597524740E+02  0.39470758722E+03 -0.48984843480E+03  0.64302681494E+03  0.91688791344E+02 0.  0.
          5    1    3    3  502    0  0.48601730704E+02 -0.47426119882E+02 -0.53502119217E+02  0.86552378565E+02  0.41800000000E+01 0. -1.
         -5    1    3    3    0  502  0.47995794036E+02 -0.34728146734E+03 -0.52803761012E+03  0.63383689062E+03  0.41800000000E+01 0. -1.
        -11    1    4    4    0    0 -0.52332439421E+02  0.19304999114E+03 -0.31157427127E+03  0.37025060406E+03  0.00000000000E+00 0.  1.
         11    1    4    4    0    0 -0.44265085319E+02  0.20165759608E+03 -0.17827416354E+03  0.27277621088E+03  0.00000000000E+00 0. -1.
</event>
<event>
 8    1  0.7114239E-009  0.9143069E+02  0.7561462E-02  0.1299424E+00
          2   -1    0    0  501    0  0.00000000000E+00  0.00000000000E+00  0.23056478143E+03  0.23056478143E+03  0.00000000000E+00 0. -1.
         -2   -1    0    0    0  501 -0.00000000000E+00 -0.00000000000E+00 -0.51085730928E+02  0.51085730928E+02  0.00000000000E+00 0.  1.
         25    2    1    2    0    0 -0.10717853915E+02  0.37136979325E+01  0.11667337703E+03  0.17143498610E+03  0.12509441876E+03 0.  0.
         23    2    1    2    0    0  0.10717853915E+02 -0.37136979325E+01  0.62805673465E+02  0.11021552626E+03  0.89856806441E+02 0.  0.
          5    1    3    3  502    0 -0.57918607645E+02  0.33343855399E+02  0.81165765331E+02  0.10522229643E+03  0.41800000000E+01 0. -1.
         -5    1    3    3    0  502  0.47200753730E+02 -0.29630157467E+02  0.35507611704E+02  0.66212689669E+02  0.41800000000E+01 0. -1.
        -11    1    4    4    0    0  0.28725637722E+02  0.16350383953E+02  0.73982619011E+02  0.81030396973E+02  0.00000000000E+00 0. -1.
         11    1    4    4    0    0 -0.18007783807E+02 -0.20064081885E+02 -0.11176945546E+02  0.29185129283E+02  0.00000000000E+00 0.  1.
</event>
<event>
 8    1  0.7114239E-009  0.6819226E+02  0.7561462E-02  0.1366351E+00
         -2   -1    0    0    0  501 -0.00000000000E+00  0.00000000000E+00  0.43947408288E+03  0.43947408288E+03  0.00000000000E+00 0.  1.
          2   -1    0    0  501    0  0.00000000000E+00 -0.00000000000E+00 -0.32376534551E+02  0.32376534551E+02  0.00000000000E+00 0. -1.
         25    2    1    2    0    0 -0.50735098055E+00  0.37123085961E+02  0.16282517730E+03  0.20865476835E+03  0.12508554304E+03 0.  0.
         23    2    1    2    0    0  0.50735098055E+00 -0.37123085961E+02  0.24427237103E+03  0.26319584908E+03  0.90690036981E+02 0.  0.
          5    1    3    3  502    0 -0.38075238122E+01  0.23674279182E+02 -0.16075961065E+02  0.29169807276E+02  0.41800000000E+01 0.  1.
         -5    1    3    3    0  502  0.33001728316E+01  0.13448806779E+02  0.17890113837E+03  0.17948496108E+03  0.41800000000E+01 0.  1.
        -11    1    4    4    0    0 -0.33830506054E+02  0.13487248336E+02  0.10314963046E+03  0.10939038016E+03  0.00000000000E+00 0.  1.
         11    1    4    4    0    0  0.34337857034E+02 -0.50610334297E+02  0.14112274057E+03  0.15380546892E+03  0.00000000000E+00 0. -1.
</event>
<event>
 8    1  0.7114239E-009  0.1075063E+03  0.7561462E-02  0.1265259E+00
          2   -1    0    0  501    0  0.00000000000E+00  0.00000000000E+00  0.31844833474E+02  0.31844833474E+02  0.00000000000E+00 0. -1.
         -2   -1    0    0    0  501 -0.00000000000E+00 -0.00000000000E+00 -0.47081791507E+03  0.47081791507E+03  0.00000000000E+00 0.  1.
         25    2    1    2    0    0 -0.72586837093E+01  0.29631474625E+02 -0.14794862992E+03  0.19612937083E+03  0.12508884935E+03 0.  0.
         23    2    1    2    0    0  0.72586837093E+01 -0.29631474625E+02 -0.29102445168E+03  0.30653337771E+03  0.91305900133E+02 0.  0.
          5    1    3    3  502    0  0.24130745737E+02 -0.40850752828E+02 -0.80638152158E+02  0.93653942148E+02  0.41800000000E+01 0.  1.
         -5    1    3    3    0  502 -0.31389429446E+02  0.70482227453E+02 -0.67310477760E+02  0.10247542868E+03  0.41800000000E+01 0.  1.
        -11    1    4    4    0    0 -0.11356159576E+02  0.27646138657E+02 -0.51414982309E+02  0.59470763816E+02  0.00000000000E+00 0.  1.
         11    1    4    4    0    0  0.18614843286E+02 -0.57277613282E+02 -0.23960946937E+03  0.24706261389E+03  0.00000000000E+00 0. -1.
</event>
<event>
 8    1  0.7114239E-009  0.1450636E+03  0.7561462E-02  0.1206673E+00
          1   -1    0    0  501    0  0.00000000000E+00  0.00000000000E+00  0.20767782474E+03  0.20767782474E+03  0.00000000000E+00 0. -1.
         -1   -1    0    0    0  501 -0.00000000000E+00 -0.00000000000E+00 -0.12743040578E+03  0.12743040578E+03  0.00000000000E+00 0.  1.
         25    2    1    2    0    0  0.10609428223E+03 -0.19007097736E+02 -0.14471069846E+02  0.16575339102E+03  0.12509000074E+03 0.  0.
         23    2    1    2    0    0 -0.10609428223E+03  0.19007097736E+02  0.94718488812E+02  0.16935483950E+03  0.89956673202E+02 0.  0.
          5    1    3    3  502    0  0.10449113117E+03  0.32358737436E+02  0.74641017028E+01  0.10972087129E+03  0.41800000000E+01 0. -1.
         -5    1    3    3    0  502  0.16031510589E+01 -0.51365835172E+02 -0.21935171548E+02  0.56032519729E+02  0.41800000000E+01 0. -1.
        -11    1    4    4    0    0 -0.41993005433E+02  0.43515350317E+02  0.11615553526E+02  0.61578562034E+02  0.00000000000E+00 0.  1.
         11    1    4    4    0    0 -0.64101276798E+02 -0.24508252581E+02  0.83102935286E+02  0.10777627747E+03  0.00000000000E+00 0. -1.
</event>
<event>
 8    1  0.7114239E-009  0.2928947E+03  0.7561462E-02  0.1088847E+00
         -1   -1    0    0    0  501 -0.00000000000E+00  0.00000000000E+00  0.13311112450E+04  0.13311112450E+04  0.00000000000E+00 0.  1.
          1   -1    0    0  501    0  0.00000000000E+00 -0.00000000000E+00 -0.73780979680E+02  0.73780979680E+02  0.00000000000E+00 0. -1.
         25    2    1    2    0    0 -0.80646402098E+02  0.26896881367E+03  0.44666009071E+03  0.54221857324E+03  0.12509068564E+03 0.  0.
         23    2    1    2    0    0  0.80646402098E+02 -0.26896881367E+03  0.81067017457E+03  0.86267365140E+03  0.90397079477E+02 0.  0.
          5    1    3    3  502    0 -0.35221241985E+02  0.44747463113E+01  0.81807880795E+02  0.89277998419E+02  0.41800000000E+01 0.  1.
         -5    1    3    3    0  502 -0.45425160113E+02  0.26449406736E+03  0.36485220991E+03  0.45294057482E+03  0.41800000000E+01 0.  1.
        -11    1    4    4    0    0  0.70663410183E+02 -0.20359895256E+03  0.49068350917E+03  0.53592551459E+03  0.00000000000E+00 0.  1.
         11    1    4    4    0    0  0.99829919147E+01 -0.65369861109E+02  0.31998666540E+03  0.32674813681E+03  0.00000000000E+00 0. -1.
</event>
<event>
 8    1  0.7114239E-009  0.1041383E+03  0.7561462E-02  0.1271827E+00
         -1   -1    0    0    0  501 -0.00000000000E+00  0.00000000000E+00  0.62969470383E+03  0.62969470383E+03  0.00000000000E+00 0.  1.
          1   -1    0    0  501    0  0.00000000000E+00 -0.00000000000E+00 -0.68205849706E+02  0.68205849706E+02  0.00000000000E+00 0. -1.
         25    2    1    2    0    0 -0.27478547508E+02  0.65061131332E+02  0.20467388518E+02  0.14510290455E+03  0.12509163654E+03 0.  0.
         23    2    1    2    0    0  0.27478547508E+02 -0.65061131332E+02  0.54102146560E+03  0.55279764898E+03  0.88842518509E+02 0.  0.
          5    1    3    3  502    0 -0.26493906101E+02  0.77476094506E+02 -0.34232915879E+02  0.88847269007E+02  0.41800000000E+01 0. -1.
         -5    1    3    3    0  502 -0.98464140629E+00 -0.12414963174E+02  0.54700304397E+02  0.56255635543E+02  0.41800000000E+01 0. -1.
        -11    1    4    4    0    0  0.58791557319E+02 -0.29525724816E+02  0.29313279072E+03  0.30042478032E+03  0.00000000000E+00 0. -1.
         11    1    4    4    0    0 -0.31313009812E+02 -0.35535406516E+02  0.24788867488E+03  0.25237286866E+03  0.00000000000E+00 0.  1.
</event>
<event>
 8    1  0.7114239E-009  0.1795938E+03  0.7561462E-02  0.1168197E+00
         -2   -1    0    0    0  501 -0.00000000000E+00  0.00000000000E+00  0.18619329757E+03  0.18619329757E+03  0.00000000000E+00 0.  1.
          2   -1    0    0  501    0  0.00000000000E+00 -0.00000000000E+00 -0.20707880426E+03  0.20707880426E+03  0.00000000000E+00 0. -1.
         25    2    1    2    0    0 -0.26566060593E+02  0.15308178090E+03 -0.60982394978E+02  0.20857832399E+03  0.12508508115E+03 0.  0.
         23    2    1    2    0    0  0.26566060593E+02 -0.15308178090E+03  0.40096888286E+02  0.18469377784E+03  0.91456240383E+02 0.  0.
          5    1    3    3  502    0 -0.63994146892E+02  0.83382867352E+02 -0.73563242091E+02  0.12836267523E+03  0.41800000000E+01 0. -1.
         -5    1    3    3    0  502  0.37428086299E+02  0.69698913545E+02  0.12580847113E+02  0.80215648769E+02  0.41800000000E+01 0. -1.
        -11    1    4    4    0    0 -0.16898181387E+02 -0.11719636006E+03  0.48021117713E+02  0.12777544010E+03  0.00000000000E+00 0.  1.
         11    1    4    4    0    0  0.43464241980E+02 -0.35885420837E+02 -0.79242294272E+01  0.56918337744E+02  0.00000000000E+00 0. -1.
</event>
<event>
 8    1  0.7114239E-009  0.8930559E+02  0.7561462E-02  0.1304542E+00
         -1   -1    0    0    0  501 -0.00000000000E+00  0.00000000000E+00  0.45228905853E+02  0.45228905853E+02  0.00000000000E+00 0.  1.
          1   -1    0    0  501    0  0.00000000000E+00 -0.00000000000E+00 -0.32944617427E+03  0.32944617427E+03  0.00000000000E+00 0. -1.
         25    2    1    2    0    0 -0.43541093522E+02 -0.21900186585E+02 -0.20239340569E+03  0.24287151252E+03  0.12509210979E+03 0.  0.
         23    2    1    2    0    0  0.43541093522E+02  0.21900186585E+02 -0.81823862729E+02  0.13180356760E+03  0.91113066698E+02 0.  0.
          5    1    3    3  502    0  0.32451235667E+01  0.42479076028E+02 -0.28054830298E+02  0.51181526259E+02  0.41800000000E+01 0. -1.
         -5    1    3    3    0  502 -0.46786217088E+02 -0.64379262613E+02 -0.17433857539E+03  0.19168998626E+03  0.41800000000E+01 0. -1.
        -11    1    4    4    0    0  0.31909901161E+02  0.68703998091E+00  0.12611523858E+02  0.34318571503E+02  0.00000000000E+00 0.  1.
         11    1    4    4    0    0  0.11631192361E+02  0.21213146604E+02 -0.94435386587E+02  0.97484996099E+02  0.00000000000E+00 0. -1.
</event>
<event>
 8    1  0.7114239E-009  0.1540230E+03  0.7561462E-02  0.1195615E+00
         -3   -1    0    0    0  501 -0.00000000000E+00  0.00000000000E+00  0.10071414381E+03  0.10071414381E+03  0.00000000000E+00 0.  1.
          3   -1    0    0  501    0  0.00000000000E+00 -0.00000000000E+00 -0.25861870352E+03  0.25861870352E+03  0.00000000000E+00 0. -1.
         25    2    1    2    0    0 -0.96786467451E+02 -0.65576451932E+02 -0.10879896696E+03  0.20286173227E+03  0.12509107034E+03 0.  0.
         23    2    1    2    0    0  0.96786467451E+02  0.65576451932E+02 -0.49105592747E+02  0.15647111506E+03  0.91673110992E+02 0.  0.
          5    1    3    3  502    0 -0.11433993031E+03 -0.27976029461E+02 -0.43868661359E+02  0.12569092941E+03  0.41800000000E+01 0.  1.
         -5    1    3    3    0  502  0.17553462857E+02 -0.37600422471E+02 -0.64930305605E+02  0.77170802861E+02  0.41800000000E+01 0.  1.
        -11    1    4    4    0    0  0.98410871092E+02  0.84408291886E+02 -0.43541784573E+02  0.13676748989E+03  0.00000000000E+00 0.  1.
         11    1    4    4    0    0 -0.16244036403E+01 -0.18831839954E+02 -0.55638081740E+01  0.19703625165E+02  0.00000000000E+00 0. -1.
</event>
<event>
 8    1  0.7114239E-009  0.9929355E+02  0.7561462E-02  0.1281789E+00
          1   -1    0    0  501    0  0.00000000000E+00  0.00000000000E+00  0.20689706755E+03  0.20689706755E+03  0.00000000000E+00 0. -1.
         -1   -1    0    0    0  501 -0.00000000000E+00 -0.00000000000E+00 -0.58293056250E+02  0.58293056250E+02  0.00000000000E+00 0.  1.
         25    2    1    2    0    0 -0.65863354477E+01  0.71007442595E+01  0.11013385055E+03  0.16694338986E+03  0.12508728950E+03 0.  0.
         23    2    1    2    0    0  0.65863354477E+01 -0.71007442595E+01  0.38470160740E+02  0.98246733939E+02  0.89881405634E+02 0.  0.
          5    1    3    3  502    0  0.41205241926E+02 -0.27286956292E+02  0.93136277248E+02  0.10551913801E+03  0.41800000000E+01 0.  1.
         -5    1    3    3    0  502 -0.47791577374E+02  0.34387700552E+02  0.16997573307E+02  0.61424251851E+02  0.41800000000E+01 0.  1.
        -11    1    4    4    0    0  0.15368269874E+01  0.41285896057E+02  0.12869189106E+02  0.43272428619E+02  0.00000000000E+00 0.  1.
         11    1    4    4    0    0  0.50495084603E+01 -0.48386640316E+02  0.25600971634E+02  0.54974305320E+02  0.00000000000E+00 0. -1.
</event>
<event>
 8    1  0.7114239E-009  0.1018074E+03  0.7561462E-02  0.1276540E+00
          1   -1    0    0  501    0  0.00000000000E+00  0.00000000000E+00  0.64060387381E+03  0.64060387381E+03  0.00000000000E+00 0. -1.
         -1   -1    0    0    0  501 -0.00000000000E+00 -0.00000000000E+00 -0.37209271337E+02  0.37209271337E+02  0.00000000000E+00 0.  1.
         25    2    1    2    0    0  0.31686311390E+02 -0.35986751901E+02  0.53804959610E+03  0.55447656908E+03  0.12509128329E+03 0.  0.
         23    2    1    2    0    0 -0.31686311390E+02  0.35986751901E+02  0.65345006379E+02  0.12333657607E+03  0.92967050596E+02 0.  0.
          5    1    3    3  502    0 -0.43346602964E+02 -0.12841478162E+02  0.30872077082E+03  0.31204137271E+03  0.41800000000E+01 0.  1.
         -5    1    3    3    0  502  0.75032914354E+02 -0.23145273739E+02  0.22932882528E+03  0.24243519636E+03  0.41800000000E+01 0.  1.
        -11    1    4    4    0    0 -0.51181416615E+02  0.29274743935E+02  0.45466774515E+01  0.59137300538E+02  0.00000000000E+00 0.  1.
         11    1    4    4    0    0  0.19495105225E+02  0.67120079663E+01  0.60798328927E+02  0.64199275533E+02  0.00000000000E+00 0. -1.
</event>
<event>
 8    1  0.7114239E-009  0.1479046E+03  0.7561462E-02  0.1203072E+00
          1   -1    0    0  501    0  0.00000000000E+00  0.00000000000E+00  0.49449365364E+03  0.49449365364E+03  0.00000000000E+00 0. -1.
         -1   -1    0    0    0  501 -0.00000000000E+00 -0.00000000000E+00 -0.64633586371E+02  0.64633586371E+02  0.00000000000E+00 0.  1.
         25    2    1    2    0    0  0.51798038895E+02  0.11662994540E+03  0.31987669416E+03  0.36640717580E+03  0.12509011956E+03 0.  0.
         23    2    1    2    0    0 -0.51798038895E+02 -0.11662994540E+03  0.10998337310E+03  0.19272006421E+03  0.93590062473E+02 0.  0.
          5    1    3    3  502    0  0.19471947052E+02  0.12477083944E+03  0.16441359086E+03  0.20735529980E+03  0.41800000000E+01 0.  1.
         -5    1    3    3    0  502  0.32326091843E+02 -0.81408940421E+01  0.15546310330E+03  0.15905187600E+03  0.41800000000E+01 0.  1.
        -11    1    4    4    0    0  0.40144852749E+01 -0.44402606138E+02 -0.61525339974E+01  0.45006235106E+02  0.00000000000E+00 0.  1.
         11    1    4    4    0    0 -0.55812524170E+02 -0.72227339258E+02  0.11613590710E+03  0.14771382910E+03  0.00000000000E+00 0. -1.
</event>
<event>
 8    1  0.7114239E-009  0.9398849E+02  0.7561462E-02  0.1293471E+00
          2   -1    0    0  501    0  0.00000000000E+00  0.00000000000E+00  0.47095619538E+03  0.47095619538E+03  0.00000000000E+00 0. -1.
         -2   -1    0    0    0  501 -0.00000000000E+00 -0.00000000000E+00 -0.34709398274E+02  0.34709398274E+02  0.00000000000E+00 0.  1.
         25    2    1    2    0    0 -0.63029324091E+02  0.85828656183E+01  0.19857999479E+03  0.24316142363E+03  0.12508837810E+03 0.  0.
         23    2    1    2    0    0  0.63029324091E+02 -0.85828656183E+01  0.23766680232E+03  0.26250417002E+03  0.91523598470E+02 0.  0.
          5    1    3    3  502    0 -0.84968079678E+01 -0.32768791108E+02  0.16179547621E+03  0.16535186100E+03  0.41800000000E+01 0.  1.
         -5    1    3    3    0  502 -0.54532516124E+02  0.41351656727E+02  0.36784518577E+02  0.77809562624E+02  0.41800000000E+01 0.  1.
        -11    1    4    4    0    0 -0.10775838130E+02 -0.34662643677E+01 -0.21614656070E+01  0.11524131622E+02  0.00000000000E+00 0.  1.
         11    1    4    4    0    0  0.73805162222E+02 -0.51166012506E+01  0.23982826793E+03  0.25098003840E+03  0.00000000000E+00 0. -1.
</event>
<event>
 8    1  0.7114239E-009  0.2547484E+03  0.7561462E-02  0.1110340E+00
          1   -1    0    0  501    0  0.00000000000E+00  0.00000000000E+00  0.43797947151E+03  0.43797947151E+03  0.00000000000E+00 0. -1.
         -1   -1    0    0    0  501 -0.00000000000E+00 -0.00000000000E+00 -0.19833636940E+03  0.19833636940E+03  0.00000000000E+00 0.  1.
         25    2    1    2    0    0 -0.17004030305E+03 -0.17030358805E+03  0.26328012932E+03  0.37799506276E+03  0.12508726639E+03 0.  0.
         23    2    1    2    0    0  0.17004030305E+03  0.17030358805E+03 -0.23637027209E+02  0.25832077815E+03  0.90850969203E+02 0.  0.
          5    1    3    3  502    0 -0.88000283489E+02 -0.15756337613E+03  0.13618592894E+03  0.22612904951E+03  0.41800000000E+01 0. -1.
         -5    1    3    3    0  502 -0.82040019559E+02 -0.12740211914E+02  0.12709420038E+03  0.15186601325E+03  0.41800000000E+01 0. -1.
        -11    1    4    4    0    0  0.41843214830E+02  0.75799875381E+02 -0.45085806384E+02  0.97617650414E+02  0.00000000000E+00 0. -1.
         11    1    4    4    0    0  0.12819708822E+03  0.94503712665E+02  0.21448779174E+02  0.16070312773E+03  0.00000000000E+00 0.  1.
</event>
<event>
 8    1  0.7114239E-009  0.8574064E+02  0.7561462E-02  0.1313507E+00
         -2   -1    0    0    0  501 -0.00000000000E+00  0.00000000000E+00  0.74179551557E+02  0.74179551557E+02  0.00000000000E+00 0.  1.
          2   -1    0    0  501    0  0.00000000000E+00 -0.00000000000E+00 -0.29944846581E+03  0.29944846581E+03  0.00000000000E+00 0. -1.
         25    2    1    2    0    0 -0.58133315449E+02 -0.23295303179E+02 -0.22393893283E+03  0.26404427069E+03  0.12509427539E+03 0.  0.
         23    2    1    2    0    0  0.58133315449E+02  0.23295303179E+02 -0.13299814201E+01  0.10958374667E+03  0.89914821737E+02 0.  0.
          5    1    3    3  502    0 -0.16145650383E+02  0.28987250967E+02 -0.18154937431E+03  0.18460387444E+03  0.41800000000E+01 0. -1.
         -5    1    3    3    0  502 -0.41987665066E+02 -0.52282554146E+02 -0.42389558513E+02  0.79440396252E+02  0.41800000000E+01 0. -1.
        -11    1    4    4    0    0  0.22967291397E+02  0.27052172501E+02  0.41130780635E+02  0.54323637828E+02  0.00000000000E+00 0.  1.
         11    1    4    4    0    0  0.35166024052E+02 -0.37568693223E+01 -0.42460762055E+02  0.55260108841E+02  0.00000000000E+00 0. -1.
</event>
<event>
 8    1  0.7114239E-009  0.8482620E+02  0.7561462E-02  0.1315888E+00
         -2   -1    0    0    0  501 -0.00000000000E+00  0.00000000000E+00  0.13267086292E+02  0.13267086292E+02  0.00000000000E+00 0.  1.
          2   -1    0    0  501    0  0.00000000000E+00 -0.00000000000E+00 -0.10994322891E+04  0.10994322891E+04  0.00000000000E+00 0. -1.
         25    2    1    2    0    0  0.49807943660E+02 -0.20488636564E+02 -0.66290141108E+03  0.67675002656E+03  0.12510676304E+03 0.  0.
         23    2    1    2    0    0 -0.49807943660E+02  0.20488636564E+02 -0.42326379172E+03  0.43594934882E+03  0.89437027441E+02 0.  0.
          5    1    3    3  502    0  0.30567321526E+01  0.86898542165E+01  0.13481034541E+01  0.10205241824E+02  0.41800000000E+01 0. -1.
         -5    1    3    3    0  502  0.46751211507E+02 -0.29178490780E+02 -0.66424951453E+03  0.66654478474E+03  0.41800000000E+01 0. -1.
        -11    1    4    4    0    0 -0.46773191777E+02  0.53531442088E+02 -0.27814774489E+03  0.28708799130E+03  0.00000000000E+00 0.  1.
         11    1    4    4    0    0 -0.30347518830E+01 -0.33042805524E+02 -0.14511604683E+03  0.14886135752E+03  0.00000000000E+00 0. -1.
</event>
<event>
 8    1  0.7114239E-009  0.9175085E+02  0.7561462E-02  0.1298666E+00
         -3   -1    0    0    0  501 -0.00000000000E+00  0.00000000000E+00  0.76190759436E+02  0.76190759436E+02  0.00000000000E+00 0.  1.
          3   -1    0    0  501    0  0.00000000000E+00 -0.00000000000E+00 -0.25027460095E+03  0.25027460095E+03  0.00000000000E+00 0. -1.
         25    2    1    2    0    0  0.29517749287E+02 -0.38057612441E+02 -0.11742439582E+02  0.13456053111E+03  0.12509585228E+03 0.  0.
         23    2    1    2    0    0 -0.29517749287E+02  0.38057612441E+02 -0.16234140193E+03  0.19190482928E+03  0.90294259677E+02 0.  0.
          5    1    3    3  502    0 -0.26094024437E+02 -0.24752400097E+02 -0.52813642539E+02  0.64033839960E+02  0.41800000000E+01 0.  1.
         -5    1    3    3    0  502  0.55611773723E+02 -0.13305212345E+02  0.41071202957E+02  0.70526691150E+02  0.41800000000E+01 0.  1.
        -11    1    4    4    0    0 -0.44196184306E+02  0.53002732758E+02 -0.74299520059E+02  0.10140518265E+03  0.00000000000E+00 0.  1.
         11    1    4    4    0    0  0.14678435020E+02 -0.14945120317E+02 -0.88041881872E+02  0.90499646626E+02  0.00000000000E+00 0. -1.
</event>
<event>
 8    1  0.7114239E-009  0.1635370E+03  0.7561462E-02  0.1184760E+00
         -1   -1    0    0    0  501 -0.00000000000E+00  0.00000000000E+00  0.38875262353E+02  0.38875262353E+02  0.00000000000E+00 0.  1.
          1   -1    0    0  501    0  0.00000000000E+00 -0.00000000000E+00 -0.73480100561E+03  0.73480100561E+03  0.00000000000E+00 0. -1.
         25    2    1    2    0    0 -0.88679051277E+02  0.93880233936E+02 -0.36185409079E+03  0.40405808009E+03  0.12508827526E+03 0.  0.
         23    2    1    2    0    0  0.88679051277E+02 -0.93880233936E+02 -0.33407165247E+03  0.36961818787E+03  0.91303139934E+02 0.  0.
          5    1    3    3  502    0 -0.50814674909E+02 -0.15616988782E+02 -0.57747160275E+02  0.78601707644E+02  0.41800000000E+01 0. -1.
         -5    1    3    3    0  502 -0.37864376369E+02  0.10949722272E+03 -0.30410693051E+03  0.32545637245E+03  0.41800000000E+01 0. -1.
        -11    1    4    4    0    0 -0.18082937779E+02 -0.24649587788E+02 -0.55539323043E+02  0.63397249317E+02  0.00000000000E+00 0.  1.
         11    1    4    4    0    0  0.10676198906E+03 -0.69230646148E+02 -0.27853232942E+03  0.30622093855E+03  0.00000000000E+00 0. -1.
</event>
<event>
 8    1  0.7114239E-009  0.9194170E+02  0.7561462E-02  0.1298217E+00
          1   -1    0    0  501    0  0.00000000000E+00  0.00000000000E+00  0.17265478341E+03  0.17265478341E+03  0.00000000000E+00 0. -1.
         -1   -1    0    0    0  501 -0.00000000000E+00 -0.00000000000E+00 -0.99461849821E+02  0.99461849821E+02  0.00000000000E+00 0.  1.
         25    2    1    2    0    0 -0.46680155506E+02 -0.21931444381E+02 -0.10952842538E+02  0.13575005226E+03  0.12509231295E+03 0.  0.
         23    2    1    2    0    0  0.46680155506E+02  0.21931444381E+02  0.84145776123E+02  0.13636658097E+03  0.94102643929E+02 0.  0.
          5    1    3    3  502    0 -0.67008292961E+02 -0.28517025751E+02 -0.51797857894E+02  0.89464085340E+02  0.41800000000E+01 0. -1.
         -5    1    3    3    0  502  0.20328137455E+02  0.65855813704E+01  0.40845015356E+02  0.46285966921E+02  0.41800000000E+01 0. -1.
        -11    1    4    4    0    0  0.41137502151E+02  0.47595999625E+02  0.18359636375E+02  0.65534338414E+02  0.00000000000E+00 0.  1.
         11    1    4    4    0    0  0.55426533542E+01 -0.25664555244E+02  0.65786139747E+02  0.70832242552E+02  0.00000000000E+00 0. -1.
</event>
<event>
 8    1  0.7114239E-009  0.1033083E+03  0.7561462E-02  0.1273489E+00
         -1   -1    0    0    0  501 -0.00000000000E+00  0.00000000000E+00  0.15874335277E+03  0.15874335277E+03  0.00000000000E+00 0.  1.
          1   -1    0    0  501    0  0.00000000000E+00 -0.00000000000E+00 -0.98418317629E+02  0.98418317629E+02  0.00000000000E+00 0. -1.
         25    2    1    2    0    0 -0.98533338665E+01  0.61659377494E+02  0.43399400679E+02  0.14639179209E+03  0.12509229309E+03 0.  0.
         23    2    1    2    0    0  0.98533338665E+01 -0.61659377494E+02  0.16925634462E+02  0.11076987831E+03  0.89913968982E+02 0.  0.
          5    1    3    3  502    0  0.11134998678E+02  0.84381818966E+02 -0.86986995535E+01  0.85658737683E+02  0.41800000000E+01 0.  1.
         -5    1    3    3    0  502 -0.20988332544E+02 -0.22722441472E+02  0.52098100233E+02  0.60733054404E+02  0.41800000000E+01 0.  1.
        -11    1    4    4    0    0 -0.15544298521E+02 -0.62867438416E+02  0.40263524407E+02  0.76256746765E+02  0.00000000000E+00 0.  1.
         11    1    4    4    0    0  0.25397632387E+02  0.12080609220E+01 -0.23337889945E+02  0.34513131547E+02  0.00000000000E+00 0. -1.
</event>
<event>
 8    1  0.7114239E-009  0.1054216E+03  0.7561462E-02  0.1269291E+00
         -2   -1    0    0    0  501 -0.00000000000E+00  0.00000000000E+00  0.11627429629E+02  0.11627429629E+02  0.00000000000E+00 0.  1.
          2   -1    0    0  501    0  0.00000000000E+00 -0.00000000000E+00 -0.23426170531E+04  0.23426170531E+04  0.00000000000E+00 0. -1.
         25    2    1    2    0    0 -0.37245944541E+02 -0.24246343481E+02 -0.20746926148E+04  0.20789354084E+04  0.12509133079E+03 0.  0.
         23    2    1    2    0    0  0.37245944541E+02  0.24246343481E+02 -0.25629700869E+03  0.27530907430E+03  0.90176405842E+02 0.  0.
          5    1    3    3  502    0 -0.25437334126E+02  0.46169428761E+02 -0.54155791782E+03  0.54413337048E+03  0.41800000000E+01 0.  1.
         -5    1    3    3    0  502 -0.11808610415E+02 -0.70415772242E+02 -0.15331346970E+04  0.15348020379E+04  0.41800000000E+01 0.  1.
        -11    1    4    4    0    0 -0.11939271771E+02  0.34232276046E+02 -0.43274940008E+02  0.56454542478E+02  0.00000000000E+00 0.  1.
         11    1    4    4    0    0  0.49185216312E+02 -0.99859325648E+01 -0.21302206868E+03  0.21885453182E+03  0.00000000000E+00 0. -1.
</event>
<event>
 8    1  0.7114239E-009  0.1092859E+03  0.7561462E-02  0.1261898E+00
          1   -1    0    0  501    0  0.00000000000E+00  0.00000000000E+00  0.90521231403E+02  0.90521231403E+02  0.00000000000E+00 0. -1.
         -1   -1    0    0    0  501 -0.00000000000E+00 -0.00000000000E+00 -0.18016696969E+03  0.18016696969E+03  0.00000000000E+00 0.  1.
         25    2    1    2    0    0  0.69009577205E+01 -0.41245388791E+02  0.12327676809E+02  0.13246972447E+03  0.12508977165E+03 0.  0.
         23    2    1    2    0    0 -0.69009577205E+01  0.41245388791E+02 -0.10197341509E+03  0.13821847662E+03  0.83408420313E+02 0.  0.
          5    1    3    3  502    0  0.57848644686E+02  0.96248190690E+01  0.13583450590E+02  0.60341406713E+02  0.41800000000E+01 0.  1.
         -5    1    3    3    0  502 -0.50947686966E+02 -0.50870207860E+02 -0.12557737811E+01  0.72128317759E+02  0.41800000000E+01 0.  1.
        -11    1    4    4    0    0 -0.31787361565E+02  0.51682443936E+02 -0.90355245918E+02  0.10883741007E+03  0.00000000000E+00 0.  1.
         11    1    4    4    0    0  0.24886403844E+02 -0.10437055145E+02 -0.11618169176E+02  0.29381066546E+02  0.00000000000E+00 0. -1.
</event>
<event>
 8    1  0.7114239E-009  0.8039847E+02  0.7561462E-02  0.1327924E+00
          2   -1    0    0  501    0  0.00000000000E+00  0.00000000000E+00  0.23736874881E+03  0.23736874881E+03  0.00000000000E+00 0. -1.
         -2   -1    0    0    0  501 -0.00000000000E+00 -0.00000000000E+00 -0.50399101123E+02  0.50399101123E+02  0.00000000000E+00 0.  1.
         25    2    1    2    0    0 -0.15746199119E+02 -0.10938452322E+01  0.95221134337E+02  0.15800168017E+03  0.12509327411E+03 0.  0.
         23    2    1    2    0    0  0.15746199119E+02  0.10938452322E+01  0.91748513351E+02  0.12976616976E+03  0.90400939313E+02 0.  0.
          5    1    3    3  502    0 -0.27374564684E+02  0.41722890412E+02 -0.29768450499E+01  0.50164732457E+02  0.41800000000E+01 0. -1.
         -5    1    3    3    0  502  0.11628365564E+02 -0.42816735645E+02  0.98197979387E+02  0.10783694772E+03  0.41800000000E+01 0. -1.
        -11    1    4    4    0    0 -0.21886722527E+02 -0.13587269441E+02 -0.37901696824E+01  0.26038584832E+02  0.00000000000E+00 0.  1.
         11    1    4    4    0    0  0.37632921647E+02  0.14681114673E+02  0.95538683034E+02  0.10372758493E+03  0.00000000000E+00 0. -1.
</event>
<event>
 8    1  0.7114239E-009  0.8913166E+02  0.7561462E-02  0.1304968E+00
          2   -1    0    0  501    0  0.00000000000E+00  0.00000000000E+00  0.22587098825E+03  0.22587098825E+03  0.00000000000E+00 0. -1.
         -2   -1    0    0    0  501 -0.00000000000E+00 -0.00000000000E+00 -0.69177202786E+02  0.69177202786E+02  0.00000000000E+00 0.  1.
         25    2    1    2    0    0 -0.61854814898E+02 -0.14711896220E+02  0.88177159977E+02  0.16573267995E+03  0.12509856772E+03 0.  0.
         23    2    1    2    0    0  0.61854814898E+02  0.14711896220E+02  0.68516625490E+02  0.12931551109E+03  0.89361711174E+02 0.  0.
          5    1    3    3  502    0 -0.74950912323E+02  0.91128303517E+01  0.10799029028E+03  0.13183344845E+03  0.41800000000E+01 0.  1.
         -5    1    3    3    0  502  0.13096097425E+02 -0.23824726571E+02 -0.19813130301E+02  0.33899231500E+02  0.41800000000E+01 0.  1.
        -11    1    4    4    0    0  0.16461232393E+02  0.23707638988E+02 -0.15969680296E+02  0.32985678817E+02  0.00000000000E+00 0.  1.
         11    1    4    4    0    0  0.45393582505E+02 -0.89957427682E+01  0.84486305786E+02  0.96329832275E+02  0.00000000000E+00 0. -1.
</event>
<event>
 8    1  0.7114239E-009  0.2108777E+03  0.7561462E-02  0.1140873E+00
         -3   -1    0    0    0  501 -0.00000000000E+00  0.00000000000E+00  0.39574366660E+03  0.39574366660E+03  0.00000000000E+00 0.  1.
          3   -1    0    0  501    0  0.00000000000E+00 -0.00000000000E+00 -0.16173986552E+03  0.16173986552E+03  0.00000000000E+00 0. -1.
         25    2    1    2    0    0 -0.11160266646E+03 -0.17517662694E+03  0.18224813753E+02  0.24315140460E+03  0.12509378855E+03 0.  0.
         23    2    1    2    0    0  0.11160266646E+03  0.17517662694E+03  0.21577898732E+03  0.31433212752E+03  0.95404974909E+02 0.  0.
          5    1    3    3  502    0 -0.84774551062E+02 -0.15245101682E+03 -0.36219905626E+02  0.17820603525E+03  0.41800000000E+01 0.  1.
         -5    1    3    3    0  502 -0.26828115395E+02 -0.22725610125E+02  0.54444719379E+02  0.64945369346E+02  0.41800000000E+01 0.  1.
        -11    1    4    4    0    0  0.21450176446E+02  0.70617698605E+02  0.13638348152E+03  0.15507231686E+03  0.00000000000E+00 0. -1.
         11    1    4    4    0    0  0.90152490011E+02  0.10455892834E+03  0.79395505800E+02  0.15925981066E+03  0.00000000000E+00 0.  1.
</event>
<event>
 8    1  0.7114239E-009  0.1181965E+03  0.7561462E-02  0.1246102E+00
         -1   -1    0    0    0  501 -0.00000000000E+00  0.00000000000E+00  0.30742412117E+03  0.30742412117E+03  0.00000000000E+00 0. -1.
          1   -1    0    0  501    0  0.00000000000E+00 -0.00000000000E+00 -0.57265533503E+02  0.57265533503E+02  0.00000000000E+00 0.  1.
         25    2    1    2    0    0  0.28990035043E+02  0.64509485453E+02  0.10155362803E+03  0.17597209555E+03  0.12510452909E+03 0.  0.
         23    2    1    2    0    0 -0.28990035043E+02 -0.64509485453E+02  0.14860495963E+03  0.18871755912E+03  0.92352516201E+02 0.  0.
          5    1    3    3  502    0  0.32499396002E+02 -0.32009447288E+02  0.43708290426E+02  0.63314315192E+02  0.41800000000E+01 0.  1.
         -5    1    3    3    0  502 -0.35093609587E+01  0.96518932741E+02  0.57845337605E+02  0.11265778036E+03  0.41800000000E+01 0.  1.
        -11    1    4    4    0    0  0.14766234478E+01 -0.63409174042E+02  0.37890326632E+02  0.73882207748E+02  0.00000000000E+00 0.  1.
         11    1    4    4    0    0 -0.30466658491E+02 -0.11003114110E+01  0.11071463300E+03  0.11483535137E+03  0.00000000000E+00 0. -1.
</event>
<event>
 8    1  0.7114239E-009  0.1336928E+03  0.7561462E-02  0.1222077E+00
         -3   -1    0    0    0  501 -0.00000000000E+00  0.00000000000E+00  0.33635409125E+03  0.33635409125E+03  0.00000000000E+00 0.  1.
          3   -1    0    0  501    0  0.00000000000E+00 -0.00000000000E+00 -0.75285042260E+02  0.75285042260E+02  0.00000000000E+00 0. -1.
         25    2    1    2    0    0  0.85444211057E+02  0.65673843978E+02  0.81717014135E+02  0.18423111738E+03  0.12509863000E+03 0.  0.
         23    2    1    2    0    0 -0.85444211057E+02 -0.65673843978E+02  0.17935203486E+03  0.22740801613E+03  0.89070120727E+02 0.  0.
          5    1    3    3  502    0  0.10675925072E+03  0.75766446433E+02  0.41453950293E+02  0.13738265689E+03  0.41800000000E+01 0.  1.
         -5    1    3    3    0  502 -0.21315039666E+02 -0.10092602455E+02  0.40263063842E+02  0.46848460489E+02  0.41800000000E+01 0.  1.
        -11    1    4    4    0    0 -0.74210397610E+01 -0.21610893429E+02 -0.41254697225E+01  0.23219001838E+02  0.00000000000E+00 0. -1.
         11    1    4    4    0    0 -0.78023171296E+02 -0.44062950549E+02  0.18347750458E+03  0.20418901429E+03  0.00000000000E+00 0.  1.
</event>
<event>
 8    1  0.7114239E-009  0.1761718E+03  0.7561462E-02  0.1171560E+00
         -4   -1    0    0    0  501 -0.00000000000E+00  0.00000000000E+00  0.73047209925E+03  0.73047209925E+03  0.00000000000E+00 0.  1.
          4   -1    0    0  501    0  0.00000000000E+00 -0.00000000000E+00 -0.56882844763E+02  0.56882844763E+02  0.00000000000E+00 0. -1.
         25    2    1    2    0    0  0.74472321822E+02  0.15256851395E+03  0.29850048251E+03  0.36547487500E+03  0.12508424373E+03 0.  0.
         23    2    1    2    0    0 -0.74472321822E+02 -0.15256851395E+03  0.37508877198E+03  0.42188006901E+03  0.92021343169E+02 0.  0.
          5    1    3    3  502    0  0.40007036587E+02  0.25732577952E+02  0.18720101684E+03  0.19319529407E+03  0.41800000000E+01 0.  1.
         -5    1    3    3    0  502  0.34465285234E+02  0.12683593600E+03  0.11129946567E+03  0.17227958093E+03  0.41800000000E+01 0.  1.
        -11    1    4    4    0    0 -0.26140649990E+02 -0.91778349996E+02  0.29613972555E+03  0.31113555914E+03  0.00000000000E+00 0.  1.
         11    1    4    4    0    0 -0.48331671831E+02 -0.60790163958E+02  0.78949046429E+02  0.11074450988E+03  0.00000000000E+00 0. -1.
</event>
<event>
 8    1  0.7114239E-009  0.1276342E+03  0.7561462E-02  0.1231009E+00
         -1   -1    0    0    0  501 -0.00000000000E+00  0.00000000000E+00  0.55919858746E+02  0.55919858746E+02  0.00000000000E+00 0.  1.
          1   -1    0    0  501    0  0.00000000000E+00 -0.00000000000E+00 -0.35971313760E+03  0.35971313760E+03  0.00000000000E+00 0. -1.
         25    2    1    2    0    0 -0.32294391955E+02 -0.80355099956E+02 -0.19214307188E+03  0.24508427931E+03  0.12508986392E+03 0.  0.
         23    2    1    2    0    0  0.32294391955E+02  0.80355099956E+02 -0.11165020697E+03  0.17054871703E+03  0.95505111501E+02 0.  0.
          5    1    3    3  502    0  0.44828221201E+02 -0.21625950445E+02 -0.37240970648E+02  0.62302595801E+02  0.41800000000E+01 0.  1.
         -5    1    3    3    0  502 -0.77122613156E+02 -0.58729149510E+02 -0.15490210123E+03  0.18278168351E+03  0.41800000000E+01 0.  1.
        -11    1    4    4    0    0  0.51053851369E+02  0.70666234729E+02 -0.11958848326E+03  0.14799195181E+03  0.00000000000E+00 0. -1.
         11    1    4    4    0    0 -0.18759459414E+02  0.96888652264E+01  0.79382762898E+01  0.22556765223E+02  0.00000000000E+00 0.  1.
</event>
<event>
 8    1  0.7114239E-009  0.1110395E+03  0.7561462E-02  0.1258657E+00
          1   -1    0    0  501    0  0.00000000000E+00  0.00000000000E+00  0.21374994478E+02  0.21374994478E+02  0.00000000000E+00 0. -1.
         -1   -1    0    0    0  501 -0.00000000000E+00 -0.00000000000E+00 -0.11482874253E+04  0.11482874253E+04  0.00000000000E+00 0.  1.
         25    2    1    2    0    0  0.13576081879E+02 -0.25272132110E+02 -0.10098611587E+04  0.10179826131E+04  0.12508417124E+03 0.  0.
         23    2    1    2    0    0 -0.13576081879E+02  0.25272132110E+02 -0.11705127204E+03  0.15167980668E+03  0.92101969615E+02 0.  0.
          5    1    3    3  502    0  0.44989671115E+02  0.35329500505E+02 -0.36106921135E+03  0.36559635105E+03  0.41800000000E+01 0.  1.
         -5    1    3    3    0  502 -0.31413589235E+02 -0.60601632615E+02 -0.64879194739E+03  0.65238626201E+03  0.41800000000E+01 0.  1.
        -11    1    4    4    0    0 -0.31205174870E+02  0.54152336529E+02 -0.79662630740E+02  0.10125400351E+03  0.00000000000E+00 0. -1.
         11    1    4    4    0    0  0.17629092991E+02 -0.28880204418E+02 -0.37388641301E+02  0.50425803169E+02  0.00000000000E+00 0.  1.
</event>
<event>
 8    1  0.7114239E-009  0.1406903E+03  0.7561462E-02  0.1212403E+00
          4   -1    0    0  501    0  0.00000000000E+00  0.00000000000E+00  0.30216583055E+03  0.30216583055E+03  0.00000000000E+00 0. -1.
         -4   -1    0    0    0  501 -0.00000000000E+00 -0.00000000000E+00 -0.77106494287E+02  0.77106494287E+02  0.00000000000E+00 0.  1.
         25    2    1    2    0    0  0.90407279542E+02  0.54747103444E+02  0.10604127160E+03  0.19509701266E+03  0.12508945415E+03 0.  0.
         23    2    1    2    0    0 -0.90407279542E+02 -0.54747103444E+02  0.11901806467E+03  0.18417531218E+03  0.92652708369E+02 0.  0.
          5    1    3    3  502    0  0.56494976536E+02 -0.34765972325E+02  0.56490278012E+02  0.87229462428E+02  0.41800000000E+01 0.  1.
         -5    1    3    3    0  502  0.33912303005E+02  0.89513075768E+02  0.49550993584E+02  0.10786755024E+03  0.41800000000E+01 0.  1.
        -11    1    4    4    0    0 -0.84428761199E+02 -0.65460097179E+02  0.57259723980E+02  0.12121021422E+03  0.00000000000E+00 0.  1.
         11    1    4    4    0    0 -0.59785183427E+01  0.10712993736E+02  0.61758340688E+02  0.62965097959E+02  0.00000000000E+00 0. -1.
</event>
<event>
 8    1  0.7114239E-009  0.6366614E+02  0.7561462E-02  0.1383060E+00
         -1   -1    0    0    0  501 -0.00000000000E+00  0.00000000000E+00  0.12733133416E+03  0.12733133416E+03  0.00000000000E+00 0.  1.
          1   -1    0    0  501    0  0.00000000000E+00 -0.00000000000E+00 -0.10512923056E+03  0.10512923056E+03  0.00000000000E+00 0. -1.
         25    2    1    2    0    0  0.76029828744E+01 -0.60150108315E+01  0.50576769814E+02  0.13527714687E+03  0.12509161090E+03 0.  0.
         23    2    1    2    0    0 -0.76029828744E+01  0.60150108315E+01 -0.28374666217E+02  0.97183417854E+02  0.92441924033E+02 0.  0.
          5    1    3    3  502    0  0.12955678091E+02 -0.17109829395E+02  0.90595820808E+02  0.93196947400E+02  0.41800000000E+01 0. -1.
         -5    1    3    3    0  502 -0.53526952166E+01  0.11094818563E+02 -0.40019050994E+02  0.42080199471E+02  0.41800000000E+01 0. -1.
        -11    1    4    4    0    0  0.42325778048E+02  0.21274587579E+01 -0.80534256787E+01  0.43137631289E+02  0.00000000000E+00 0.  1.
         11    1    4    4    0    0 -0.49928760922E+02  0.38875520736E+01 -0.20321240539E+02  0.54045786564E+02  0.00000000000E+00 0. -1.
</event>
<event>
 8    1  0.7114239E-009  0.9230538E+02  0.7561462E-02  0.1297363E+00
          1   -1    0    0  501    0  0.00000000000E+00  0.00000000000E+00  0.97930864033E+02  0.97930864033E+02  0.00000000000E+00 0. -1.
         -1   -1    0    0    0  501 -0.00000000000E+00 -0.00000000000E+00 -0.17923695196E+03  0.17923695196E+03  0.00000000000E+00 0.  1.
         25    2    1    2    0    0  0.37757346174E+02  0.58239948566E+02 -0.21423466734E+02  0.14464929924E+03  0.12508775338E+03 0.  0.
         23    2    1    2    0    0 -0.37757346174E+02 -0.58239948566E+02 -0.59882621196E+02  0.13251851676E+03  0.95695977776E+02 0.  0.
          5    1    3    3  502    0  0.14285562378E+02  0.21365442218E+02 -0.72651885367E+02  0.77177252225E+02  0.41800000000E+01 0. -1.
         -5    1    3    3    0  502  0.23471783796E+02  0.36874506348E+02  0.51228418633E+02  0.67472047017E+02  0.41800000000E+01 0. -1.
        -11    1    4    4    0    0 -0.31276620832E+02  0.19364947341E+02 -0.34970304697E+02  0.50755791855E+02  0.00000000000E+00 0.  1.
         11    1    4    4    0    0 -0.64807253419E+01 -0.77604895908E+02 -0.24912316499E+02  0.81762724900E+02  0.00000000000E+00 0. -1.
</event>
<event>
 8    1  0.7114239E-009  0.8587096E+02  0.7561462E-02  0.1313170E+00
         -1   -1    0    0    0  501 -0.00000000000E+00  0.00000000000E+00  0.37470709350E+03  0.37470709350E+03  0.00000000000E+00 0.  1.
          1   -1    0    0  501    0  0.00000000000E+00 -0.00000000000E+00 -0.39724690046E+02  0.39724690046E+02  0.00000000000E+00 0. -1.
         25    2    1    2    0    0  0.36074518789E+02 -0.23159653744E+02  0.25756125141E+03  0.28952531095E+03  0.12509742998E+03 0.  0.
         23    2    1    2    0    0 -0.36074518789E+02  0.23159653744E+02  0.77421152047E+02  0.12490647259E+03  0.88146761962E+02 0.  0.
          5    1    3    3  502    0 -0.14039727685E+02  0.25047239163E+02  0.75391540789E+01  0.29979816333E+02  0.41800000000E+01 0.  1.
         -5    1    3    3    0  502  0.50114246474E+02 -0.48206892907E+02  0.25002209733E+03  0.25954549461E+03  0.41800000000E+01 0.  1.
        -11    1    4    4    0    0  0.10291212632E+02  0.24609865151E+02 -0.78741118153E+01  0.27812877540E+02  0.00000000000E+00 0. -1.
         11    1    4    4    0    0 -0.46365731421E+02 -0.14502114076E+01  0.85295263862E+02  0.97093595054E+02  0.00000000000E+00 0.  1.
</event>
<event>
 8    1  0.7114239E-009  0.9221590E+02  0.7561462E-02  0.1297573E+00
          1   -1    0    0  501    0  0.00000000000E+00  0.00000000000E+00  0.97679749672E+03  0.97679749672E+03  0.00000000000E+00 0. -1.
         -1   -1    0    0    0  501 -0.00000000000E+00 -0.00000000000E+00 -0.12372748347E+02  0.12372748347E+02  0.00000000000E+00 0.  1.
         25    2    1    2    0    0  0.18611259816E+02  0.68117563703E+01  0.51544516193E+03  0.53077660558E+03  0.12508921240E+03 0.  0.
         23    2    1    2    0    0 -0.18611259816E+02 -0.68117563703E+01  0.44897958644E+03  0.45839363948E+03  0.90273366292E+02 0.  0.
          5    1    3    3  502    0  0.35580046279E+02 -0.32932500416E+02  0.44754185111E+03  0.45017959769E+03  0.41800000000E+01 0.  1.
         -5    1    3    3    0  502 -0.16968786463E+02  0.39744256786E+02  0.67903310821E+02  0.80597007897E+02  0.41800000000E+01 0.  1.
        -11    1    4    4    0    0 -0.25724182610E+02  0.38600835541E+02  0.23442684813E+03  0.23897218499E+03  0.00000000000E+00 0. -1.
         11    1    4    4    0    0  0.71129227940E+01 -0.45412591912E+02  0.21455273831E+03  0.21942145449E+03  0.00000000000E+00 0.  1.
</event>
<event>
 8    1  0.7114239E-009  0.5538050E+02  0.7561462E-02  0.1418308E+00
         -1   -1    0    0    0  501 -0.00000000000E+00  0.00000000000E+00  0.56973137234E+02  0.56973137234E+02  0.00000000000E+00 0.  1.
          1   -1    0    0  501    0  0.00000000000E+00 -0.00000000000E+00 -0.23338176042E+03  0.23338176042E+03  0.00000000000E+00 0. -1.
         25    2    1    2    0    0 -0.20988207868E+01 -0.74129650379E+01 -0.54144526075E+02  0.13652264932E+03  0.12508975568E+03 0.  0.
         23    2    1    2    0    0  0.20988207868E+01  0.74129650379E+01 -0.12226409711E+03  0.15383224833E+03  0.93040282052E+02 0.  0.
          5    1    3    3  502    0  0.50860367643E+01  0.72411298765E+00  0.40564676281E+02  0.41101794016E+02  0.41800000000E+01 0.  1.
         -5    1    3    3    0  502 -0.71848575511E+01 -0.81370780256E+01 -0.94709202356E+02  0.95420855308E+02  0.41800000000E+01 0.  1.
        -11    1    4    4    0    0  0.11561831615E+02 -0.41297121050E+02 -0.67107796652E+02  0.79640344856E+02  0.00000000000E+00 0. -1.
         11    1    4    4    0    0 -0.94630108284E+01  0.48710086088E+02 -0.55156300456E+02  0.74191903470E+02  0.00000000000E+00 0.  1.
</event>
<event>
 8    1  0.7114239E-009  0.1009435E+03  0.7561462E-02  0.1278324E+00
          2   -1    0    0  501    0  0.00000000000E+00  0.00000000000E+00  0.20404584256E+04  0.20404584256E+04  0.00000000000E+00 0. -1.
         -2   -1    0    0    0  501 -0.00000000000E+00 -0.00000000000E+00 -0.11834057482E+02  0.11834057482E+02  0.00000000000E+00 0.  1.
         25    2    1    2    0    0  0.15279682053E+02 -0.33327078917E+01  0.18050983691E+04  0.18094948559E+04  0.12508771237E+03 0.  0.
         23    2    1    2    0    0 -0.15279682053E+02  0.33327078917E+01  0.22352599899E+03  0.24279762715E+03  0.93499945988E+02 0.  0.
          5    1    3    3  502    0 -0.34775617577E+02 -0.39569485860E+02  0.12163971597E+04  0.12175445003E+04  0.41800000000E+01 0.  1.
         -5    1    3    3    0  502  0.50055299630E+02  0.36236777968E+02  0.58870120943E+03  0.59195035559E+03  0.41800000000E+01 0.  1.
        -11    1    4    4    0    0  0.24121482122E+02 -0.27860615191E+02  0.49821196624E+02  0.61969439336E+02  0.00000000000E+00 0.  1.
         11    1    4    4    0    0 -0.39401164175E+02  0.31193323082E+02  0.17370480237E+03  0.18082818781E+03  0.00000000000E+00 0. -1.
</event>
<event>
 8    1  0.7114239E-009  0.1069752E+03  0.7561462E-02  0.1266276E+00
          1   -1    0    0  501    0  0.00000000000E+00  0.00000000000E+00  0.46806437953E+03  0.46806437953E+03  0.00000000000E+00 0. -1.
         -1   -1    0    0    0  501 -0.00000000000E+00 -0.00000000000E+00 -0.28429400112E+02  0.28429400112E+02  0.00000000000E+00 0.  1.
         25    2    1    2    0    0  0.17725434124E+02  0.21248728451E+02  0.32009772916E+03  0.34478229635E+03  0.12508627498E+03 0.  0.
         23    2    1    2    0    0 -0.17725434124E+02 -0.21248728451E+02  0.11953725026E+03  0.15171148329E+03  0.89227352796E+02 0.  0.
          5    1    3    3  502    0  0.42908861174E+02 -0.40720618996E+02  0.12190526789E+03  0.13556439768E+03  0.41800000000E+01 0. -1.
         -5    1    3    3    0  502 -0.25183427050E+02  0.61969347447E+02  0.19819246127E+03  0.20921789867E+03  0.41800000000E+01 0. -1.
        -11    1    4    4    0    0 -0.45315084694E+02 -0.34563276235E+02  0.10081477938E+03  0.11580888008E+03  0.00000000000E+00 0. -1.
         11    1    4    4    0    0  0.27589650570E+02  0.13314547785E+02  0.18722470884E+02  0.35902603211E+02  0.00000000000E+00 0.  1.
</event>
<event>
 8    1  0.7114239E-009  0.1601099E+03  0.7561462E-02  0.1188573E+00
         -1   -1    0    0    0  501 -0.00000000000E+00  0.00000000000E+00  0.32921509710E+02  0.32921509710E+02  0.00000000000E+00 0.  1.
          1   -1    0    0  501    0  0.00000000000E+00 -0.00000000000E+00 -0.99221312941E+03  0.99221312941E+03  0.00000000000E+00 0. -1.
         25    2    1    2    0    0  0.25167668818E+02  0.14210650441E+03 -0.48473434471E+03  0.52100141060E+03  0.12508962690E+03 0.  0.
         23    2    1    2    0    0 -0.25167668818E+02 -0.14210650441E+03 -0.47455727498E+03  0.50413322851E+03  0.90100137081E+02 0.  0.
          5    1    3    3  502    0  0.19323271141E+02  0.21247556199E+02 -0.94255124565E+01  0.30514916632E+02  0.41800000000E+01 0. -1.
         -5    1    3    3    0  502  0.58443976771E+01  0.12085894821E+03 -0.47530883225E+03  0.49048649397E+03  0.41800000000E+01 0. -1.
        -11    1    4    4    0    0  0.33847099604E+02 -0.42284038013E+02 -0.15359059018E+03  0.16286078538E+03  0.00000000000E+00 0. -1.
         11    1    4    4    0    0 -0.59014768421E+02 -0.99822466398E+02 -0.32096668480E+03  0.34127244313E+03  0.00000000000E+00 0.  1.
</event>
<event>
 8    1  0.7114239E-009  0.1403797E+03  0.7561462E-02  0.1212819E+00
         -1   -1    0    0    0  501 -0.00000000000E+00  0.00000000000E+00  0.81945327602E+02  0.81945327602E+02  0.00000000000E+00 0.  1.
          1   -1    0    0  501    0  0.00000000000E+00 -0.00000000000E+00 -0.24739592539E+03  0.24739592539E+03  0.00000000000E+00 0. -1.
         25    2    1    2    0    0  0.86071836266E+01 -0.89788857109E+02 -0.70473964271E+02  0.16955350802E+03  0.12508273251E+03 0.  0.
         23    2    1    2    0    0 -0.86071836266E+01  0.89788857109E+02 -0.94976633521E+02  0.15978774497E+03  0.91517430351E+02 0.  0.
          5    1    3    3  502    0  0.48039551777E+01 -0.12154767171E+03 -0.59508194856E+02  0.13548288504E+03  0.41800000000E+01 0. -1.
         -5    1    3    3    0  502  0.38032284488E+01  0.31758814601E+02 -0.10965769415E+02  0.34070622982E+02  0.41800000000E+01 0. -1.
        -11    1    4    4    0    0  0.96278585007E+01  0.10351616566E+03 -0.87148397765E+02  0.13565815657E+03  0.00000000000E+00 0.  1.
         11    1    4    4    0    0 -0.18235042127E+02 -0.13727308548E+02 -0.78282357555E+01  0.24129588401E+02  0.00000000000E+00 0. -1.
</event>
<event>
 8    1  0.7114239E-009  0.1589291E+03  0.7561462E-02  0.1189911E+00
          2   -1    0    0  501    0  0.00000000000E+00  0.00000000000E+00  0.12919302518E+04  0.12919302518E+04  0.00000000000E+00 0.  1.
         -2   -1    0    0    0  501 -0.00000000000E+00 -0.00000000000E+00 -0.48492278858E+02  0.48492278858E+02  0.00000000000E+00 0. -1.
         25    2    1    2    0    0 -0.13761713868E+02 -0.12202588697E+03  0.11447494080E+04  0.11580947304E+04  0.12510993399E+03 0.  0.
         23    2    1    2    0    0  0.13761713868E+02  0.12202588697E+03  0.98688564904E+02  0.18232780023E+03  0.91783942135E+02 0.  0.
          5    1    3    3  502    0 -0.53288105996E+02 -0.12351006692E+03  0.93090867395E+03  0.94058640778E+03  0.41800000000E+01 0.  1.
         -5    1    3    3    0  502  0.39526392128E+02  0.14841799446E+01  0.21384073405E+03  0.21750832261E+03  0.41800000000E+01 0.  1.
        -11    1    4    4    0    0 -0.28905256528E+02  0.72981605845E+02  0.21451878267E+02  0.81375744101E+02  0.00000000000E+00 0. -1.
         11    1    4    4    0    0  0.42666970397E+02  0.49044281127E+02  0.77236686637E+02  0.10095205613E+03  0.00000000000E+00 0.  1.
</event>
<event>
 8    1  0.7114239E-009  0.1254183E+03  0.7561462E-02  0.1234417E+00
         -1   -1    0    0    0  501 -0.00000000000E+00  0.00000000000E+00  0.11834711225E+03  0.11834711225E+03  0.00000000000E+00 0.  1.
          1   -1    0    0  501    0  0.00000000000E+00 -0.00000000000E+00 -0.14697505092E+03  0.14697505092E+03  0.00000000000E+00 0. -1.
         25    2    1    2    0    0  0.60349989785E+02 -0.17605904408E+02  0.24635789170E+02  0.14213981121E+03  0.12507883388E+03 0.  0.
         23    2    1    2    0    0 -0.60349989785E+02  0.17605904408E+02 -0.53263727835E+02  0.12318235196E+03  0.91568433395E+02 0.  0.
          5    1    3    3  502    0  0.77662449340E+02 -0.57216278690E+02  0.17530502329E+02  0.98132306080E+02  0.41800000000E+01 0. -1.
         -5    1    3    3    0  502 -0.17312459555E+02  0.39610374282E+02  0.71052868408E+01  0.44007505129E+02  0.41800000000E+01 0. -1.
        -11    1    4    4    0    0 -0.15472958348E+02  0.52037222410E+02 -0.29950242118E+02  0.62002435106E+02  0.00000000000E+00 0.  1.
         11    1    4    4    0    0 -0.44877031438E+02 -0.34431318002E+02 -0.23313485717E+02  0.61179916854E+02  0.00000000000E+00 0. -1.
</event>
<event>
 8    1  0.7114239E-009  0.2327503E+03  0.7561462E-02  0.1124719E+00
         -3   -1    0    0    0  501 -0.00000000000E+00  0.00000000000E+00  0.79572689551E+03  0.79572689551E+03  0.00000000000E+00 0.  1.
          3   -1    0    0  501    0  0.00000000000E+00 -0.00000000000E+00 -0.11333690778E+03  0.11333690778E+03  0.00000000000E+00 0. -1.
         25    2    1    2    0    0 -0.18860664274E+03 -0.10796720903E+03  0.81677881810E+02  0.26372214846E+03  0.12509480923E+03 0.  0.
         23    2    1    2    0    0  0.18860664274E+03  0.10796720903E+03  0.60071210592E+03  0.64534165484E+03  0.91550168538E+02 0.  0.
          5    1    3    3  502    0 -0.12877966132E+03 -0.12947166116E+03  0.38262283365E+02  0.18662418638E+03  0.41800000000E+01 0. -1.
         -5    1    3    3    0  502 -0.59826981423E+02  0.21504452135E+02  0.43415598445E+02  0.77097962076E+02  0.41800000000E+01 0. -1.
        -11    1    4    4    0    0  0.14032320415E+03  0.93884413114E+02  0.33757567018E+03  0.37744167463E+03  0.00000000000E+00 0. -1.
         11    1    4    4    0    0  0.48283438595E+02  0.14082795915E+02  0.26313643574E+03  0.26789998021E+03  0.00000000000E+00 0.  1.
</event>
<event>
 8    1  0.7114239E-009  0.1117584E+03  0.7561462E-02  0.1257348E+00
         -1   -1    0    0    0  501 -0.00000000000E+00  0.00000000000E+00  0.12810130178E+03  0.12810130178E+03  0.00000000000E+00 0.  1.
          1   -1    0    0  501    0  0.00000000000E+00 -0.00000000000E+00 -0.12149851919E+03  0.12149851919E+03  0.00000000000E+00 0. -1.
         25    2    1    2    0    0  0.44180066805E+02 -0.13086971362E+02 -0.35691436516E+02  0.13798915973E+03  0.12507590671E+03 0.  0.
         23    2    1    2    0    0 -0.44180066805E+02  0.13086971362E+02  0.42294219109E+02  0.11161066125E+03  0.92439123815E+02 0.  0.
          5    1    3    3  502    0 -0.36787850571E+02  0.44301261526E+01  0.15649075078E+02  0.40439311544E+02  0.41800000000E+01 0. -1.
         -5    1    3    3    0  502  0.80967917376E+02 -0.17517097515E+02 -0.51340511594E+02  0.97549848182E+02  0.41800000000E+01 0. -1.
        -11    1    4    4    0    0 -0.43149496101E+02 -0.34769089330E+02  0.23240485335E+02  0.60090671033E+02  0.00000000000E+00 0. -1.
         11    1    4    4    0    0 -0.10305707038E+01  0.47856060692E+02  0.19053733774E+02  0.51519990214E+02  0.00000000000E+00 0.  1.
</event>
<event>
 8    1  0.7114239E-009  0.1165839E+03  0.7561462E-02  0.1248841E+00
          2   -1    0    0  501    0  0.00000000000E+00  0.00000000000E+00  0.12168358126E+03  0.12168358126E+03  0.00000000000E+00 0.  1.
         -2   -1    0    0    0  501 -0.00000000000E+00 -0.00000000000E+00 -0.24980279482E+03  0.24980279482E+03  0.00000000000E+00 0. -1.
         25    2    1    2    0    0  0.46880942080E+02 -0.69351253102E+02 -0.18094890863E+03  0.23536701455E+03  0.12509078689E+03 0.  0.
         23    2    1    2    0    0 -0.46880942080E+02  0.69351253102E+02  0.52829695081E+02  0.13611936153E+03  0.93434923157E+02 0.  0.
          5    1    3    3  502    0  0.63983284521E+02 -0.89402242015E+02 -0.17698135416E+03  0.20839024376E+03  0.41800000000E+01 0.  1.
         -5    1    3    3    0  502 -0.17102342441E+02  0.20050988913E+02 -0.39675544724E+01  0.26976770783E+02  0.41800000000E+01 0.  1.
        -11    1    4    4    0    0  0.46897571776E+01  0.33095370166E+02 -0.20660430548E+02  0.39295683468E+02  0.00000000000E+00 0. -1.
         11    1    4    4    0    0 -0.51570699258E+02  0.36255882936E+02  0.73490125629E+02  0.96823678067E+02  0.00000000000E+00 0.  1.
</event>
<event>
 8    1  0.7114239E-009  0.1164783E+03  0.7561462E-02  0.1249022E+00
         -1   -1    0    0    0  501 -0.00000000000E+00  0.00000000000E+00  0.25971730403E+02  0.25971730403E+02  0.00000000000E+00 0.  1.
          1   -1    0    0  501    0  0.00000000000E+00 -0.00000000000E+00 -0.69438303631E+03  0.69438303631E+03  0.00000000000E+00 0. -1.
         25    2    1    2    0    0 -0.60015466645E+02  0.48335786367E+02 -0.39173053514E+03  0.41837965189E+03  0.12510202424E+03 0.  0.
         23    2    1    2    0    0  0.60015466645E+02 -0.48335786367E+02 -0.27668077077E+03  0.30197511483E+03  0.93265838241E+02 0.  0.
          5    1    3    3  502    0  0.34695861680E+02  0.28265361077E+02 -0.18000301543E+03  0.18552975885E+03  0.41800000000E+01 0.  1.
         -5    1    3    3    0  502 -0.94711328325E+02  0.20070425290E+02 -0.21172751971E+03  0.23284989304E+03  0.41800000000E+01 0.  1.
        -11    1    4    4    0    0  0.39580548573E+01 -0.32657654256E+02 -0.19398159098E+02  0.38190013827E+02  0.00000000000E+00 0.  1.
         11    1    4    4    0    0  0.56057411788E+02 -0.15678132112E+02 -0.25728261167E+03  0.26378510100E+03  0.00000000000E+00 0. -1.
</event>
<event>
 8    1  0.7114239E-009  0.1077811E+03  0.7561462E-02  0.1264735E+00
         -1   -1    0    0    0  501 -0.00000000000E+00  0.00000000000E+00  0.10010071771E+03  0.10010071771E+03  0.00000000000E+00 0.  1.
          1   -1    0    0  501    0  0.00000000000E+00 -0.00000000000E+00 -0.14963861446E+03  0.14963861446E+03  0.00000000000E+00 0. -1.
         25    2    1    2    0    0 -0.21163775022E+02  0.49444496604E+02 -0.11190110336E+02  0.13662127719E+03  0.12508993243E+03 0.  0.
         23    2    1    2    0    0  0.21163775022E+02 -0.49444496604E+02 -0.38347786420E+02  0.11311805498E+03  0.91828525101E+02 0.  0.
          5    1    3    3  502    0  0.32439019109E+02 -0.25611583803E+02  0.80424213792E+01  0.42313072771E+02  0.41800000000E+01 0.  1.
         -5    1    3    3    0  502 -0.53602794132E+02  0.75056080406E+02 -0.19232531715E+02  0.94308204420E+02  0.41800000000E+01 0.  1.
        -11    1    4    4    0    0  0.33422906022E+02 -0.28843042010E+01  0.18748939953E+02  0.38430880904E+02  0.00000000000E+00 0.  1.
         11    1    4    4    0    0 -0.12259131000E+02 -0.46560192403E+02 -0.57096726373E+02  0.74687174079E+02  0.00000000000E+00 0. -1.
</event>
<event>
 8    1  0.7114239E-009  0.8660813E+02  0.7561462E-02  0.1311280E+00
         -2   -1    0    0    0  501 -0.00000000000E+00  0.00000000000E+00  0.21343118494E+02  0.21343118494E+02  0.00000000000E+00 0. -1.
          2   -1    0    0  501    0  0.00000000000E+00 -0.00000000000E+00 -0.66491324244E+03  0.66491324244E+03  0.00000000000E+00 0.  1.
         25    2    1    2    0    0 -0.39687966668E+02 -0.22351563068E+02 -0.31688530152E+03  0.34371288917E+03  0.12509008270E+03 0.  0.
         23    2    1    2    0    0  0.39687966668E+02  0.22351563068E+02 -0.32668482243E+03  0.34254347177E+03  0.92403083157E+02 0.  0.
          5    1    3    3  502    0 -0.59544030801E+01  0.26821094972E+02 -0.25905070282E+03  0.26053707046E+03  0.41800000000E+01 0. -1.
         -5    1    3    3    0  502 -0.33733563588E+02 -0.49172658040E+02 -0.57834598698E+02  0.83175818708E+02  0.41800000000E+01 0. -1.
        -11    1    4    4    0    0 -0.19683145763E+02  0.17050061771E+02 -0.29112408538E+02  0.39059738407E+02  0.00000000000E+00 0. -1.
         11    1    4    4    0    0  0.59371112431E+02  0.53015012969E+01 -0.29757241389E+03  0.30348373336E+03  0.00000000000E+00 0.  1.
</event>
<event>
 8    1  0.7114239E-009  0.9827656E+02  0.7561462E-02  0.1283962E+00
          1   -1    0    0  501    0  0.00000000000E+00  0.00000000000E+00  0.37407558755E+03  0.37407558755E+03  0.00000000000E+00 0. -1.
         -1   -1    0    0    0  501 -0.00000000000E+00 -0.00000000000E+00 -0.38922022053E+02  0.38922022053E+02  0.00000000000E+00 0.  1.
         25    2    1    2    0    0 -0.12384341262E+02 -0.27295052210E+02  0.26466619102E+03  0.29426782132E+03  0.12508783400E+03 0.  0.
         23    2    1    2    0    0  0.12384341262E+02  0.27295052210E+02  0.70487374480E+02  0.11872978828E+03  0.90718801142E+02 0.  0.
          5    1    3    3  502    0 -0.59139774285E+02 -0.47417729866E+02  0.13459903683E+03  0.15453260861E+03  0.41800000000E+01 0. -1.
         -5    1    3    3    0  502  0.46755433023E+02  0.20122677656E+02  0.13006715419E+03  0.13973521271E+03  0.41800000000E+01 0. -1.
        -11    1    4    4    0    0  0.38004495676E+02  0.19885843267E+02  0.79703697901E+02  0.90512252834E+02  0.00000000000E+00 0. -1.
         11    1    4    4    0    0 -0.25620154414E+02  0.74092089427E+01 -0.92163234206E+01  0.28217535448E+02  0.00000000000E+00 0.  1.
</event>
<event>
 8    1  0.7114239E-009  0.1898917E+03  0.7561462E-02  0.1158559E+00
         -2   -1    0    0    0  501 -0.00000000000E+00  0.00000000000E+00  0.82744890013E+02  0.82744890013E+02  0.00000000000E+00 0.  1.
          2   -1    0    0  501    0  0.00000000000E+00 -0.00000000000E+00 -0.73021712442E+03  0.73021712442E+03  0.00000000000E+00 0. -1.
         25    2    1    2    0    0  0.18017140823E+03 -0.50288818036E+02 -0.14022125791E+03  0.26513932136E+03  0.12508459936E+03 0.  0.
         23    2    1    2    0    0 -0.18017140823E+03  0.50288818036E+02 -0.50725097650E+03  0.54782269308E+03  0.88405024312E+02 0.  0.
          5    1    3    3  502    0  0.10216615751E+03 -0.49517949571E+01 -0.14169546661E+03  0.17480709846E+03  0.41800000000E+01 0. -1.
         -5    1    3    3    0  502  0.78005250724E+02 -0.45337023078E+02  0.14742087073E+01  0.90332222896E+02  0.41800000000E+01 0. -1.
        -11    1    4    4    0    0 -0.70561242984E+02  0.21496202448E+02 -0.32455342418E+03  0.33283013818E+03  0.00000000000E+00 0. -1.
         11    1    4    4    0    0 -0.10961016525E+03  0.28792615587E+02 -0.18269755232E+03  0.21499255490E+03  0.00000000000E+00 0.  1.
</event>
<event>
 8    1  0.7114239E-009  0.3792887E+03  0.7561462E-02  0.1051197E+00
          2   -1    0    0  501    0  0.00000000000E+00  0.00000000000E+00  0.25353449888E+04  0.25353449888E+04  0.00000000000E+00 0.  1.
         -2   -1    0    0    0  501 -0.00000000000E+00 -0.00000000000E+00 -0.71902740279E+02  0.71902740279E+02  0.00000000000E+00 0. -1.
         25    2    1    2    0    0  0.36576482816E+03  0.35291969628E+02  0.66596772490E+03  0.77083622329E+03  0.12508413120E+03 0.  0.
         23    2    1    2    0    0 -0.36576482816E+03 -0.35291969628E+02  0.17974745236E+04  0.18364115058E+04  0.80393550145E+02 0.  0.
          5    1    3    3  502    0  0.32256381796E+03  0.66531218636E+02  0.61112583998E+03  0.69423777224E+03  0.41800000000E+01 0.  1.
         -5    1    3    3    0  502  0.43201010205E+02 -0.31239249008E+02  0.54841884922E+02  0.76598451050E+02  0.41800000000E+01 0.  1.
        -11    1    4    4    0    0 -0.77245838446E+02  0.24566525260E+02  0.42525354897E+03  0.43290993825E+03  0.00000000000E+00 0.  1.
         11    1    4    4    0    0 -0.28851898972E+03 -0.59858494888E+02  0.13722209746E+04  0.14035015675E+04  0.00000000000E+00 0. -1.
</event>
<event>
 8    1  0.7114239E-009  0.2410038E+03  0.7561462E-02  0.1119126E+00
         -2   -1    0    0    0  501 -0.00000000000E+00  0.00000000000E+00  0.56807192571E+02  0.56807192571E+02  0.00000000000E+00 0.  1.
          2   -1    0    0  501    0  0.00000000000E+00 -0.00000000000E+00 -0.15651378213E+04  0.15651378213E+04  0.00000000000E+00 0. -1.
         25    2    1    2    0    0  0.55052166506E+02 -0.21466562310E+03 -0.12225504765E+04  0.12487549338E+04  0.12508855444E+03 0.  0.
         23    2    1    2    0    0 -0.55052166506E+02  0.21466562310E+03 -0.28578015227E+03  0.37319008006E+03  0.92132891236E+02 0.  0.
          5    1    3    3  502    0 -0.26493594842E+00  0.98702821251E+01 -0.20370754469E+03  0.20398953116E+03  0.41800000000E+01 0. -1.
         -5    1    3    3    0  502  0.55317102454E+02 -0.22453590522E+03 -0.10188429318E+04  0.10447654027E+04  0.41800000000E+01 0. -1.
        -11    1    4    4    0    0 -0.70142391744E+02  0.88463431243E+02 -0.13351020185E+03  0.17484481057E+03  0.00000000000E+00 0. -1.
         11    1    4    4    0    0  0.15090225238E+02  0.12620219185E+03 -0.15226995042E+03  0.19834526949E+03  0.00000000000E+00 0.  1.
</event>
<event>
 8    1  0.7114239E-009  0.1929055E+03  0.7561462E-02  0.1155867E+00
          2   -1    0    0  501    0  0.00000000000E+00  0.00000000000E+00  0.75025597061E+03  0.75025597061E+03  0.00000000000E+00 0. -1.
         -2   -1    0    0    0  501 -0.00000000000E+00 -0.00000000000E+00 -0.51815060026E+02  0.51815060026E+02  0.00000000000E+00 0.  1.
         25    2    1    2    0    0  0.15989737555E+03 -0.42420471436E+02  0.38334235652E+03  0.43585033868E+03  0.12508992093E+03 0.  0.
         23    2    1    2    0    0 -0.15989737555E+03  0.42420471436E+02  0.31509855407E+03  0.36622069196E+03  0.86393456572E+02 0.  0.
          5    1    3    3  502    0  0.45567714872E+02 -0.68750873028E+02  0.21758202127E+03  0.23272839870E+03  0.41800000000E+01 0.  1.
         -5    1    3    3    0  502  0.11432966068E+03  0.26330401592E+02  0.16576033525E+03  0.20312193998E+03  0.41800000000E+01 0.  1.
        -11    1    4    4    0    0 -0.54470894330E+02  0.57642145328E+02  0.15145238936E+03  0.17096058461E+03  0.00000000000E+00 0. -1.
         11    1    4    4    0    0 -0.10542648122E+03 -0.15221673892E+02  0.16364616471E+03  0.19526010735E+03  0.00000000000E+00 0.  1.
</event>
<event>
 8    1  0.7114239E-009  0.1496226E+03  0.7561462E-02  0.1200937E+00
          4   -1    0    0  501    0  0.00000000000E+00  0.00000000000E+00  0.78426272233E+03  0.78426272233E+03  0.00000000000E+00 0. -1.
         -4   -1    0    0    0  501 -0.00000000000E+00 -0.00000000000E+00 -0.41459687034E+02  0.41459687034E+02  0.00000000000E+00 0.  1.
         25    2    1    2    0    0  0.56987510486E+02  0.13174065558E+03  0.38504140518E+03  0.42954352206E+03  0.12509027523E+03 0.  0.
         23    2    1    2    0    0 -0.56987510486E+02 -0.13174065558E+03  0.35776163011E+03  0.39617888730E+03  0.91439324563E+02 0.  0.
          5    1    3    3  502    0  0.16872392577E+02  0.10627462132E+03  0.35981600832E+03  0.37558488390E+03  0.41800000000E+01 0.  1.
         -5    1    3    3    0  502  0.40115117909E+02  0.25466034263E+02  0.25225396862E+02  0.53958638167E+02  0.41800000000E+01 0.  1.
        -11    1    4    4    0    0 -0.38579138461E+02 -0.77334169458E+02  0.10034024608E+03  0.13242767337E+03  0.00000000000E+00 0.  1.
         11    1    4    4    0    0 -0.18408372025E+02 -0.54406486124E+02  0.25742138404E+03  0.26375121394E+03  0.00000000000E+00 0. -1.
</event>
<event>
 8    1  0.7114239E-009  0.1247349E+03  0.7561462E-02  0.1235484E+00
         -2   -1    0    0    0  501 -0.00000000000E+00  0.00000000000E+00  0.61283842863E+02  0.61283842863E+02  0.00000000000E+00 0.  1.
          2   -1    0    0  501    0  0.00000000000E+00 -0.00000000000E+00 -0.33643774007E+03  0.33643774007E+03  0.00000000000E+00 0. -1.
         25    2    1    2    0    0  0.74632107778E+02  0.42643883369E+02 -0.96940797332E+02  0.18009319835E+03  0.12509032579E+03 0.  0.
         23    2    1    2    0    0 -0.74632107778E+02 -0.42643883369E+02 -0.17821309988E+03  0.21762838458E+03  0.90629755093E+02 0.  0.
          5    1    3    3  502    0  0.76431406678E+02  0.66796688871E+02 -0.25786912904E+02  0.10481409661E+03  0.41800000000E+01 0.  1.
         -5    1    3    3    0  502 -0.17992988996E+01 -0.24152805502E+02 -0.71153884428E+02  0.75279101744E+02  0.41800000000E+01 0.  1.
        -11    1    4    4    0    0 -0.61430684650E+02 -0.69873970302E+02 -0.11826125421E+03  0.15047200733E+03  0.00000000000E+00 0.  1.
         11    1    4    4    0    0 -0.13201423128E+02  0.27230086933E+02 -0.59951845666E+02  0.67156377253E+02  0.00000000000E+00 0. -1.
</event>
<event>
 8    1  0.7114239E-009  0.1153408E+03  0.7561462E-02  0.1250987E+00
          2   -1    0    0  501    0  0.00000000000E+00  0.00000000000E+00  0.42562966863E+02  0.42562966863E+02  0.00000000000E+00 0.  1.
         -2   -1    0    0    0  501 -0.00000000000E+00 -0.00000000000E+00 -0.34915425695E+03  0.34915425695E+03  0.00000000000E+00 0. -1.
         25    2    1    2    0    0 -0.38152979371E+02 -0.27985093982E+02 -0.22314184142E+03  0.26015135608E+03  0.12509049268E+03 0.  0.
         23    2    1    2    0    0  0.38152979371E+02  0.27985093982E+02 -0.83449448667E+02  0.13156586773E+03  0.90038612541E+02 0.  0.
          5    1    3    3  502    0 -0.85092907895E+00 -0.71467473711E+02 -0.88962273949E+02  0.11419318047E+03  0.41800000000E+01 0. -1.
         -5    1    3    3    0  502 -0.37302050292E+02  0.43482379729E+02 -0.13417956747E+03  0.14595817561E+03  0.41800000000E+01 0. -1.
        -11    1    4    4    0    0 -0.29766944169E+02  0.73843061567E+01 -0.27434954810E+02  0.41149431199E+02  0.00000000000E+00 0. -1.
         11    1    4    4    0    0  0.67919923540E+02  0.20600787825E+02 -0.56014493857E+02  0.90416436530E+02  0.00000000000E+00 0.  1.
</event>
<event>
 8    1  0.7114239E-009  0.1006765E+03  0.7561462E-02  0.1278880E+00
         -2   -1    0    0    0  501 -0.00000000000E+00  0.00000000000E+00  0.91148985331E+02  0.91148985331E+02  0.00000000000E+00 0.  1.
          2   -1    0    0  501    0  0.00000000000E+00 -0.00000000000E+00 -0.14762390347E+03  0.14762390347E+03  0.00000000000E+00 0. -1.
         25    2    1    2    0    0  0.37702293235E+02  0.20576421000E+02 -0.42192658939E+02  0.13882397068E+03  0.12508805839E+03 0.  0.
         23    2    1    2    0    0 -0.37702293235E+02 -0.20576421000E+02 -0.14282259203E+02  0.99948918119E+02  0.89112015401E+02 0.  0.
          5    1    3    3  502    0  0.62969956197E+02 -0.88058321010E+01  0.18804589488E+02  0.66436759766E+02  0.41800000000E+01 0.  1.
         -5    1    3    3    0  502 -0.25267662962E+02  0.29382253101E+02 -0.60997248426E+02  0.72387210918E+02  0.41800000000E+01 0.  1.
        -11    1    4    4    0    0 -0.65485044183E+02 -0.25451257242E+01 -0.12945312889E+02  0.66800821869E+02  0.00000000000E+00 0.  1.
         11    1    4    4    0    0  0.27782750948E+02 -0.18031295276E+02 -0.13369463140E+01  0.33148096250E+02  0.00000000000E+00 0. -1.
</event>
<event>
 8    1  0.7114239E-009  0.1286863E+03  0.7561462E-02  0.1229418E+00
          2   -1    0    0  501    0  0.00000000000E+00  0.00000000000E+00  0.19309719708E+03  0.19309719708E+03  0.00000000000E+00 0. -1.
         -2   -1    0    0    0  501 -0.00000000000E+00 -0.00000000000E+00 -0.93905900420E+02  0.93905900420E+02  0.00000000000E+00 0.  1.
         25    2    1    2    0    0 -0.60840127322E+02  0.41889654399E+02  0.22075659546E+02  0.14694347117E+03  0.12509510277E+03 0.  0.
         23    2    1    2    0    0  0.60840127322E+02 -0.41889654399E+02  0.77115637115E+02  0.14005962633E+03  0.90628986540E+02 0.  0.
          5    1    3    3  502    0 -0.87857570844E+02 -0.77731572505E+01  0.17928677263E+02  0.90101523831E+02  0.41800000000E+01 0.  1.
         -5    1    3    3    0  502  0.27017443522E+02  0.49662811649E+02  0.41469822830E+01  0.56841947340E+02  0.41800000000E+01 0.  1.
        -11    1    4    4    0    0 -0.16700047501E+02 -0.29443341399E+02  0.42244047436E+02  0.54132813368E+02  0.00000000000E+00 0. -1.
         11    1    4    4    0    0  0.77540174823E+02 -0.12446313000E+02  0.34871589678E+02  0.85926812960E+02  0.00000000000E+00 0.  1.
</event>
<event>
 8    1  0.7114239E-009  0.1113583E+03  0.7561462E-02  0.1258075E+00
         -3   -1    0    0    0  501 -0.00000000000E+00  0.00000000000E+00  0.21046152981E+02  0.21046152981E+02  0.00000000000E+00 0.  1.
          3   -1    0    0  501    0  0.00000000000E+00 -0.00000000000E+00 -0.66140957657E+03  0.66140957657E+03  0.00000000000E+00 0. -1.
         25    2    1    2    0    0  0.10030881727E+02 -0.45016455951E+02 -0.34702986896E+03  0.37175524514E+03  0.12508050386E+03 0.  0.
         23    2    1    2    0    0 -0.10030881727E+02  0.45016455951E+02 -0.29333355463E+03  0.31070048441E+03  0.91450078432E+02 0.  0.
          5    1    3    3  502    0  0.46650461800E+01  0.37638507699E+02 -0.47345537791E+02  0.60807008365E+02  0.41800000000E+01 0. -1.
         -5    1    3    3    0  502  0.53658355467E+01 -0.82654963650E+02 -0.29968433117E+03  0.31094823678E+03  0.41800000000E+01 0. -1.
        -11    1    4    4    0    0 -0.45533281480E+02  0.47798412687E+02 -0.17141152740E+03  0.18368418468E+03  0.00000000000E+00 0.  1.
         11    1    4    4    0    0  0.35502399753E+02 -0.27819567367E+01 -0.12192202723E+03  0.12701629972E+03  0.00000000000E+00 0. -1.
</event>
<event>
 8    1  0.7114239E-009  0.1067493E+03  0.7561462E-02  0.1266711E+00
         -1   -1    0    0    0  501 -0.00000000000E+00  0.00000000000E+00  0.67874403065E+02  0.67874403065E+02  0.00000000000E+00 0.  1.
          1   -1    0    0  501    0  0.00000000000E+00 -0.00000000000E+00 -0.20368973689E+03  0.20368973689E+03  0.00000000000E+00 0. -1.
         25    2    1    2    0    0  0.31709609660E+02  0.28914316086E+02 -0.92213068482E+02  0.16122232886E+03  0.12509137582E+03 0.  0.
         23    2    1    2    0    0 -0.31709609660E+02 -0.28914316086E+02 -0.43602265347E+02  0.11034181110E+03  0.91829302041E+02 0.  0.
          5    1    3    3  502    0  0.38988346260E+02  0.74977225485E+02 -0.67759951344E+02  0.10839999489E+03  0.41800000000E+01 0.  1.
         -5    1    3    3    0  502 -0.72787365997E+01 -0.46062909399E+02 -0.24453117139E+02  0.52822333975E+02  0.41800000000E+01 0.  1.
        -11    1    4    4    0    0  0.26780117889E+01  0.21155403592E+02 -0.44770417288E+02  0.49589445575E+02  0.00000000000E+00 0. -1.
         11    1    4    4    0    0 -0.34387621449E+02 -0.50069719678E+02  0.11681519415E+01  0.60752365522E+02  0.00000000000E+00 0.  1.
</event>
<event>
 8    1  0.7114239E-009  0.9299970E+02  0.7561462E-02  0.1295746E+00
         -2   -1    0    0    0  501 -0.00000000000E+00  0.00000000000E+00  0.67564459670E+03  0.67564459670E+03  0.00000000000E+00 0.  1.
          2   -1    0    0  501    0  0.00000000000E+00 -0.00000000000E+00 -0.19207108256E+02  0.19207108256E+02  0.00000000000E+00 0. -1.
         25    2    1    2    0    0  0.24327703310E+02 -0.98821403184E+01  0.46300377871E+03  0.48032200870E+03  0.12508892474E+03 0.  0.
         23    2    1    2    0    0 -0.24327703310E+02  0.98821403184E+01  0.19343370973E+03  0.21452969626E+03  0.88976944599E+02 0.  0.
          5    1    3    3  502    0  0.15090476021E+02 -0.65330366446E+02  0.31174827040E+03  0.31890474400E+03  0.41800000000E+01 0.  1.
         -5    1    3    3    0  502  0.92372272894E+01  0.55448226127E+02  0.15125550831E+03  0.16141726470E+03  0.41800000000E+01 0.  1.
        -11    1    4    4    0    0  0.17903284376E+02  0.93919905962E+01  0.42111203313E+01  0.20651164937E+02  0.00000000000E+00 0. -1.
         11    1    4    4    0    0 -0.42230987686E+02  0.49014972227E+00  0.18922258940E+03  0.19387853132E+03  0.00000000000E+00 0.  1.
</event>
<event>
 8    1  0.7114239E-009  0.1502949E+03  0.7561462E-02  0.1200111E+00
          2   -1    0    0  501    0  0.00000000000E+00  0.00000000000E+00  0.53201123372E+03  0.53201123372E+03  0.00000000000E+00 0. -1.
         -2   -1    0    0    0  501 -0.00000000000E+00 -0.00000000000E+00 -0.50185114363E+02  0.50185114363E+02  0.00000000000E+00 0.  1.
         25    2    1    2    0    0 -0.26776215816E+02 -0.10424833732E+03  0.33666104798E+03  0.37492972358E+03  0.12508778850E+03 0.  0.
         23    2    1    2    0    0  0.26776215816E+02  0.10424833732E+03  0.14516507138E+03  0.20726662450E+03  0.10149814834E+03 0.  0.
          5    1    3    3  502    0 -0.36112011583E+02 -0.12989247758E+03  0.25124496326E+03  0.28516247487E+03  0.41800000000E+01 0. -1.
         -5    1    3    3    0  502  0.93357957668E+01  0.25644140257E+02  0.85416084723E+02  0.89767248713E+02  0.41800000000E+01 0. -1.
        -11    1    4    4    0    0  0.13097180420E+02  0.11798600320E+03  0.90522318309E+02  0.14928671474E+03  0.00000000000E+00 0.  1.
         11    1    4    4    0    0  0.13679035395E+02 -0.13737665878E+02  0.54642753066E+02  0.57979909760E+02  0.00000000000E+00 0. -1.
</event>
<event>
 8    1  0.7114239E-009  0.3391789E+03  0.7561462E-02  0.1067146E+00
         -1   -1    0    0    0  501 -0.00000000000E+00  0.00000000000E+00  0.44022569740E+03  0.44022569740E+03  0.00000000000E+00 0.  1.
          1   -1    0    0  501    0  0.00000000000E+00 -0.00000000000E+00 -0.36525063291E+03  0.36525063291E+03  0.00000000000E+00 0. -1.
         25    2    1    2    0    0 -0.33483186422E+03 -0.42316146043E+02  0.22594414656E+03  0.42496993967E+03  0.12508260769E+03 0.  0.
         23    2    1    2    0    0  0.33483186422E+03  0.42316146043E+02 -0.15096908208E+03  0.38050639063E+03  0.89946740096E+02 0.  0.
          5    1    3    3  502    0 -0.17076140388E+03 -0.27769936099E+02  0.18871417882E+03  0.25604909704E+03  0.41800000000E+01 0. -1.
         -5    1    3    3    0  502 -0.16407046034E+03 -0.14546209944E+02  0.37229967748E+02  0.16892084264E+03  0.41800000000E+01 0. -1.
        -11    1    4    4    0    0  0.10106367855E+03  0.33964537849E+02 -0.92760072167E+01  0.10702103187E+03  0.00000000000E+00 0. -1.
         11    1    4    4    0    0  0.23376818568E+03  0.83516081941E+01 -0.14169307486E+03  0.27348535876E+03  0.00000000000E+00 0.  1.
</event>
<event>
 8    1  0.7114239E-009  0.3870413E+03  0.7561462E-02  0.1048362E+00
         -2   -1    0    0    0  501 -0.00000000000E+00  0.00000000000E+00  0.13015741260E+03  0.13015741260E+03  0.00000000000E+00 0.  1.
          2   -1    0    0  501    0  0.00000000000E+00 -0.00000000000E+00 -0.13697720361E+04  0.13697720361E+04  0.00000000000E+00 0. -1.
         25    2    1    2    0    0 -0.20870635878E+03  0.32333319403E+03 -0.38627302317E+03  0.55942514317E+03  0.12508774447E+03 0.  0.
         23    2    1    2    0    0  0.20870635878E+03 -0.32333319403E+03 -0.85334160038E+03  0.94050430558E+03  0.90850224598E+02 0.  0.
          5    1    3    3  502    0 -0.17616559938E+03  0.25139797040E+03 -0.22768537828E+03  0.38222161348E+03  0.41800000000E+01 0.  1.
         -5    1    3    3    0  502 -0.32540759399E+02  0.71935223632E+02 -0.15858764489E+03  0.17720352969E+03  0.41800000000E+01 0.  1.
        -11    1    4    4    0    0  0.20497292192E+03 -0.29374407601E+03 -0.82482209893E+03  0.89923910935E+03  0.00000000000E+00 0. -1.
         11    1    4    4    0    0  0.37334368597E+01 -0.29589118024E+02 -0.28519501453E+02  0.41265196223E+02  0.00000000000E+00 0.  1.
</event>
<event>
 8    1  0.7114239E-009  0.9913015E+02  0.7561462E-02  0.1282136E+00
         -1   -1    0    0    0  501 -0.00000000000E+00  0.00000000000E+00  0.50216782331E+03  0.50216782331E+03  0.00000000000E+00 0.  1.
          1   -1    0    0  501    0  0.00000000000E+00 -0.00000000000E+00 -0.40619596330E+02  0.40619596330E+02  0.00000000000E+00 0. -1.
         25    2    1    2    0    0  0.22557817403E+01 -0.91140404412E+02  0.27339247844E+03  0.31417213515E+03  0.12509604857E+03 0.  0.
         23    2    1    2    0    0 -0.22557817403E+01  0.91140404412E+02  0.18815574854E+03  0.22861528449E+03  0.92469999065E+02 0.  0.
          5    1    3    3  502    0  0.14502733686E+01 -0.17702360409E+02 -0.10398761261E+02  0.21001987826E+02  0.41800000000E+01 0. -1.
         -5    1    3    3    0  502  0.80550837166E+00 -0.73438044002E+02  0.28379123970E+03  0.29317014732E+03  0.41800000000E+01 0. -1.
        -11    1    4    4    0    0  0.25930091567E+02  0.53250694155E+02  0.16638960596E+03  0.17661683682E+03  0.00000000000E+00 0.  1.
         11    1    4    4    0    0 -0.28185873308E+02  0.37889710256E+02  0.21766142579E+02  0.51998447671E+02  0.00000000000E+00 0. -1.
</event>
<event>
 8    1  0.7114239E-009  0.5395641E+02  0.7561462E-02  0.1425100E+00
          2   -1    0    0  501    0  0.00000000000E+00  0.00000000000E+00  0.46961117209E+03  0.46961117209E+03  0.00000000000E+00 0. -1.
         -2   -1    0    0    0  501 -0.00000000000E+00 -0.00000000000E+00 -0.26632252701E+02  0.26632252701E+02  0.00000000000E+00 0.  1.
         25    2    1    2    0    0  0.26578617533E+02 -0.14450111296E+01  0.23582850385E+03  0.26827403434E+03  0.12508942123E+03 0.  0.
         23    2    1    2    0    0 -0.26578617533E+02  0.14450111296E+01  0.20715041554E+03  0.22796939046E+03  0.91379633181E+02 0.  0.
          5    1    3    3  502    0  0.25715065181E+02  0.43029147719E+00 -0.57232550366E+01  0.26677289522E+02  0.41800000000E+01 0. -1.
         -5    1    3    3    0  502  0.86355235153E+00 -0.18753026068E+01  0.24155175889E+03  0.24159674481E+03  0.41800000000E+01 0. -1.
        -11    1    4    4    0    0 -0.30657689061E+02  0.33193475572E+02  0.49169546758E+02  0.66778327678E+02  0.00000000000E+00 0.  1.
         11    1    4    4    0    0  0.40790715286E+01 -0.31748464442E+02  0.15798086878E+03  0.16119106278E+03  0.00000000000E+00 0. -1.
</event>
<event>
 8    1  0.7114239E-009  0.1417025E+03  0.7561462E-02  0.1211056E+00
         -2   -1    0    0    0  501 -0.00000000000E+00  0.00000000000E+00  0.25811403752E+03  0.25811403752E+03  0.00000000000E+00 0.  1.
          2   -1    0    0  501    0  0.00000000000E+00 -0.00000000000E+00 -0.98330007897E+02  0.98330007897E+02  0.00000000000E+00 0. -1.
         25    2    1    2    0    0 -0.86237447802E+02  0.57366040760E+02  0.14556675587E+03  0.21809364126E+03  0.12508955155E+03 0.  0.
         23    2    1    2    0    0  0.86237447802E+02 -0.57366040760E+02  0.14217273753E+02  0.13835040416E+03  0.90614256170E+02 0.  0.
          5    1    3    3  502    0  0.26450472773E+02  0.24065658281E+01  0.61399806651E+02  0.67028559031E+02  0.41800000000E+01 0. -1.
         -5    1    3    3    0  502 -0.11268792057E+03  0.54959474932E+02  0.84166949218E+02  0.15106508223E+03  0.41800000000E+01 0. -1.
        -11    1    4    4    0    0  0.23684592412E+01  0.18097015699E+02  0.17769749370E+02  0.25473036117E+02  0.00000000000E+00 0.  1.
         11    1    4    4    0    0  0.83868988560E+02 -0.75463056459E+02 -0.35524756165E+01  0.11287736804E+03  0.00000000000E+00 0. -1.
</event>
<event>
 8    1  0.7114239E-009  0.8587914E+02  0.7561462E-02  0.1313149E+00
          2   -1    0    0  501    0  0.00000000000E+00  0.00000000000E+00  0.32706617168E+03  0.32706617168E+03  0.00000000000E+00 0. -1.
         -2   -1    0    0    0  501 -0.00000000000E+00 -0.00000000000E+00 -0.44563476482E+02  0.44563476482E+02  0.00000000000E+00 0.  1.
         25    2    1    2    0    0 -0.43718926839E+02  0.27795737513E+02  0.16625908426E+03  0.21441389886E+03  0.12508912559E+03 0.  0.
         23    2    1    2    0    0  0.43718926839E+02 -0.27795737513E+02  0.11624361094E+03  0.15721574930E+03  0.92305293210E+02 0.  0.
          5    1    3    3  502    0  0.20895357909E+01  0.57030501484E+02  0.14505168358E+03  0.15593045748E+03  0.41800000000E+01 0. -1.
         -5    1    3    3    0  502 -0.45808462630E+02 -0.29234763971E+02  0.21207400674E+02  0.58483441385E+02  0.41800000000E+01 0. -1.
        -11    1    4    4    0    0  0.42865900567E+02 -0.12412401236E+02  0.12944802134E+03  0.13692459007E+03  0.00000000000E+00 0. -1.
         11    1    4    4    0    0  0.85302627177E+00 -0.15383336277E+02 -0.13204410401E+02  0.20291159229E+02  0.00000000000E+00 0.  1.
</event>
<event>
 8    1  0.7114239E-009  0.1231770E+03  0.7561462E-02  0.1237946E+00
         -2   -1    0    0    0  501 -0.00000000000E+00  0.00000000000E+00  0.20763690658E+03  0.20763690658E+03  0.00000000000E+00 0.  1.
          2   -1    0    0  501    0  0.00000000000E+00 -0.00000000000E+00 -0.11782241452E+03  0.11782241452E+03  0.00000000000E+00 0. -1.
         25    2    1    2    0    0 -0.74915669012E+01 -0.96591736003E+02  0.10617429573E+03  0.19054268314E+03  0.12508975172E+03 0.  0.
         23    2    1    2    0    0  0.74915669012E+01  0.96591736003E+02 -0.16359803674E+02  0.13491663796E+03  0.92459553225E+02 0.  0.
          5    1    3    3  502    0 -0.50257730647E+02 -0.14759552754E+02  0.38996377699E+01  0.52691208583E+02  0.41800000000E+01 0.  1.
         -5    1    3    3    0  502  0.42766163745E+02 -0.81832183250E+02  0.10227465796E+03  0.13785147456E+03  0.41800000000E+01 0.  1.
        -11    1    4    4    0    0 -0.52341862720E+01  0.81373240943E+02  0.28087355395E+02  0.86243263973E+02  0.00000000000E+00 0.  1.
         11    1    4    4    0    0  0.12725753173E+02  0.15218495060E+02 -0.44447159069E+02  0.48673373984E+02  0.00000000000E+00 0. -1.
</event>
<event>
 8    1  0.7114239E-009  0.1410387E+03  0.7561462E-02  0.1211938E+00
          1   -1    0    0  501    0  0.00000000000E+00  0.00000000000E+00  0.79500542862E+03  0.79500542862E+03  0.00000000000E+00 0. -1.
         -1   -1    0    0    0  501 -0.00000000000E+00 -0.00000000000E+00 -0.30910448484E+02  0.30910448484E+02  0.00000000000E+00 0.  1.
         25    2    1    2    0    0 -0.19024986920E+02 -0.99195994552E+02  0.27746704771E+03  0.32068361831E+03  0.12509286559E+03 0.  0.
         23    2    1    2    0    0  0.19024986920E+02  0.99195994552E+02  0.48662793243E+03  0.50523225880E+03  0.90835539585E+02 0.  0.
          5    1    3    3  502    0 -0.71148336506E+02 -0.71033801134E+02  0.15906858346E+03  0.18822373212E+03  0.41800000000E+01 0. -1.
         -5    1    3    3    0  502  0.52123349586E+02 -0.28162193418E+02  0.11839846425E+03  0.13245988618E+03  0.41800000000E+01 0. -1.
        -11    1    4    4    0    0 -0.24210655223E+02  0.18348084964E+02  0.45713305159E+02  0.54886376422E+02  0.00000000000E+00 0.  1.
         11    1    4    4    0    0  0.43235642143E+02  0.80847909589E+02  0.44091462727E+03  0.45034588238E+03  0.00000000000E+00 0. -1.
</event>
<event>
 8    1  0.7114239E-009  0.1021240E+03  0.7561462E-02  0.1275892E+00
          3   -1    0    0  501    0  0.00000000000E+00  0.00000000000E+00  0.10431112858E+03  0.10431112858E+03  0.00000000000E+00 0. -1.
         -3   -1    0    0    0  501 -0.00000000000E+00 -0.00000000000E+00 -0.16538946819E+03  0.16538946819E+03  0.00000000000E+00 0.  1.
         25    2    1    2    0    0  0.16146779457E+02 -0.65882036686E+02 -0.63027347585E+02  0.15562999758E+03  0.12508832224E+03 0.  0.
         23    2    1    2    0    0 -0.16146779457E+02  0.65882036686E+02  0.19490079732E+01  0.11407059919E+03  0.91690466908E+02 0.  0.
          5    1    3    3  502    0 -0.39402556820E+02  0.12143558409E+01  0.11108553869E+02  0.41169266609E+02  0.41800000000E+01 0.  1.
         -5    1    3    3    0  502  0.55549336277E+02 -0.67096392527E+02 -0.74135901454E+02  0.11446073098E+03  0.41800000000E+01 0.  1.
        -11    1    4    4    0    0  0.12853404984E+00  0.60139437116E+02 -0.37595596706E+02  0.70923883913E+02  0.00000000000E+00 0.  1.
         11    1    4    4    0    0 -0.16275313507E+02  0.57425995698E+01  0.39544604679E+02  0.43146715273E+02  0.00000000000E+00 0. -1.
</event>
<event>
 8    1  0.7114239E-009  0.1060821E+03  0.7561462E-02  0.1268002E+00
         -1   -1    0    0    0  501 -0.00000000000E+00  0.00000000000E+00  0.73536497851E+03  0.73536497851E+03  0.00000000000E+00 0.  1.
          1   -1    0    0  501    0  0.00000000000E+00 -0.00000000000E+00 -0.30861584688E+02  0.30861584688E+02  0.00000000000E+00 0. -1.
         25    2    1    2    0    0  0.50486287795E+02  0.42089390425E+02  0.58868626902E+03  0.60540890876E+03  0.12509213177E+03 0.  0.
         23    2    1    2    0    0 -0.50486287795E+02 -0.42089390425E+02  0.11581712480E+03  0.16081765444E+03  0.90157248960E+02 0.  0.
          5    1    3    3  502    0  0.60734747265E+02  0.66964606380E+02  0.25444448429E+03  0.27006006002E+03  0.41800000000E+01 0.  1.
         -5    1    3    3    0  502 -0.10248459470E+02 -0.24875215955E+02  0.33424178473E+03  0.33534884874E+03  0.41800000000E+01 0.  1.
        -11    1    4    4    0    0 -0.51143810314E+02  0.11848369730E+01  0.18655634959E+02  0.54452969504E+02  0.00000000000E+00 0. -1.
         11    1    4    4    0    0  0.65752251877E+00 -0.43274227398E+02  0.97161489843E+02  0.10636468494E+03  0.00000000000E+00 0.  1.
</event>
<event>
 8    1  0.7114239E-009  0.1170133E+03  0.7561462E-02  0.1248107E+00
         -1   -1    0    0    0  501 -0.00000000000E+00  0.00000000000E+00  0.15347317962E+03  0.15347317962E+03  0.00000000000E+00 0.  1.
          1   -1    0    0  501    0  0.00000000000E+00 -0.00000000000E+00 -0.18209890535E+03  0.18209890535E+03  0.00000000000E+00 0. -1.
         25    2    1    2    0    0 -0.27179807340E+01  0.68831624150E+02  0.91539688103E+02  0.16961908967E+03  0.12508373668E+03 0.  0.
         23    2    1    2    0    0  0.27179807340E+01 -0.68831624150E+02 -0.12016541383E+03  0.16595299530E+03  0.91408369768E+02 0.  0.
          5    1    3    3  502    0  0.29886482164E+02  0.82156396831E+02  0.10026557104E+03  0.13309219546E+03  0.41800000000E+01 0.  1.
         -5    1    3    3    0  502 -0.32604462898E+02 -0.13324772681E+02 -0.87258829365E+01  0.36526894214E+02  0.41800000000E+01 0.  1.
        -11    1    4    4    0    0  0.40013604448E+02 -0.60955824859E+02 -0.96993738922E+02  0.12134449520E+03  0.00000000000E+00 0. -1.
         11    1    4    4    0    0 -0.37295623714E+02 -0.78757992914E+01 -0.23171674913E+02  0.44608500098E+02  0.00000000000E+00 0.  1.
</event>
<event>
 8    1  0.7114239E-009  0.8733727E+02  0.7561462E-02  0.1309431E+00
         -1   -1    0    0    0  501 -0.00000000000E+00  0.00000000000E+00  0.12262649272E+03  0.12262649272E+03  0.00000000000E+00 0.  1.
          1   -1    0    0  501    0  0.00000000000E+00 -0.00000000000E+00 -0.10127436637E+03  0.10127436637E+03  0.00000000000E+00 0. -1.
         25    2    1    2    0    0 -0.12343980806E+02 -0.10103978767E+02  0.15731976449E+02  0.12707964447E+03  0.12508907509E+03 0.  0.
         23    2    1    2    0    0  0.12343980806E+02  0.10103978767E+02  0.56201499030E+01  0.96821214615E+02  0.95332561413E+02 0.  0.
          5    1    3    3  502    0 -0.49787380417E+02 -0.31108075032E+02  0.45734761170E+02  0.74536141302E+02  0.41800000000E+01 0. -1.
         -5    1    3    3    0  502  0.37443399611E+02  0.21004096266E+02 -0.30002784721E+02  0.52543503170E+02  0.41800000000E+01 0. -1.
        -11    1    4    4    0    0  0.39840569695E+02  0.18510628100E+02  0.34658204100E+02  0.55956281664E+02  0.00000000000E+00 0.  1.
         11    1    4    4    0    0 -0.27496588889E+02 -0.84066493337E+01 -0.29038054197E+02  0.40864932951E+02  0.00000000000E+00 0. -1.
</event>
<event>
 8    1  0.7114239E-009  0.7457435E+02  0.7561462E-02  0.1345194E+00
          1   -1    0    0  501    0  0.00000000000E+00  0.00000000000E+00  0.56022051690E+03  0.56022051690E+03  0.00000000000E+00 0. -1.
         -1   -1    0    0    0  501 -0.00000000000E+00 -0.00000000000E+00 -0.23610207931E+02  0.23610207931E+02  0.00000000000E+00 0.  1.
         25    2    1    2    0    0 -0.71645892254E+01 -0.38658697812E+02  0.30429900445E+03  0.33134816809E+03  0.12509155899E+03 0.  0.
         23    2    1    2    0    0  0.71645892254E+01  0.38658697812E+02  0.23231130452E+03  0.25248255675E+03  0.90736282689E+02 0.  0.
          5    1    3    3  502    0 -0.25342057767E+02 -0.26402814131E+02  0.12799042443E+02  0.38995081399E+02  0.41800000000E+01 0. -1.
         -5    1    3    3    0  502  0.18177468541E+02 -0.12255883682E+02  0.29149996200E+03  0.29235308669E+03  0.41800000000E+01 0. -1.
        -11    1    4    4    0    0 -0.27540627797E+02  0.46842403064E+02  0.18750392696E+03  0.19521890156E+03  0.00000000000E+00 0. -1.
         11    1    4    4    0    0  0.34705217022E+02 -0.81837052522E+01  0.44807377568E+02  0.57263655181E+02  0.00000000000E+00 0.  1.
</event>
<event>
 8    1  0.7114239E-009  0.1100972E+03  0.7561462E-02  0.1260390E+00
          2   -1    0    0  501    0  0.00000000000E+00  0.00000000000E+00  0.59252263094E+02  0.59252263094E+02  0.00000000000E+00 0. -1.
         -2   -1    0    0    0  501 -0.00000000000E+00 -0.00000000000E+00 -0.23443430160E+03  0.23443430160E+03  0.00000000000E+00 0.  1.
         25    2    1    2    0    0  0.78865093825E+01  0.35066224352E+02 -0.62236999442E+02  0.14426784681E+03  0.12509168799E+03 0.  0.
         23    2    1    2    0    0 -0.78865093825E+01 -0.35066224352E+02 -0.11294503906E+03  0.14941871788E+03  0.90980955608E+02 0.  0.
          5    1    3    3  502    0  0.47498316708E+02 -0.28188434866E+02 -0.25565841250E+02  0.61006250410E+02  0.41800000000E+01 0. -1.
         -5    1    3    3    0  502 -0.39611807326E+02  0.63254659218E+02 -0.36671158192E+02  0.83261596403E+02  0.41800000000E+01 0. -1.
        -11    1    4    4    0    0 -0.28258026298E+02 -0.54821034215E+02 -0.46730080349E+02  0.77379339956E+02  0.00000000000E+00 0. -1.
         11    1    4    4    0    0  0.20371516915E+02  0.19754809863E+02 -0.66214958712E+02  0.72039377922E+02  0.00000000000E+00 0.  1.
</event>
<event>
 8    1  0.7114239E-009  0.9644197E+02  0.7561462E-02  0.1287961E+00
          1   -1    0    0  501    0  0.00000000000E+00  0.00000000000E+00  0.67118872905E+02  0.67118872905E+02  0.00000000000E+00 0. -1.
         -1   -1    0    0    0  501 -0.00000000000E+00 -0.00000000000E+00 -0.22474331329E+03  0.22474331329E+03  0.00000000000E+00 0.  1.
         25    2    1    2    0    0 -0.33518856672E+02  0.31093083603E+02 -0.14053954818E+03  0.19362167904E+03  0.12509075261E+03 0.  0.
         23    2    1    2    0    0  0.33518856672E+02 -0.31093083603E+02 -0.17084892201E+02  0.98240507156E+02  0.85258489925E+02 0.  0.
          5    1    3    3  502    0  0.32014219405E+02 -0.15947844107E+02 -0.57284766737E+01  0.36462745656E+02  0.41800000000E+01 0.  1.
         -5    1    3    3    0  502 -0.65533076077E+02  0.47040927710E+02 -0.13481107151E+03  0.15715893338E+03  0.41800000000E+01 0.  1.
        -11    1    4    4    0    0 -0.17829245001E+02 -0.50972801523E+01 -0.33588642279E+02  0.38367448865E+02  0.00000000000E+00 0.  1.
         11    1    4    4    0    0  0.51348101673E+02 -0.25995803451E+02  0.16503750078E+02  0.59873058291E+02  0.00000000000E+00 0. -1.
</event>
<event>
 8    1  0.7114239E-009  0.1062391E+03  0.7561462E-02  0.1267697E+00
          2   -1    0    0  501    0  0.00000000000E+00  0.00000000000E+00  0.85406345138E+03  0.85406345138E+03  0.00000000000E+00 0. -1.
         -2   -1    0    0    0  501 -0.00000000000E+00 -0.00000000000E+00 -0.15700161248E+02  0.15700161248E+02  0.00000000000E+00 0.  1.
         25    2    1    2    0    0  0.27591862949E+02 -0.83467859850E+00  0.59860684131E+03  0.61215983175E+03  0.12508997387E+03 0.  0.
         23    2    1    2    0    0 -0.27591862949E+02  0.83467859850E+00  0.23975644882E+03  0.25760378087E+03  0.90080772520E+02 0.  0.
          5    1    3    3  502    0  0.73636304718E+02  0.72013538747E+01  0.45727853343E+03  0.46324431395E+03  0.41800000000E+01 0.  1.
         -5    1    3    3    0  502 -0.46044441769E+02 -0.80360324732E+01  0.14132830788E+03  0.14891551780E+03  0.41800000000E+01 0.  1.
        -11    1    4    4    0    0 -0.58717120417E+02 -0.75766863605E+01  0.12347116229E+03  0.13693149500E+03  0.00000000000E+00 0. -1.
         11    1    4    4    0    0  0.31125257468E+02  0.84113649590E+01  0.11628528653E+03  0.12067228587E+03  0.00000000000E+00 0.  1.
</event>
<event>
 8    1  0.7114239E-009  0.9190497E+02  0.7561462E-02  0.1298303E+00
          1   -1    0    0  501    0  0.00000000000E+00  0.00000000000E+00  0.30283787701E+02  0.30283787701E+02  0.00000000000E+00 0. -1.
         -1   -1    0    0    0  501 -0.00000000000E+00 -0.00000000000E+00 -0.42477976126E+03  0.42477976126E+03  0.00000000000E+00 0.  1.
         25    2    1    2    0    0  0.46524509832E-02 -0.58985357087E+01 -0.17322844949E+03  0.21375251643E+03  0.12508896762E+03 0.  0.
         23    2    1    2    0    0 -0.46524509832E-02  0.58985357087E+01 -0.22126752407E+03  0.24131103253E+03  0.96108815777E+02 0.  0.
          5    1    3    3  502    0  0.23037546919E+02 -0.49106452343E+02 -0.14967989845E+03  0.15925990277E+03  0.41800000000E+01 0.  1.
         -5    1    3    3    0  502 -0.23032894468E+02  0.43207916635E+02 -0.23548551044E+02  0.54492613662E+02  0.41800000000E+01 0.  1.
        -11    1    4    4    0    0  0.30124328248E+02  0.29370677055E+02 -0.18094465872E+03  0.18577158379E+03  0.00000000000E+00 0.  1.
         11    1    4    4    0    0 -0.30128980699E+02 -0.23472141346E+02 -0.40322865348E+02  0.55539448748E+02  0.00000000000E+00 0. -1.
</event>
<event>
 8    1  0.7114239E-009  0.5458853E+02  0.7561462E-02  0.1422055E+00
         -2   -1    0    0    0  501 -0.00000000000E+00  0.00000000000E+00  0.20571989893E+03  0.20571989893E+03  0.00000000000E+00 0.  1.
          2   -1    0    0  501    0  0.00000000000E+00 -0.00000000000E+00 -0.78246609547E+02  0.78246609547E+02  0.00000000000E+00 0. -1.
         25    2    1    2    0    0  0.82193233683E+01 -0.55366573792E+01  0.15052920021E+03  0.19597136126E+03  0.12509005743E+03 0.  0.
         23    2    1    2    0    0 -0.82193233683E+01  0.55366573792E+01 -0.23055910834E+02  0.87995147210E+02  0.84340731895E+02 0.  0.
          5    1    3    3  502    0 -0.15861557410E+02  0.21437963684E+02  0.15673781118E+03  0.15904524245E+03  0.41800000000E+01 0.  1.
         -5    1    3    3    0  502  0.24080880779E+02 -0.26974621063E+02 -0.62086109715E+01  0.36926118815E+02  0.41800000000E+01 0.  1.
        -11    1    4    4    0    0  0.16380563282E+02 -0.74165776855E+01 -0.47616469069E+02  0.50898493147E+02  0.00000000000E+00 0.  1.
         11    1    4    4    0    0 -0.24599886650E+02  0.12953235065E+02  0.24560558236E+02  0.37096654064E+02  0.00000000000E+00 0. -1.
</event>
<event>
 8    1  0.7114239E-009  0.1309809E+03  0.7561462E-02  0.1226007E+00
         -2   -1    0    0    0  501 -0.00000000000E+00  0.00000000000E+00  0.56404175181E+02  0.56404175181E+02  0.00000000000E+00 0.  1.
          2   -1    0    0  501    0  0.00000000000E+00 -0.00000000000E+00 -0.42026382409E+03  0.42026382409E+03  0.00000000000E+00 0. -1.
         25    2    1    2    0    0 -0.20963642985E+02  0.10190178250E+03 -0.14358053705E+03  0.21699547626E+03  0.12509283951E+03 0.  0.
         23    2    1    2    0    0  0.20963642985E+02 -0.10190178250E+03 -0.22027911186E+03  0.25967252301E+03  0.89908200288E+02 0.  0.
          5    1    3    3  502    0  0.36355559078E+02  0.92108890664E+02 -0.11577492368E+03  0.15240432988E+03  0.41800000000E+01 0. -1.
         -5    1    3    3    0  502 -0.57319202063E+02  0.97928918371E+01 -0.27805613374E+02  0.64591146380E+02  0.41800000000E+01 0. -1.
        -11    1    4    4    0    0  0.13725562236E+02 -0.41385354515E+02 -0.15918372772E+02  0.46416949693E+02  0.00000000000E+00 0.  1.
         11    1    4    4    0    0  0.72380807491E+01 -0.60516427986E+02 -0.20436073909E+03  0.21325557332E+03  0.00000000000E+00 0. -1.
</event>
<event>
 8    1  0.7114239E-009  0.1097215E+03  0.7561462E-02  0.1261086E+00
          3   -1    0    0  501    0  0.00000000000E+00  0.00000000000E+00  0.20516700352E+03  0.20516700352E+03  0.00000000000E+00 0. -1.
         -3   -1    0    0    0  501 -0.00000000000E+00 -0.00000000000E+00 -0.73398859549E+02  0.73398859549E+02  0.00000000000E+00 0.  1.
         25    2    1    2    0    0  0.53180704636E+01 -0.52439194721E+02  0.10061360645E+03  0.16896572360E+03  0.12509263341E+03 0.  0.
         23    2    1    2    0    0 -0.53180704636E+01  0.52439194721E+02  0.31154537522E+02  0.10960013946E+03  0.90903434181E+02 0.  0.
          5    1    3    3  502    0  0.58213688484E+02 -0.33308833844E+02  0.19138261416E+02  0.69871720954E+02  0.41800000000E+01 0. -1.
         -5    1    3    3    0  502 -0.52895618021E+02 -0.19130360877E+02  0.81475345032E+02  0.99094002650E+02  0.41800000000E+01 0. -1.
        -11    1    4    4    0    0  0.31986543153E+02  0.62402183612E+00  0.32682473236E+02  0.45734805160E+02  0.00000000000E+00 0.  1.
         11    1    4    4    0    0 -0.37304613617E+02  0.51815172885E+02 -0.15279357147E+01  0.63865334304E+02  0.00000000000E+00 0. -1.
</event>
<event>
 8    1  0.7114239E-009  0.1150657E+03  0.7561462E-02  0.1251466E+00
          2   -1    0    0  501    0  0.00000000000E+00  0.00000000000E+00  0.38535746750E+03  0.38535746750E+03  0.00000000000E+00 0. -1.
         -2   -1    0    0    0  501 -0.00000000000E+00 -0.00000000000E+00 -0.75418444278E+02  0.75418444278E+02  0.00000000000E+00 0.  1.
         25    2    1    2    0    0 -0.67321564811E+02 -0.34336409724E+01  0.32490897482E+03  0.35462269038E+03  0.12508967836E+03 0.  0.
         23    2    1    2    0    0  0.67321564811E+02  0.34336409724E+01 -0.14969951595E+02  0.10615322140E+03  0.80625206882E+02 0.  0.
          5    1    3    3  502    0  0.18183331994E+02 -0.30066539501E+02  0.30011786704E+02  0.46398384683E+02  0.41800000000E+01 0. -1.
         -5    1    3    3    0  502 -0.85504896805E+02  0.26632898529E+02  0.29489718812E+03  0.30822430569E+03  0.41800000000E+01 0. -1.
        -11    1    4    4    0    0  0.21437484198E+02  0.40687103741E+02 -0.66361720505E+01  0.46465523983E+02  0.00000000000E+00 0. -1.
         11    1    4    4    0    0  0.45884080613E+02 -0.37253462768E+02 -0.83337795448E+01  0.59687697421E+02  0.00000000000E+00 0.  1.
</event>
<event>
 8    1  0.7114239E-009  0.1070436E+03  0.7561462E-02  0.1266145E+00
         -1   -1    0    0    0  501 -0.00000000000E+00  0.00000000000E+00  0.44269842623E+02  0.44269842623E+02  0.00000000000E+00 0.  1.
          1   -1    0    0  501    0  0.00000000000E+00 -0.00000000000E+00 -0.55762852888E+03  0.55762852888E+03  0.00000000000E+00 0. -1.
         25    2    1    2    0    0 -0.62188713748E+02 -0.45430092565E+02 -0.11607610342E+03  0.18722308175E+03  0.12508993215E+03 0.  0.
         23    2    1    2    0    0  0.62188713748E+02  0.45430092565E+02 -0.39728258284E+03  0.41467528976E+03  0.90503126363E+02 0.  0.
          5    1    3    3  502    0 -0.66126238475E+02 -0.68286045597E+02 -0.32746805268E+02  0.10062548928E+03  0.41800000000E+01 0.  1.
         -5    1    3    3    0  502  0.39375247270E+01  0.22855953032E+02 -0.83329298154E+02  0.86597592465E+02  0.41800000000E+01 0.  1.
        -11    1    4    4    0    0  0.11382975764E+02 -0.13438902309E+02 -0.11271894664E+02  0.20910089475E+02  0.00000000000E+00 0.  1.
         11    1    4    4    0    0  0.50805737984E+02  0.58868994874E+02 -0.38601068817E+03  0.39376520028E+03  0.00000000000E+00 0. -1.
</event>
<event>
 8    1  0.7114239E-009  0.1906318E+03  0.7561462E-02  0.1157893E+00
          3   -1    0    0  501    0  0.00000000000E+00  0.00000000000E+00  0.74202193348E+02  0.74202193348E+02  0.00000000000E+00 0. -1.
         -3   -1    0    0    0  501 -0.00000000000E+00 -0.00000000000E+00 -0.53192066806E+03  0.53192066806E+03  0.00000000000E+00 0.  1.
         25    2    1    2    0    0 -0.14818819319E+03  0.73695014021E+02 -0.25856830082E+03  0.33150494471E+03  0.12508903423E+03 0.  0.
         23    2    1    2    0    0  0.14818819319E+03 -0.73695014021E+02 -0.19915017390E+03  0.27461791671E+03  0.91452242839E+02 0.  0.
          5    1    3    3  502    0 -0.10806534087E+03  0.98840583179E+02 -0.23850233371E+03  0.27990786764E+03  0.41800000000E+01 0.  1.
         -5    1    3    3    0  502 -0.40122852315E+02 -0.25145569158E+02 -0.20065967113E+02  0.51597077071E+02  0.41800000000E+01 0.  1.
        -11    1    4    4    0    0  0.41451700474E+02 -0.68858739009E+02 -0.66702834037E+02  0.10444633779E+03  0.00000000000E+00 0.  1.
         11    1    4    4    0    0  0.10673649271E+03 -0.48362750118E+01 -0.13244733986E+03  0.17017157891E+03  0.00000000000E+00 0. -1.
</event>
<event>
 8    1  0.7114239E-009  0.1801623E+03  0.7561462E-02  0.1167646E+00
          1   -1    0    0  501    0  0.00000000000E+00  0.00000000000E+00  0.35309603989E+03  0.35309603989E+03  0.00000000000E+00 0.  1.
         -1   -1    0    0    0  501 -0.00000000000E+00 -0.00000000000E+00 -0.12049036670E+03  0.12049036670E+03  0.00000000000E+00 0. -1.
         25    2    1    2    0    0 -0.16588939721E+03 -0.55435722117E+02  0.12652884560E+03  0.24950802041E+03  0.12510912073E+03 0.  0.
         23    2    1    2    0    0  0.16588939721E+03  0.55435722117E+02  0.10607682759E+03  0.22407838618E+03  0.91468127819E+02 0.  0.
          5    1    3    3  502    0 -0.16675113828E+03 -0.45872387927E+02  0.61440774371E+02  0.18358284029E+03  0.41800000000E+01 0.  1.
         -5    1    3    3    0  502  0.86174107515E+00 -0.95633341897E+01  0.65088071227E+02  0.65925180125E+02  0.41800000000E+01 0.  1.
        -11    1    4    4    0    0  0.70030461742E+02  0.98842537187E+01 -0.44269668905E+01  0.70862981022E+02  0.00000000000E+00 0. -1.
         11    1    4    4    0    0  0.95858935466E+02  0.45551468398E+02  0.11050379448E+03  0.15321540515E+03  0.00000000000E+00 0.  1.
</event>
<event>
 8    1  0.7114239E-009  0.1085966E+03  0.7561462E-02  0.1263191E+00
          2   -1    0    0  501    0  0.00000000000E+00  0.00000000000E+00  0.22234147075E+03  0.22234147075E+03  0.00000000000E+00 0. -1.
         -2   -1    0    0    0  501 -0.00000000000E+00 -0.00000000000E+00 -0.58727529599E+02  0.58727529599E+02  0.00000000000E+00 0.  1.
         25    2    1    2    0    0 -0.17708372968E+02  0.16545987045E+02  0.13575320491E+03  0.18618595271E+03  0.12509564414E+03 0.  0.
         23    2    1    2    0    0  0.17708372968E+02 -0.16545987045E+02  0.27860736239E+02  0.94883047635E+02  0.87402608338E+02 0.  0.
          5    1    3    3  502    0 -0.10706991468E+02 -0.54530637005E+02  0.54982038842E+02  0.78286186737E+02  0.41800000000E+01 0. -1.
         -5    1    3    3    0  502 -0.70013815001E+01  0.71076624050E+02  0.80771166068E+02  0.10789976597E+03  0.41800000000E+01 0. -1.
        -11    1    4    4    0    0 -0.14792729851E+02  0.29826601507E+02  0.43817661942E+01  0.33580513529E+02  0.00000000000E+00 0.  1.
         11    1    4    4    0    0  0.32501102819E+02 -0.46372588552E+02  0.23478970044E+02  0.61302534106E+02  0.00000000000E+00 0. -1.
</event>
<event>
 8    1  0.7114239E-009  0.1818805E+03  0.7561462E-02  0.1165995E+00
         -2   -1    0    0    0  501 -0.00000000000E+00  0.00000000000E+00  0.11260872190E+03  0.11260872190E+03  0.00000000000E+00 0.  1.
          2   -1    0    0  501    0  0.00000000000E+00 -0.00000000000E+00 -0.34164925721E+03  0.34164925721E+03  0.00000000000E+00 0. -1.
         25    2    1    2    0    0  0.26491965928E+02  0.14930441216E+03 -0.54948352531E+02  0.20410995971E+03  0.12509165623E+03 0.  0.
         23    2    1    2    0    0 -0.26491965928E+02 -0.14930441216E+03 -0.17409218279E+03  0.25014801941E+03  0.96292843748E+02 0.  0.
          5    1    3    3  502    0 -0.44836115662E+02  0.10008035751E+03 -0.33293475392E+02  0.11468340390E+03  0.41800000000E+01 0. -1.
         -5    1    3    3    0  502  0.71328081590E+02  0.49224054650E+02 -0.21654877139E+02  0.89426555807E+02  0.41800000000E+01 0. -1.
        -11    1    4    4    0    0  0.18501854077E+02 -0.94735493793E+02 -0.53538468444E+02  0.11037889287E+03  0.00000000000E+00 0.  1.
         11    1    4    4    0    0 -0.44993820005E+02 -0.54568918364E+02 -0.12055371434E+03  0.13976912653E+03  0.00000000000E+00 0. -1.
</event>
<event>
 8    1  0.7114239E-009  0.9658052E+02  0.7561462E-02  0.1287656E+00
         -1   -1    0    0    0  501 -0.00000000000E+00  0.00000000000E+00  0.37010164795E+02  0.37010164795E+02  0.00000000000E+00 0.  1.
          1   -1    0    0  501    0  0.00000000000E+00 -0.00000000000E+00 -0.35225169863E+03  0.35225169863E+03  0.00000000000E+00 0. -1.
         25    2    1    2    0    0 -0.31891654770E+02  0.63835174377E+00 -0.14104143252E+03  0.19120605819E+03  0.12509830480E+03 0.  0.
         23    2    1    2    0    0  0.31891654770E+02 -0.63835174377E+00 -0.17420010132E+03  0.19805580524E+03  0.88673229060E+02 0.  0.
          5    1    3    3  502    0 -0.49125801954E+02 -0.42369414676E+02 -0.12690298332E+03  0.14258454086E+03  0.41800000000E+01 0. -1.
         -5    1    3    3    0  502  0.17234147183E+02  0.43007766419E+02 -0.14138449200E+02  0.48621517328E+02  0.41800000000E+01 0. -1.
        -11    1    4    4    0    0 -0.15415958994E+02  0.23822682581E+02 -0.19460196279E+02  0.34407429958E+02  0.00000000000E+00 0.  1.
         11    1    4    4    0    0  0.47307613764E+02 -0.24461034325E+02 -0.15473990504E+03  0.16364837528E+03  0.00000000000E+00 0. -1.
</event>
<event>
 8    1  0.7114239E-009  0.1221922E+03  0.7561462E-02  0.1239524E+00
         -2   -1    0    0    0  501 -0.00000000000E+00  0.00000000000E+00  0.12207892262E+03  0.12207892262E+03  0.00000000000E+00 0.  1.
          2   -1    0    0  501    0  0.00000000000E+00 -0.00000000000E+00 -0.16298372495E+03  0.16298372495E+03  0.00000000000E+00 0. -1.
         25    2    1    2    0    0 -0.29601908186E+02 -0.79277938817E+02 -0.47623976487E+02  0.15835537782E+03  0.12508844071E+03 0.  0.
         23    2    1    2    0    0  0.29601908186E+02  0.79277938817E+02  0.67191741631E+01  0.12670726975E+03  0.94065510973E+02 0.  0.
          5    1    3    3  502    0 -0.69579905786E+02 -0.18862559985E+02 -0.12224891724E+01  0.72222754989E+02  0.41800000000E+01 0.  1.
         -5    1    3    3    0  502  0.39977997600E+02 -0.60415378832E+02 -0.46401487315E+02  0.86132622835E+02  0.41800000000E+01 0.  1.
        -11    1    4    4    0    0  0.43101129587E+02  0.42931424084E+02  0.42290340211E+02  0.74089725473E+02  0.00000000000E+00 0.  1.
         11    1    4    4    0    0 -0.13499221401E+02  0.36346514732E+02 -0.35571166048E+02  0.52617544276E+02  0.00000000000E+00 0. -1.
</event>
<event>
 8    1  0.7114239E-009  0.2575051E+03  0.7561462E-02  0.1108652E+00
         -1   -1    0    0    0  501 -0.00000000000E+00  0.00000000000E+00  0.66203964144E+02  0.66203964144E+02  0.00000000000E+00 0.  1.
          1   -1    0    0  501    0  0.00000000000E+00 -0.00000000000E+00 -0.15033612260E+04  0.15033612260E+04  0.00000000000E+00 0. -1.
         25    2    1    2    0    0 -0.24511884117E+03  0.28108517925E+02 -0.32520942641E+03  0.42694386815E+03  0.12508621204E+03 0.  0.
         23    2    1    2    0    0  0.24511884117E+03 -0.28108517925E+02 -0.11119478354E+04  0.11426213219E+04  0.91006382479E+02 0.  0.
          5    1    3    3  502    0 -0.22292700787E+02 -0.13048652638E+02  0.48041570370E+01  0.26604213367E+02  0.41800000000E+01 0. -1.
         -5    1    3    3    0  502 -0.22282614039E+03  0.41157170563E+02 -0.33001358345E+03  0.40033965478E+03  0.41800000000E+01 0. -1.
        -11    1    4    4    0    0  0.17019221289E+03 -0.60438971272E+02 -0.80500732741E+03  0.82501821542E+03  0.00000000000E+00 0.  1.
         11    1    4    4    0    0  0.74926628284E+02  0.32330453346E+02 -0.30694050798E+03  0.31760310653E+03  0.00000000000E+00 0. -1.
</event>
<event>
 8    1  0.7114239E-009  0.1052295E+03  0.7561462E-02  0.1269668E+00
         -1   -1    0    0    0  501 -0.00000000000E+00  0.00000000000E+00  0.29436671371E+03  0.29436671371E+03  0.00000000000E+00 0.  1.
          1   -1    0    0  501    0  0.00000000000E+00 -0.00000000000E+00 -0.65656352623E+02  0.65656352623E+02  0.00000000000E+00 0. -1.
         25    2    1    2    0    0  0.70724574700E+02 -0.34885803893E+02  0.17336235048E+03  0.22786328780E+03  0.12509271995E+03 0.  0.
         23    2    1    2    0    0 -0.70724574700E+02  0.34885803893E+02  0.55348010614E+02  0.13215977854E+03  0.90464468187E+02 0.  0.
          5    1    3    3  502    0  0.53812640541E+02 -0.50978089196E+02  0.26090407993E+02  0.78694012793E+02  0.41800000000E+01 0.  1.
         -5    1    3    3    0  502  0.16911934158E+02  0.16092285304E+02  0.14727194248E+03  0.14916927501E+03  0.41800000000E+01 0.  1.
        -11    1    4    4    0    0 -0.43349725379E+02 -0.22557249365E+02  0.16459745269E+01  0.48895167670E+02  0.00000000000E+00 0.  1.
         11    1    4    4    0    0 -0.27374849321E+02  0.57443053258E+02  0.53702036087E+02  0.83264610867E+02  0.00000000000E+00 0. -1.
</event>
<event>
 8    1  0.7114239E-009  0.1410127E+03  0.7561462E-02  0.1211973E+00
          1   -1    0    0  501    0  0.00000000000E+00  0.00000000000E+00  0.35795796657E+03  0.35795796657E+03  0.00000000000E+00 0. -1.
         -1   -1    0    0    0  501 -0.00000000000E+00 -0.00000000000E+00 -0.68445599879E+02  0.68445599879E+02  0.00000000000E+00 0.  1.
         25    2    1    2    0    0  0.98872673284E+02  0.40726655882E+02  0.20302841377E+03  0.26134029705E+03  0.12507496968E+03 0.  0.
         23    2    1    2    0    0 -0.98872673284E+02 -0.40726655882E+02  0.86483952922E+02  0.16506326940E+03  0.91279476176E+02 0.  0.
          5    1    3    3  502    0 -0.21516342174E+02  0.49653332509E+01 -0.11467997260E+00  0.22474275657E+02  0.41800000000E+01 0. -1.
         -5    1    3    3    0  502  0.12038901546E+03  0.35761322631E+02  0.20314309374E+03  0.23886602139E+03  0.41800000000E+01 0. -1.
        -11    1    4    4    0    0 -0.88110809521E+02  0.36938667224E+01  0.79681747522E+02  0.11885428177E+03  0.00000000000E+00 0.  1.
         11    1    4    4    0    0 -0.10761863763E+02 -0.44420522604E+02  0.68022053993E+01  0.46208987636E+02  0.00000000000E+00 0. -1.
</event>
<event>
 8    1  0.7114239E-009  0.1202125E+03  0.7561462E-02  0.1242747E+00
          1   -1    0    0  501    0  0.00000000000E+00  0.00000000000E+00  0.21314275940E+03  0.21314275940E+03  0.00000000000E+00 0. -1.
         -1   -1    0    0    0  501 -0.00000000000E+00 -0.00000000000E+00 -0.13280034392E+03  0.13280034392E+03  0.00000000000E+00 0.  1.
         25    2    1    2    0    0 -0.96266688929E+02  0.54454982838E+02  0.10950154849E+03  0.19968012951E+03  0.12509574112E+03 0.  0.
         23    2    1    2    0    0  0.96266688929E+02 -0.54454982838E+02 -0.29159132999E+02  0.14626297381E+03  0.91159102223E+02 0.  0.
          5    1    3    3  502    0 -0.71786990595E+02  0.53416487351E+02  0.13631819141E+03  0.16311595522E+03  0.41800000000E+01 0.  1.
         -5    1    3    3    0  502 -0.24479698335E+02  0.10384954868E+01 -0.26816642924E+02  0.36564174285E+02  0.41800000000E+01 0.  1.
        -11    1    4    4    0    0  0.12645671393E+02  0.13310304897E+02  0.20678405661E+02  0.27652733718E+02  0.00000000000E+00 0. -1.
         11    1    4    4    0    0  0.83621017536E+02 -0.67765287735E+02 -0.49837538660E+02  0.11861024009E+03  0.00000000000E+00 0.  1.
</event>
<event>
 8    1  0.7114239E-009  0.1950594E+03  0.7561462E-02  0.1153976E+00
          4   -1    0    0  501    0  0.00000000000E+00  0.00000000000E+00  0.20525425971E+03  0.20525425971E+03  0.00000000000E+00 0. -1.
         -4   -1    0    0    0  501 -0.00000000000E+00 -0.00000000000E+00 -0.20733324832E+03  0.20733324832E+03  0.00000000000E+00 0.  1.
         25    2    1    2    0    0  0.16485653633E+03  0.46006907386E+02  0.41131275800E+02  0.21595428638E+03  0.12510059495E+03 0.  0.
         23    2    1    2    0    0 -0.16485653633E+03 -0.46006907386E+02 -0.43210264409E+02  0.19663322166E+03  0.86620920177E+02 0.  0.
          5    1    3    3  502    0  0.12576451278E+03 -0.27298475694E+02  0.27443202825E+02  0.13165303351E+03  0.41800000000E+01 0.  1.
         -5    1    3    3    0  502  0.39092023547E+02  0.73305383080E+02  0.13688072975E+02  0.84301252869E+02  0.41800000000E+01 0.  1.
        -11    1    4    4    0    0 -0.10297363974E+02 -0.18520935578E+02  0.18328905038E+02  0.28018021332E+02  0.00000000000E+00 0.  1.
         11    1    4    4    0    0 -0.15455917236E+03 -0.27485971808E+02 -0.61539169446E+02  0.16861520033E+03  0.00000000000E+00 0. -1.
</event>
<event>
 8    1  0.7114239E-009  0.1031549E+03  0.7561462E-02  0.1273798E+00
         -2   -1    0    0    0  501 -0.00000000000E+00  0.00000000000E+00  0.16822120955E+03  0.16822120955E+03  0.00000000000E+00 0.  1.
          2   -1    0    0  501    0  0.00000000000E+00 -0.00000000000E+00 -0.82612948992E+02  0.82612948992E+02  0.00000000000E+00 0. -1.
         25    2    1    2    0    0 -0.64235062463E+01 -0.90261385316E+01  0.82499513289E+02  0.15025268897E+03  0.12508784209E+03 0.  0.
         23    2    1    2    0    0  0.64235062463E+01  0.90261385316E+01  0.31087472649E+01  0.10058146957E+03  0.99921144419E+02 0.  0.
          5    1    3    3  502    0  0.43170846669E+02  0.20566163239E+02  0.78752241202E+02  0.92228395665E+02  0.41800000000E+01 0. -1.
         -5    1    3    3    0  502 -0.49594352915E+02 -0.29592301771E+02  0.37472720865E+01  0.58024293303E+02  0.41800000000E+01 0. -1.
        -11    1    4    4    0    0  0.35223332396E+02  0.43183244323E+02  0.42511199126E+01  0.55888708662E+02  0.00000000000E+00 0.  1.
         11    1    4    4    0    0 -0.28799826150E+02 -0.34157105792E+02 -0.11423726477E+01  0.44692760908E+02  0.00000000000E+00 0. -1.
</event>
<event>
 8    1  0.7114239E-009  0.1052065E+03  0.7561462E-02  0.1269713E+00
          2   -1    0    0  501    0  0.00000000000E+00  0.00000000000E+00  0.79366876479E+03  0.79366876479E+03  0.00000000000E+00 0.  1.
         -2   -1    0    0    0  501 -0.00000000000E+00 -0.00000000000E+00 -0.18436420068E+02  0.18436420068E+02  0.00000000000E+00 0. -1.
         25    2    1    2    0    0  0.17972997900E+02 -0.16742998891E+02  0.59391796056E+03  0.60744463532E+03  0.12508830653E+03 0.  0.
         23    2    1    2    0    0 -0.17972997900E+02  0.16742998891E+02  0.18131438416E+03  0.20466054954E+03  0.91693391093E+02 0.  0.
          5    1    3    3  502    0  0.38586647290E+02 -0.62796293238E+02  0.41438712400E+03  0.42091146899E+03  0.41800000000E+01 0. -1.
         -5    1    3    3    0  502 -0.20613649390E+02  0.46053294347E+02  0.17953083656E+03  0.18653316632E+03  0.41800000000E+01 0. -1.
        -11    1    4    4    0    0 -0.14914014404E+02 -0.32953231735E+02  0.12184078958E+03  0.12709650393E+03  0.00000000000E+00 0.  1.
         11    1    4    4    0    0 -0.30589834961E+01  0.49696230626E+02  0.59473594582E+02  0.77564045607E+02  0.00000000000E+00 0. -1.
</event>
<event>
 8    1  0.7114239E-009  0.1507916E+03  0.7561462E-02  0.1199504E+00
         -2   -1    0    0    0  501 -0.00000000000E+00  0.00000000000E+00  0.52301826622E+02  0.52301826622E+02  0.00000000000E+00 0. -1.
          2   -1    0    0  501    0  0.00000000000E+00 -0.00000000000E+00 -0.48731955538E+03  0.48731955538E+03  0.00000000000E+00 0.  1.
         25    2    1    2    0    0 -0.61967991667E+02 -0.98442024305E+02 -0.21755207221E+03  0.27659991477E+03  0.12509094526E+03 0.  0.
         23    2    1    2    0    0  0.61967991667E+02  0.98442024305E+02 -0.21746565654E+03  0.26302146723E+03  0.91422734080E+02 0.  0.
          5    1    3    3  502    0 -0.25301844671E+02  0.27528943467E+02 -0.67152808776E+02  0.76974009891E+02  0.41800000000E+01 0.  1.
         -5    1    3    3    0  502 -0.36666146997E+02 -0.12597096777E+03 -0.15039926344E+03  0.19962590488E+03  0.41800000000E+01 0.  1.
        -11    1    4    4    0    0 -0.12364625210E+02  0.26531481111E+02 -0.95271759349E+01  0.30782633542E+02  0.00000000000E+00 0. -1.
         11    1    4    4    0    0  0.74332616877E+02  0.71910543194E+02 -0.20793848061E+03  0.23223883368E+03  0.00000000000E+00 0.  1.
</event>
<event>
 8    1  0.7114239E-009  0.9850233E+02  0.7561462E-02  0.1283477E+00
         -3   -1    0    0    0  501 -0.00000000000E+00  0.00000000000E+00  0.39428348068E+02  0.39428348068E+02  0.00000000000E+00 0.  1.
          3   -1    0    0  501    0  0.00000000000E+00 -0.00000000000E+00 -0.33368953066E+03  0.33368953066E+03  0.00000000000E+00 0. -1.
         25    2    1    2    0    0  0.89387811903E+01 -0.42484692183E+02 -0.13520551172E+03  0.18924159056E+03  0.12508796232E+03 0.  0.
         23    2    1    2    0    0 -0.89387811903E+01  0.42484692183E+02 -0.15905567087E+03  0.18387628817E+03  0.81405970522E+02 0.  0.
          5    1    3    3  502    0 -0.18108089316E+02 -0.66517106918E+02 -0.25456222197E+02  0.73606521857E+02  0.41800000000E+01 0.  1.
         -5    1    3    3    0  502  0.27046870506E+02  0.24032414735E+02 -0.10974928953E+03  0.11563506870E+03  0.41800000000E+01 0.  1.
        -11    1    4    4    0    0 -0.19735734528E+02  0.64254982807E+02 -0.12652033342E+03  0.14326757065E+03  0.00000000000E+00 0. -1.
         11    1    4    4    0    0  0.10796953337E+02 -0.21770290625E+02 -0.32535337454E+02  0.40608717518E+02  0.00000000000E+00 0.  1.
</event>
<event>
 8    1  0.7114239E-009  0.1091034E+03  0.7561462E-02  0.1262239E+00
         -1   -1    0    0    0  501 -0.00000000000E+00  0.00000000000E+00  0.68565206665E+03  0.68565206665E+03  0.00000000000E+00 0.  1.
          1   -1    0    0  501    0  0.00000000000E+00 -0.00000000000E+00 -0.25812273714E+02  0.25812273714E+02  0.00000000000E+00 0. -1.
         25    2    1    2    0    0  0.66243548506E+01 -0.71687260530E+02  0.45168102523E+03  0.47417933533E+03  0.12508936044E+03 0.  0.
         23    2    1    2    0    0 -0.66243548506E+01  0.71687260530E+02  0.20815876770E+03  0.23728500503E+03  0.88267523159E+02 0.  0.
          5    1    3    3  502    0 -0.32707137586E+02  0.19154972996E+02  0.68531043552E+02  0.78426055427E+02  0.41800000000E+01 0.  1.
         -5    1    3    3    0  502  0.39331492436E+02 -0.90842233526E+02  0.38314998168E+03  0.39575327990E+03  0.41800000000E+01 0.  1.
        -11    1    4    4    0    0 -0.19412174888E+02  0.61952603332E+02  0.21117804083E+03  0.22093239355E+03  0.00000000000E+00 0.  1.
         11    1    4    4    0    0  0.12787820038E+02  0.97346571981E+01 -0.30192731268E+01  0.16352611482E+02  0.00000000000E+00 0. -1.
</event>
<event>
 8    1  0.7114239E-009  0.1157122E+03  0.7561462E-02  0.1250343E+00
          1   -1    0    0  501    0  0.00000000000E+00  0.00000000000E+00  0.47398553154E+02  0.47398553154E+02  0.00000000000E+00 0. -1.
         -1   -1    0    0    0  501 -0.00000000000E+00 -0.00000000000E+00 -0.34483627035E+03  0.34483627035E+03  0.00000000000E+00 0.  1.
         25    2    1    2    0    0  0.23796047682E+02 -0.35979608901E+02 -0.87381629772E+02  0.15855606959E+03  0.12507475300E+03 0.  0.
         23    2    1    2    0    0 -0.23796047682E+02  0.35979608901E+02 -0.21005608742E+03  0.23367875392E+03  0.92851580635E+02 0.  0.
          5    1    3    3  502    0 -0.41830291348E+02 -0.49717594620E+02 -0.44285669313E+02  0.78742017980E+02  0.41800000000E+01 0. -1.
         -5    1    3    3    0  502  0.65626339030E+02  0.13737985719E+02 -0.43095960459E+02  0.79814051607E+02  0.41800000000E+01 0. -1.
        -11    1    4    4    0    0 -0.57452014385E+02  0.14646665324E+02 -0.15299472290E+03  0.16408121160E+03  0.00000000000E+00 0.  1.
         11    1    4    4    0    0  0.33655966703E+02  0.21332943576E+02 -0.57061364520E+02  0.69597542322E+02  0.00000000000E+00 0. -1.
</event>
<event>
 8    1  0.7114239E-009  0.1524434E+03  0.7561462E-02  0.1197502E+00
         -1   -1    0    0    0  501 -0.00000000000E+00  0.00000000000E+00  0.21052416410E+03  0.21052416410E+03  0.00000000000E+00 0.  1.
          1   -1    0    0  501    0  0.00000000000E+00 -0.00000000000E+00 -0.12836058548E+03  0.12836058548E+03  0.00000000000E+00 0. -1.
         25    2    1    2    0    0 -0.88912684453E+02 -0.83943733170E+02  0.45704298305E+02  0.18079943209E+03  0.12509011138E+03 0.  0.
         23    2    1    2    0    0  0.88912684453E+02  0.83943733170E+02  0.36459280314E+02  0.15808531748E+03  0.93325627175E+02 0.  0.
          5    1    3    3  502    0  0.27605757176E+02 -0.11605278644E+02 -0.11217312897E+02  0.32249974114E+02  0.41800000000E+01 0.  1.
         -5    1    3    3    0  502 -0.11651844163E+03 -0.72338454526E+02  0.56921611203E+02  0.14854945798E+03  0.41800000000E+01 0.  1.
        -11    1    4    4    0    0  0.65212504078E+01  0.46471765336E+02  0.47656798640E+02  0.66882898688E+02  0.00000000000E+00 0.  1.
         11    1    4    4    0    0  0.82391434045E+02  0.37471967834E+02 -0.11197518326E+02  0.91202418795E+02  0.00000000000E+00 0. -1.
</event>
<event>
 8    1  0.7114239E-009  0.1948687E+03  0.7561462E-02  0.1154142E+00
          1   -1    0    0  501    0  0.00000000000E+00  0.00000000000E+00  0.13306837331E+04  0.13306837331E+04  0.00000000000E+00 0. -1.
         -1   -1    0    0    0  501 -0.00000000000E+00 -0.00000000000E+00 -0.33769629283E+02  0.33769629283E+02  0.00000000000E+00 0.  1.
         25    2    1    2    0    0  0.63625789797E+02  0.16341596830E+03  0.81754263020E+03  0.84544553562E+03  0.12509668930E+03 0.  0.
         23    2    1    2    0    0 -0.63625789797E+02 -0.16341596830E+03  0.47937147366E+03  0.51900782681E+03  0.93910035189E+02 0.  0.
          5    1    3    3  502    0  0.68549449220E+01  0.15650855014E+03  0.63816191737E+03  0.65712253174E+03  0.41800000000E+01 0.  1.
         -5    1    3    3    0  502  0.56770844875E+02  0.69074181600E+01  0.17938071283E+03  0.18832300387E+03  0.41800000000E+01 0.  1.
        -11    1    4    4    0    0 -0.52759625225E+01 -0.23511787921E+02  0.10578013999E+02  0.26316047042E+02  0.00000000000E+00 0. -1.
         11    1    4    4    0    0 -0.58349827275E+02 -0.13990418038E+03  0.46879345966E+03  0.49269177977E+03  0.00000000000E+00 0.  1.
</event>
<event>
 8    1  0.7114239E-009  0.1362886E+03  0.7561462E-02  0.1218412E+00
          1   -1    0    0  501    0  0.00000000000E+00  0.00000000000E+00  0.63554768976E+02  0.63554768976E+02  0.00000000000E+00 0. -1.
         -1   -1    0    0    0  501 -0.00000000000E+00 -0.00000000000E+00 -0.46490706628E+03  0.46490706628E+03  0.00000000000E+00 0.  1.
         25    2    1    2    0    0 -0.11162597708E+03 -0.29792626770E+01 -0.10217769475E+03  0.19635604266E+03  0.12508468899E+03 0.  0.
         23    2    1    2    0    0  0.11162597708E+03  0.29792626770E+01 -0.29917460256E+03  0.33210579260E+03  0.91211731140E+02 0.  0.
          5    1    3    3  502    0 -0.10662271671E+03 -0.46795285428E+02 -0.97282702319E+02  0.15178800686E+03  0.41800000000E+01 0.  1.
         -5    1    3    3    0  502 -0.50032603699E+01  0.43816022751E+02 -0.48949924296E+01  0.44568035799E+02  0.41800000000E+01 0.  1.
        -11    1    4    4    0    0  0.23195556610E+02 -0.12836430039E+01 -0.35398217396E+01  0.23499189853E+02  0.00000000000E+00 0. -1.
         11    1    4    4    0    0  0.88430420467E+02  0.42629056809E+01 -0.29563478082E+03  0.30860660275E+03  0.00000000000E+00 0.  1.
</event>
<event>
 8    1  0.7114239E-009  0.1159217E+03  0.7561462E-02  0.1249981E+00
          2   -1    0    0  501    0  0.00000000000E+00  0.00000000000E+00  0.56929454937E+03  0.56929454937E+03  0.00000000000E+00 0.  1.
         -2   -1    0    0    0  501 -0.00000000000E+00 -0.00000000000E+00 -0.39554044137E+02  0.39554044137E+02  0.00000000000E+00 0. -1.
         25    2    1    2    0    0  0.78371787184E+02  0.60951653874E+02  0.21624954641E+03  0.26882779485E+03  0.12508907155E+03 0.  0.
         23    2    1    2    0    0 -0.78371787184E+02 -0.60951653874E+02  0.31349095882E+03  0.34002079866E+03  0.86488849703E+02 0.  0.
          5    1    3    3  502    0  0.44109660782E+02  0.48900647793E+02  0.19640897450E+02  0.68848912711E+02  0.41800000000E+01 0. -1.
         -5    1    3    3    0  502  0.34262126402E+02  0.12051006081E+02  0.19660864896E+03  0.19997888214E+03  0.41800000000E+01 0. -1.
        -11    1    4    4    0    0  0.53733961112E+01 -0.43400051985E+02  0.77358954890E+02  0.88864198639E+02  0.00000000000E+00 0. -1.
         11    1    4    4    0    0 -0.83745183295E+02 -0.17551601889E+02  0.23613200393E+03  0.25115660002E+03  0.00000000000E+00 0.  1.
</event>
<event>
 8    1  0.7114239E-009  0.1117314E+03  0.7561462E-02  0.1257397E+00
          2   -1    0    0  501    0  0.00000000000E+00  0.00000000000E+00  0.15247336892E+03  0.15247336892E+03  0.00000000000E+00 0. -1.
         -2   -1    0    0    0  501 -0.00000000000E+00 -0.00000000000E+00 -0.10392118746E+03  0.10392118746E+03  0.00000000000E+00 0.  1.
         25    2    1    2    0    0  0.46652387980E+02  0.26133798151E+02  0.62944352112E+02  0.14989869492E+03  0.12509279182E+03 0.  0.
         23    2    1    2    0    0 -0.46652387980E+02 -0.26133798151E+02 -0.14392170655E+02  0.10649586146E+03  0.90966000363E+02 0.  0.
          5    1    3    3  502    0 -0.38471995780E+02  0.94427086765E+01  0.46985724120E+02  0.61598619120E+02  0.41800000000E+01 0.  1.
         -5    1    3    3    0  502  0.85124383760E+02  0.16691089475E+02  0.15958627993E+02  0.88300075797E+02  0.41800000000E+01 0.  1.
        -11    1    4    4    0    0 -0.68339670552E+02 -0.85688712842E+01  0.97915620806E+01  0.69567311391E+02  0.00000000000E+00 0. -1.
         11    1    4    4    0    0  0.21687282572E+02 -0.17564926867E+02 -0.24183732736E+02  0.36928550070E+02  0.00000000000E+00 0.  1.
</event>
<event>
 8    1  0.7114239E-009  0.2250336E+03  0.7561462E-02  0.1130185E+00
         -2   -1    0    0    0  501 -0.00000000000E+00  0.00000000000E+00  0.65997025322E+02  0.65997025322E+02  0.00000000000E+00 0.  1.
          2   -1    0    0  501    0  0.00000000000E+00 -0.00000000000E+00 -0.96511697193E+03  0.96511697193E+03  0.00000000000E+00 0. -1.
         25    2    1    2    0    0 -0.11450706764E+03  0.18310452185E+03 -0.60907171736E+03  0.65822104504E+03  0.12508977887E+03 0.  0.
         23    2    1    2    0    0  0.11450706764E+03 -0.18310452185E+03 -0.29004822924E+03  0.37289295221E+03  0.91005736430E+02 0.  0.
          5    1    3    3  502    0 -0.31806582443E+01  0.36456120859E+02 -0.21914116886E+02  0.42858677695E+02  0.41800000000E+01 0.  1.
         -5    1    3    3    0  502 -0.11132640940E+03  0.14664840099E+03 -0.58715760048E+03  0.61536236734E+03  0.41800000000E+01 0.  1.
        -11    1    4    4    0    0  0.11483148089E+03 -0.12045890466E+03 -0.24309221145E+03  0.29460217241E+03  0.00000000000E+00 0.  1.
         11    1    4    4    0    0 -0.32441325334E+00 -0.62645617183E+02 -0.46956017789E+02  0.78290779807E+02  0.00000000000E+00 0. -1.
</event>
<event>
 8    1  0.7114239E-009  0.1275869E+03  0.7561462E-02  0.1231081E+00
          2   -1    0    0  501    0  0.00000000000E+00  0.00000000000E+00  0.20064793634E+03  0.20064793634E+03  0.00000000000E+00 0. -1.
         -2   -1    0    0    0  501 -0.00000000000E+00 -0.00000000000E+00 -0.99365972368E+02  0.99365972368E+02  0.00000000000E+00 0.  1.
         25    2    1    2    0    0  0.47124491343E+02 -0.69935587312E+02  0.88322274449E+02  0.17481347003E+03  0.12508885276E+03 0.  0.
         23    2    1    2    0    0 -0.47124491343E+02  0.69935587312E+02  0.12959689520E+02  0.12520043867E+03  0.91626918724E+02 0.  0.
          5    1    3    3  502    0 -0.42781780841E+01 -0.87001114232E+02  0.23655370824E+02  0.90357875440E+02  0.41800000000E+01 0.  1.
         -5    1    3    3    0  502  0.51402669427E+02  0.17065526920E+02  0.64666903626E+02  0.84455594591E+02  0.41800000000E+01 0.  1.
        -11    1    4    4    0    0  0.15892235992E+02 -0.41086705264E+01  0.22114129990E+02  0.27540498970E+02  0.00000000000E+00 0. -1.
         11    1    4    4    0    0 -0.63016727334E+02  0.74044257838E+02 -0.91544404696E+01  0.97659939705E+02  0.00000000000E+00 0.  1.
</event>
<event>
 8    1  0.7114239E-009  0.9927880E+02  0.7561462E-02  0.1281820E+00
         -2   -1    0    0    0  501 -0.00000000000E+00  0.00000000000E+00  0.84590862961E+02  0.84590862961E+02  0.00000000000E+00 0.  1.
          2   -1    0    0  501    0  0.00000000000E+00 -0.00000000000E+00 -0.18244772354E+03  0.18244772354E+03  0.00000000000E+00 0. -1.
         25    2    1    2    0    0  0.62045753294E+02  0.16321237432E+02 -0.38683289890E+02  0.14580789472E+03  0.12508991547E+03 0.  0.
         23    2    1    2    0    0 -0.62045753294E+02 -0.16321237432E+02 -0.59173570686E+02  0.12123069178E+03  0.84138640762E+02 0.  0.
          5    1    3    3  502    0 -0.17051519711E+02 -0.51867802831E+01 -0.58564017761E+02  0.61358565746E+02  0.41800000000E+01 0.  1.
         -5    1    3    3    0  502  0.79097273004E+02  0.21508017715E+02  0.19880727870E+02  0.84449328970E+02  0.41800000000E+01 0.  1.
        -11    1    4    4    0    0 -0.52855201687E+02 -0.44149641301E+02 -0.60816813681E+02  0.91877897226E+02  0.00000000000E+00 0. -1.
         11    1    4    4    0    0 -0.91905516065E+01  0.27828403870E+02  0.16432429945E+01  0.29352794557E+02  0.00000000000E+00 0.  1.
</event>
<event>
 8    1  0.7114239E-009  0.9061079E+02  0.7561462E-02  0.1301379E+00
          2   -1    0    0  501    0  0.00000000000E+00  0.00000000000E+00  0.24825906277E+03  0.24825906277E+03  0.00000000000E+00 0. -1.
         -2   -1    0    0    0  501 -0.00000000000E+00 -0.00000000000E+00 -0.53917435802E+02  0.53917435802E+02  0.00000000000E+00 0.  1.
         25    2    1    2    0    0  0.10252717699E+02 -0.11829474666E+02  0.69491854920E+02  0.14395083648E+03  0.12509065006E+03 0.  0.
         23    2    1    2    0    0 -0.10252717699E+02  0.11829474666E+02  0.12484977205E+03  0.15822566210E+03  0.95931433188E+02 0.  0.
          5    1    3    3  502    0 -0.54064045475E+02  0.84192806809E+01  0.14283640580E+02  0.56703616185E+02  0.41800000000E+01 0.  1.
         -5    1    3    3    0  502  0.64316763174E+02 -0.20248755347E+02  0.55208214340E+02  0.87247220293E+02  0.41800000000E+01 0.  1.
        -11    1    4    4    0    0 -0.32641154708E+02  0.15442918739E+02  0.13004056665E+03  0.13496102287E+03  0.00000000000E+00 0. -1.
         11    1    4    4    0    0  0.22388437009E+02 -0.36134440736E+01 -0.51907945971E+01  0.23264639226E+02  0.00000000000E+00 0.  1.
</event>
<event>
 8    1  0.7114239E-009  0.1021366E+03  0.7561462E-02  0.1275866E+00
          2   -1    0    0  501    0  0.00000000000E+00  0.00000000000E+00  0.55847634541E+03  0.55847634541E+03  0.00000000000E+00 0.  1.
         -2   -1    0    0    0  501 -0.00000000000E+00 -0.00000000000E+00 -0.35109474376E+02  0.35109474376E+02  0.00000000000E+00 0. -1.
         25    2    1    2    0    0  0.78219790806E+02  0.11498237175E+01  0.20489882133E+03  0.25248927173E+03  0.12509055755E+03 0.  0.
         23    2    1    2    0    0 -0.78219790806E+02 -0.11498237175E+01  0.31846804971E+03  0.34109654806E+03  0.93836552822E+02 0.  0.
          5    1    3    3  502    0  0.39459555402E+02  0.13819890301E+02  0.20721452712E+03  0.21143173491E+03  0.41800000000E+01 0.  1.
         -5    1    3    3    0  502  0.38760235405E+02 -0.12670066584E+02 -0.23157057893E+01  0.41057536813E+02  0.41800000000E+01 0.  1.
        -11    1    4    4    0    0 -0.87258911955E+01  0.39702973648E+02  0.12711220648E+03  0.13345403826E+03  0.00000000000E+00 0.  1.
         11    1    4    4    0    0 -0.69493899611E+02 -0.40852797365E+02  0.19135584323E+03  0.20764250979E+03  0.00000000000E+00 0. -1.
</event>
<event>
 8    1  0.7114239E-009  0.8680935E+02  0.7561462E-02  0.1310768E+00
         -2   -1    0    0    0  501 -0.00000000000E+00  0.00000000000E+00  0.46453208735E+03  0.46453208735E+03  0.00000000000E+00 0.  1.
          2   -1    0    0  501    0  0.00000000000E+00 -0.00000000000E+00 -0.32275463963E+02  0.32275463963E+02  0.00000000000E+00 0. -1.
         25    2    1    2    0    0  0.50846581881E+01 -0.11904843275E+02  0.14743203801E+03  0.19378164176E+03  0.12509012674E+03 0.  0.
         23    2    1    2    0    0 -0.50846581881E+01  0.11904843275E+02  0.28482458538E+03  0.30302590956E+03  0.10262591479E+03 0.  0.
          5    1    3    3  502    0 -0.14446522966E+02 -0.36121519400E+02  0.15633153851E+03  0.16115361778E+03  0.41800000000E+01 0. -1.
         -5    1    3    3    0  502  0.19531181155E+02  0.24216676125E+02 -0.88995004971E+01  0.32628023982E+02  0.41800000000E+01 0. -1.
        -11    1    4    4    0    0  0.35974822720E+02 -0.28195855302E+02  0.13854660537E+03  0.14589158983E+03  0.00000000000E+00 0.  1.
         11    1    4    4    0    0 -0.41059480908E+02  0.40100698576E+02  0.14627798001E+03  0.15713431972E+03  0.00000000000E+00 0. -1.
</event>
<event>
 8    1  0.7114239E-009  0.1543423E+03  0.7561462E-02  0.1195237E+00
         -2   -1    0    0    0  501 -0.00000000000E+00  0.00000000000E+00  0.16841538372E+03  0.16841538372E+03  0.00000000000E+00 0.  1.
          2   -1    0    0  501    0  0.00000000000E+00 -0.00000000000E+00 -0.20585522490E+03  0.20585522490E+03  0.00000000000E+00 0. -1.
         25    2    1    2    0    0  0.87348377811E+02  0.94355358313E+02  0.61619160934E+02  0.18967509797E+03  0.12508816510E+03 0.  0.
         23    2    1    2    0    0 -0.87348377811E+02 -0.94355358313E+02 -0.99059002107E+02  0.18459551065E+03  0.87921236942E+02 0.  0.
          5    1    3    3  502    0 -0.28969752919E+02  0.40161305636E+01  0.22772120687E+02  0.37301712688E+02  0.41800000000E+01 0. -1.
         -5    1    3    3    0  502  0.11631813073E+03  0.90339227749E+02  0.38847040247E+02  0.15237338528E+03  0.41800000000E+01 0. -1.
        -11    1    4    4    0    0 -0.82317060884E+02 -0.73522572593E+02 -0.33077504642E+02  0.11522060799E+03  0.00000000000E+00 0.  1.
         11    1    4    4    0    0 -0.50313169273E+01 -0.20832785720E+02 -0.65981497465E+02  0.69374902656E+02  0.00000000000E+00 0. -1.
</event>
<event>
 8    1  0.7114239E-009  0.1046969E+03  0.7561462E-02  0.1270718E+00
         -1   -1    0    0    0  501 -0.00000000000E+00  0.00000000000E+00  0.76208057583E+02  0.76208057583E+02  0.00000000000E+00 0.  1.
          1   -1    0    0  501    0  0.00000000000E+00 -0.00000000000E+00 -0.17752963794E+03  0.17752963794E+03  0.00000000000E+00 0. -1.
         25    2    1    2    0    0 -0.36394290839E+02 -0.83876146080E+01 -0.81711205172E+02  0.15400355716E+03  0.12508188552E+03 0.  0.
         23    2    1    2    0    0  0.36394290839E+02  0.83876146080E+01 -0.19610375189E+02  0.99734138362E+02  0.90373862678E+02 0.  0.
          5    1    3    3  502    0 -0.67128929168E+02  0.19946118314E+02 -0.99591176718E+01  0.70857583870E+02  0.41800000000E+01 0. -1.
         -5    1    3    3    0  502  0.30734638330E+02 -0.28333732922E+02 -0.71752087500E+02  0.83145973295E+02  0.41800000000E+01 0. -1.
        -11    1    4    4    0    0  0.59265404312E+02  0.29412393747E+02 -0.18270075550E+02  0.68638711488E+02  0.00000000000E+00 0. -1.
         11    1    4    4    0    0 -0.22871113473E+02 -0.21024779139E+02 -0.13402996392E+01  0.31095426874E+02  0.00000000000E+00 0.  1.
</event>
<event>
 8    1  0.7114239E-009  0.9398036E+02  0.7561462E-02  0.1293489E+00
         -2   -1    0    0    0  501 -0.00000000000E+00  0.00000000000E+00  0.39597776922E+02  0.39597776922E+02  0.00000000000E+00 0. -1.
          2   -1    0    0  501    0  0.00000000000E+00 -0.00000000000E+00 -0.36109146899E+03  0.36109146899E+03  0.00000000000E+00 0.  1.
         25    2    1    2    0    0 -0.29611359182E+02  0.35266999739E+02 -0.15355995511E+03  0.20334413169E+03  0.12509029625E+03 0.  0.
         23    2    1    2    0    0  0.29611359182E+02 -0.35266999739E+02 -0.16793373696E+03  0.19734511423E+03  0.92858818833E+02 0.  0.
          5    1    3    3  502    0  0.48192647372E+02  0.98830534692E+01 -0.75215311578E+02  0.89972337429E+02  0.41800000000E+01 0.  1.
         -5    1    3    3    0  502 -0.77804006553E+02  0.25383946270E+02 -0.78344643528E+02  0.11337179426E+03  0.41800000000E+01 0.  1.
        -11    1    4    4    0    0  0.20159418048E+02 -0.31098544880E-01  0.48643101968E+01  0.20737999345E+02  0.00000000000E+00 0. -1.
         11    1    4    4    0    0  0.94519411343E+01 -0.35235901194E+02 -0.17279804716E+03  0.17660711488E+03  0.00000000000E+00 0.  1.
</event>
<event>
 8    1  0.7114239E-009  0.8801665E+02  0.7561462E-02  0.1307727E+00
         -2   -1    0    0    0  501 -0.00000000000E+00  0.00000000000E+00  0.24094434081E+02  0.24094434081E+02  0.00000000000E+00 0.  1.
          2   -1    0    0  501    0  0.00000000000E+00 -0.00000000000E+00 -0.68926689020E+03  0.68926689020E+03  0.00000000000E+00 0. -1.
         25    2    1    2    0    0  0.63438315676E+02  0.84369513557E+01 -0.42412068681E+03  0.44679036452E+03  0.12509065035E+03 0.  0.
         23    2    1    2    0    0 -0.63438315676E+02 -0.84369513557E+01 -0.24105176930E+03  0.26657095975E+03  0.94119705989E+02 0.  0.
          5    1    3    3  502    0  0.64110002611E+02  0.98407869764E+01 -0.81972382311E+02  0.10461298861E+03  0.41800000000E+01 0.  1.
         -5    1    3    3    0  502 -0.67168693519E+00 -0.14038356207E+01 -0.34214830450E+03  0.34217737592E+03  0.41800000000E+01 0.  1.
        -11    1    4    4    0    0 -0.67690087714E+02 -0.37378997547E+02 -0.21059171346E+03  0.22433904522E+03  0.00000000000E+00 0.  1.
         11    1    4    4    0    0  0.42517720383E+01  0.28942046191E+02 -0.30460055848E+02  0.42231914537E+02  0.00000000000E+00 0. -1.
</event>
<event>
 8    1  0.7114239E-009  0.1651375E+03  0.7561462E-02  0.1183016E+00
          1   -1    0    0  501    0  0.00000000000E+00  0.00000000000E+00  0.11679658897E+04  0.11679658897E+04  0.00000000000E+00 0. -1.
         -1   -1    0    0    0  501 -0.00000000000E+00 -0.00000000000E+00 -0.37450092710E+02  0.37450092710E+02  0.00000000000E+00 0.  1.
         25    2    1    2    0    0  0.11772841029E+03 -0.52080029131E+02  0.23588214216E+03  0.29641342309E+03  0.12509286300E+03 0.  0.
         23    2    1    2    0    0 -0.11772841029E+03  0.52080029131E+02  0.89463365487E+03  0.90900255936E+03  0.96664204711E+02 0.  0.
          5    1    3    3  502    0  0.10290728745E+03 -0.85785486450E+02  0.21639475467E+03  0.25454512713E+03  0.41800000000E+01 0.  1.
         -5    1    3    3    0  502  0.14821122841E+02  0.33705457319E+02  0.19487387490E+02  0.41868295960E+02  0.41800000000E+01 0.  1.
        -11    1    4    4    0    0  0.10722991654E+02  0.25975769832E+02  0.11221199683E+03  0.11567737636E+03  0.00000000000E+00 0.  1.
         11    1    4    4    0    0 -0.12845140195E+03  0.26104259299E+02  0.78242165803E+03  0.79332518300E+03  0.00000000000E+00 0. -1.
</event>
<event>
 8    1  0.7114239E-009  0.1095356E+03  0.7561462E-02  0.1261432E+00
         -2   -1    0    0    0  501 -0.00000000000E+00  0.00000000000E+00  0.31650566355E+02  0.31650566355E+02  0.00000000000E+00 0.  1.
          2   -1    0    0  501    0  0.00000000000E+00 -0.00000000000E+00 -0.80819451074E+03  0.80819451074E+03  0.00000000000E+00 0. -1.
         25    2    1    2    0    0  0.43539473793E+02  0.85608051403E+02 -0.58830038295E+03  0.60907241748E+03  0.12508974744E+03 0.  0.
         23    2    1    2    0    0 -0.43539473793E+02 -0.85608051403E+02 -0.18824356144E+03  0.23077265962E+03  0.92714388099E+02 0.  0.
          5    1    3    3  502    0  0.35260142600E+02  0.42463749742E+02 -0.54305820264E+03  0.54587190032E+03  0.41800000000E+01 0. -1.
         -5    1    3    3    0  502  0.82793311925E+01  0.43144301661E+02 -0.45242180308E+02  0.63200517164E+02  0.41800000000E+01 0. -1.
        -11    1    4    4    0    0  0.13313094037E+02 -0.51712272687E+02 -0.35003582487E+02  0.63848636683E+02  0.00000000000E+00 0.  1.
         11    1    4    4    0    0 -0.56852567830E+02 -0.33895778716E+02 -0.15323997895E+03  0.16692402293E+03  0.00000000000E+00 0. -1.
</event>
<event>
 8    1  0.7114239E-009  0.9187958E+02  0.7561462E-02  0.1298363E+00
          3   -1    0    0  501    0  0.00000000000E+00  0.00000000000E+00  0.21937171683E+03  0.21937171683E+03  0.00000000000E+00 0. -1.
         -3   -1    0    0    0  501 -0.00000000000E+00 -0.00000000000E+00 -0.77261461981E+02  0.77261461981E+02  0.00000000000E+00 0.  1.
         25    2    1    2    0    0  0.30612085892E+02 -0.64400348903E+02  0.84302723907E+02  0.16684867576E+03  0.12508807538E+03 0.  0.
         23    2    1    2    0    0 -0.30612085892E+02  0.64400348903E+02  0.57807530938E+02  0.12978450305E+03  0.91748579587E+02 0.  0.
          5    1    3    3  502    0  0.51017545949E+01 -0.30891656621E+02 -0.30857253439E+02  0.44158406205E+02  0.41800000000E+01 0.  1.
         -5    1    3    3    0  502  0.25510331297E+02 -0.33508692282E+02  0.11515997735E+03  0.12269026956E+03  0.41800000000E+01 0.  1.
        -11    1    4    4    0    0 -0.59342767639E+02  0.35770034700E+02  0.15159286629E+02  0.70928579744E+02  0.00000000000E+00 0.  1.
         11    1    4    4    0    0  0.28730681747E+02  0.28630314204E+02  0.42648244309E+02  0.58855923302E+02  0.00000000000E+00 0. -1.
</event>
<event>
 8    1  0.7114239E-009  0.1201118E+03  0.7561462E-02  0.1242913E+00
          4   -1    0    0  501    0  0.00000000000E+00  0.00000000000E+00  0.73500344897E+02  0.73500344897E+02  0.00000000000E+00 0. -1.
         -4   -1    0    0    0  501 -0.00000000000E+00 -0.00000000000E+00 -0.34502433232E+03  0.34502433232E+03  0.00000000000E+00 0.  1.
         25    2    1    2    0    0  0.29178363861E+02 -0.73893523121E+02 -0.25716574676E+03  0.29680006281E+03  0.12507768105E+03 0.  0.
         23    2    1    2    0    0 -0.29178363861E+02  0.73893523121E+02 -0.14358240658E+02  0.12172461441E+03  0.91099357853E+02 0.  0.
          5    1    3    3  502    0  0.60042537781E+02 -0.31137680207E+02 -0.53390376217E+02  0.86270888163E+02  0.41800000000E+01 0.  1.
         -5    1    3    3    0  502 -0.30864173921E+02 -0.42755842914E+02 -0.20377537054E+03  0.21052917464E+03  0.41800000000E+01 0.  1.
        -11    1    4    4    0    0 -0.57520617716E+02  0.70542622146E+02 -0.31889303708E+01  0.91077177594E+02  0.00000000000E+00 0. -1.
         11    1    4    4    0    0  0.28342253856E+02  0.33509009755E+01 -0.11169310288E+02  0.30647436814E+02  0.00000000000E+00 0.  1.
</event>
<event>
 8    1  0.7114239E-009  0.1183531E+03  0.7561462E-02  0.1245839E+00
          2   -1    0    0  501    0  0.00000000000E+00  0.00000000000E+00  0.45016015825E+02  0.45016015825E+02  0.00000000000E+00 0.  1.
         -2   -1    0    0    0  501 -0.00000000000E+00 -0.00000000000E+00 -0.36154144846E+03  0.36154144846E+03  0.00000000000E+00 0. -1.
         25    2    1    2    0    0 -0.22633412246E+02 -0.47882600669E+02 -0.24159000118E+03  0.27715885889E+03  0.12508512939E+03 0.  0.
         23    2    1    2    0    0  0.22633412246E+02  0.47882600669E+02 -0.74935431453E+02  0.12939860539E+03  0.91234124064E+02 0.  0.
          5    1    3    3  502    0  0.38916580139E+02 -0.60876225615E+02 -0.13988984614E+03  0.15750256032E+03  0.41800000000E+01 0. -1.
         -5    1    3    3    0  502 -0.61549992386E+02  0.12993624946E+02 -0.10170015505E+03  0.11965629857E+03  0.41800000000E+01 0. -1.
        -11    1    4    4    0    0  0.29725173699E+02 -0.18180995575E+02 -0.94377154919E+01  0.36099931097E+02  0.00000000000E+00 0.  1.
         11    1    4    4    0    0 -0.70917614525E+01  0.66063596244E+02 -0.65497715961E+02  0.93298674295E+02  0.00000000000E+00 0. -1.
</event>
<event>
 8    1  0.7114239E-009  0.3092113E+03  0.7561462E-02  0.1080725E+00
          2   -1    0    0  501    0  0.00000000000E+00  0.00000000000E+00  0.15402420228E+03  0.15402420228E+03  0.00000000000E+00 0. -1.
         -2   -1    0    0    0  501 -0.00000000000E+00 -0.00000000000E+00 -0.64836549508E+03  0.64836549508E+03  0.00000000000E+00 0.  1.
         25    2    1    2    0    0  0.26036672389E+03 -0.14089823946E+03 -0.24919403851E+03  0.40668011571E+03  0.12509157803E+03 0.  0.
         23    2    1    2    0    0 -0.26036672389E+03  0.14089823946E+03 -0.24514725428E+03  0.39570958165E+03  0.94051857692E+02 0.  0.
          5    1    3    3  502    0  0.13209743717E+02 -0.59480713448E+02 -0.50495075134E+02  0.79244416927E+02  0.41800000000E+01 0. -1.
         -5    1    3    3    0  502  0.24715698017E+03 -0.81417526009E+02 -0.19869896338E+03  0.32743569878E+03  0.41800000000E+01 0. -1.
        -11    1    4    4    0    0 -0.19057704093E+03  0.90273222329E+02 -0.22252849536E+03  0.30657428863E+03  0.00000000000E+00 0.  1.
         11    1    4    4    0    0 -0.69789682961E+02  0.50625017128E+02 -0.22618758919E+02  0.89135293022E+02  0.00000000000E+00 0. -1.
</event>
<event>
 8    1  0.7114239E-009  0.1024205E+03  0.7561462E-02  0.1275287E+00
         -1   -1    0    0    0  501 -0.00000000000E+00  0.00000000000E+00  0.10872814864E+03  0.10872814864E+03  0.00000000000E+00 0.  1.
          1   -1    0    0  501    0  0.00000000000E+00 -0.00000000000E+00 -0.13297808559E+03  0.13297808559E+03  0.00000000000E+00 0. -1.
         25    2    1    2    0    0  0.53321924867E+02 -0.11420536865E+02 -0.20969653157E+02  0.13806033764E+03  0.12508906484E+03 0.  0.
         23    2    1    2    0    0 -0.53321924867E+02  0.11420536865E+02 -0.32802837910E+01  0.10364589659E+03  0.88079823368E+02 0.  0.
          5    1    3    3  502    0  0.28059197726E+02 -0.68152197445E+02 -0.16601261633E+02  0.75664488906E+02  0.41800000000E+01 0. -1.
         -5    1    3    3    0  502  0.25262727140E+02  0.56731660580E+02 -0.43683915235E+01  0.62395848734E+02  0.41800000000E+01 0. -1.
        -11    1    4    4    0    0 -0.53820282739E+02  0.22031341926E+02  0.32293699930E+02  0.66519815967E+02  0.00000000000E+00 0.  1.
         11    1    4    4    0    0  0.49835787205E+00 -0.10610805061E+02 -0.35573983721E+02  0.37126080623E+02  0.00000000000E+00 0. -1.
</event>
<event>
 8    1  0.7114239E-009  0.1919047E+03  0.7561462E-02  0.1156755E+00
          2   -1    0    0  501    0  0.00000000000E+00  0.00000000000E+00  0.10829494768E+04  0.10829494768E+04  0.00000000000E+00 0. -1.
         -2   -1    0    0    0  501 -0.00000000000E+00 -0.00000000000E+00 -0.41681380486E+02  0.41681380486E+02  0.00000000000E+00 0.  1.
         25    2    1    2    0    0  0.64579057517E+02  0.16857478442E+03  0.61441954285E+03  0.65248998389E+03  0.12507554447E+03 0.  0.
         23    2    1    2    0    0 -0.64579057517E+02 -0.16857478442E+03  0.42684855345E+03  0.47214087339E+03  0.90163208283E+02 0.  0.
          5    1    3    3  502    0 -0.18060412971E+02  0.38408482119E+01  0.11809095261E+02  0.22312726471E+02  0.41800000000E+01 0. -1.
         -5    1    3    3    0  502  0.82639470487E+02  0.16473393621E+03  0.60261044759E+03  0.63017725742E+03  0.41800000000E+01 0. -1.
        -11    1    4    4    0    0 -0.43397280906E+02 -0.11563959333E+03  0.37592004472E+03  0.39569144489E+03  0.00000000000E+00 0.  1.
         11    1    4    4    0    0 -0.21181776611E+02 -0.52935191090E+02  0.50928508728E+02  0.76449428496E+02  0.00000000000E+00 0. -1.
</event>
<event>
 8    1  0.7114239E-009  0.1253932E+03  0.7561462E-02  0.1234456E+00
         -2   -1    0    0    0  501 -0.00000000000E+00  0.00000000000E+00  0.18966217841E+02  0.18966217841E+02  0.00000000000E+00 0. -1.
          2   -1    0    0  501    0  0.00000000000E+00 -0.00000000000E+00 -0.12685186230E+04  0.12685186230E+04  0.00000000000E+00 0.  1.
         25    2    1    2    0    0 -0.21328369736E+02 -0.62461253908E+02 -0.10389621949E+04  0.10485452344E+04  0.12509339947E+03 0.  0.
         23    2    1    2    0    0  0.21328369736E+02  0.62461253908E+02 -0.21059021032E+03  0.23893960649E+03  0.91583793708E+02 0.  0.
          5    1    3    3  502    0  0.52014408226E+02 -0.35808602372E+02 -0.46867193485E+03  0.47292558567E+03  0.41800000000E+01 0.  1.
         -5    1    3    3    0  502 -0.73342777962E+02 -0.26652651537E+02 -0.57029026003E+03  0.57561964873E+03  0.41800000000E+01 0.  1.
        -11    1    4    4    0    0 -0.26979464104E+02  0.53922689929E+02 -0.85926757097E+02  0.10497121300E+03  0.00000000000E+00 0.  1.
         11    1    4    4    0    0  0.48307833840E+02  0.85385639794E+01 -0.12466345323E+03  0.13396839349E+03  0.00000000000E+00 0. -1.
</event>
<event>
 8    1  0.7114239E-009  0.1595079E+03  0.7561462E-02  0.1189253E+00
          2   -1    0    0  501    0  0.00000000000E+00  0.00000000000E+00  0.10153725990E+04  0.10153725990E+04  0.00000000000E+00 0. -1.
         -2   -1    0    0    0  501 -0.00000000000E+00 -0.00000000000E+00 -0.25613475425E+02  0.25613475425E+02  0.00000000000E+00 0.  1.
         25    2    1    2    0    0  0.10469044394E+03 -0.55132353577E+02  0.57214421613E+03  0.59749233440E+03  0.12509364553E+03 0.  0.
         23    2    1    2    0    0 -0.10469044394E+03  0.55132353577E+02  0.41761490739E+03  0.44349373997E+03  0.91020992383E+02 0.  0.
          5    1    3    3  502    0  0.12210384747E+02 -0.74270719622E+02  0.20662408520E+03  0.21994594398E+03  0.41800000000E+01 0. -1.
         -5    1    3    3    0  502  0.92480059197E+02  0.19138366045E+02  0.36552013093E+03  0.37754639042E+03  0.41800000000E+01 0. -1.
        -11    1    4    4    0    0 -0.92083913299E+02 -0.47143916328E+00  0.26837912962E+03  0.28373760159E+03  0.00000000000E+00 0.  1.
         11    1    4    4    0    0 -0.12606530646E+02  0.55603792740E+02  0.14923577778E+03  0.15975613838E+03  0.00000000000E+00 0. -1.
</event>
<event>
 8    1  0.7114239E-009  0.2155976E+03  0.7561462E-02  0.1137208E+00
         -1   -1    0    0    0  501 -0.00000000000E+00  0.00000000000E+00  0.23402573724E+02  0.23402573724E+02  0.00000000000E+00 0.  1.
          1   -1    0    0  501    0  0.00000000000E+00 -0.00000000000E+00 -0.31613767340E+04  0.31613767340E+04  0.00000000000E+00 0. -1.
         25    2    1    2    0    0 -0.61487786351E+01  0.20146661020E+03 -0.24642545026E+04  0.24756464183E+04  0.12509329469E+03 0.  0.
         23    2    1    2    0    0  0.61487786351E+01 -0.20146661020E+03 -0.67371965774E+03  0.70913288948E+03  0.91349193829E+02 0.  0.
          5    1    3    3  502    0 -0.54753519664E+02  0.12334230478E+03 -0.10939750232E+04  0.11022749638E+04  0.41800000000E+01 0. -1.
         -5    1    3    3    0  502  0.48604741029E+02  0.78124305421E+02 -0.13702794794E+04  0.13733714545E+04  0.41800000000E+01 0. -1.
        -11    1    4    4    0    0 -0.12422142348E+02 -0.11306886529E+03 -0.50608910956E+03  0.51871482024E+03  0.00000000000E+00 0.  1.
         11    1    4    4    0    0  0.18570920983E+02 -0.88397744910E+02 -0.16763054818E+03  0.19041806925E+03  0.00000000000E+00 0. -1.
</event>
<event>
 8    1  0.7114239E-009  0.3068900E+03  0.7561462E-02  0.1081846E+00
         -2   -1    0    0    0  501 -0.00000000000E+00  0.00000000000E+00  0.75081417151E+02  0.75081417151E+02  0.00000000000E+00 0. -1.
          2   -1    0    0  501    0  0.00000000000E+00 -0.00000000000E+00 -0.12906805729E+04  0.12906805729E+04  0.00000000000E+00 0.  1.
         25    2    1    2    0    0 -0.21384708969E+03 -0.19755704874E+03 -0.64376414256E+03  0.71752344605E+03  0.12509300187E+03 0.  0.
         23    2    1    2    0    0  0.21384708969E+03  0.19755704874E+03 -0.57183501323E+03  0.64823854404E+03  0.91970442759E+02 0.  0.
          5    1    3    3  502    0 -0.71614570171E+02 -0.90381706078E+01 -0.89673049632E+02  0.11519142077E+03  0.41800000000E+01 0.  1.
         -5    1    3    3    0  502 -0.14223251952E+03 -0.18851887813E+03 -0.55409109292E+03  0.60233202528E+03  0.41800000000E+01 0.  1.
        -11    1    4    4    0    0 -0.38323158565E+01  0.30889351361E+02 -0.61202160236E+02  0.68662530465E+02  0.00000000000E+00 0.  1.
         11    1    4    4    0    0  0.21767940555E+03  0.16666769738E+03 -0.51063285299E+03  0.57957601357E+03  0.00000000000E+00 0. -1.
</event>
<event>
 8    1  0.7114239E-009  0.1209833E+03  0.7561462E-02  0.1241484E+00
         -1   -1    0    0    0  501 -0.00000000000E+00  0.00000000000E+00  0.30418557968E+03  0.30418557968E+03  0.00000000000E+00 0.  1.
          1   -1    0    0  501    0  0.00000000000E+00 -0.00000000000E+00 -0.91692899098E+02  0.91692899098E+02  0.00000000000E+00 0. -1.
         25    2    1    2    0    0  0.40124248158E+02 -0.34745702544E+02 -0.21695803394E+02  0.13760584387E+03  0.12508973277E+03 0.  0.
         23    2    1    2    0    0 -0.40124248158E+02  0.34745702544E+02  0.23418848397E+03  0.25827263491E+03  0.95096208030E+02 0.  0.
          5    1    3    3  502    0 -0.28831248480E+02  0.27891172529E+02 -0.18311083016E+02  0.44293640121E+02  0.41800000000E+01 0.  1.
         -5    1    3    3    0  502  0.68955496638E+02 -0.62636875073E+02 -0.33847203778E+01  0.93312203744E+02  0.41800000000E+01 0.  1.
        -11    1    4    4    0    0 -0.39850656520E+02 -0.26036008688E+02  0.90459291455E+02  0.10221952839E+03  0.00000000000E+00 0.  1.
         11    1    4    4    0    0 -0.27359163771E+00  0.60781711233E+02  0.14372919252E+03  0.15605310652E+03  0.00000000000E+00 0. -1.
</event>
<event>
 8    1  0.7114239E-009  0.1058864E+03  0.7561462E-02  0.1268383E+00
         -1   -1    0    0    0  501 -0.00000000000E+00  0.00000000000E+00  0.51065410675E+02  0.51065410675E+02  0.00000000000E+00 0. -1.
          1   -1    0    0  501    0  0.00000000000E+00 -0.00000000000E+00 -0.65923088333E+03  0.65923088333E+03  0.00000000000E+00 0.  1.
         25    2    1    2    0    0 -0.63972822779E+02 -0.56819845272E+02 -0.55235224537E+03  0.57276668648E+03  0.12509059640E+03 0.  0.
         23    2    1    2    0    0  0.63972822779E+02  0.56819845272E+02 -0.55813227285E+02  0.13752960752E+03  0.92077465941E+02 0.  0.
          5    1    3    3  502    0 -0.46428500432E+01 -0.51198944864E+02 -0.45930081792E+03  0.46218784250E+03  0.41800000000E+01 0.  1.
         -5    1    3    3    0  502 -0.59329972736E+02 -0.56209004085E+01 -0.93051427450E+02  0.11057884398E+03  0.41800000000E+01 0.  1.
        -11    1    4    4    0    0 -0.82723851941E+01  0.14583731955E+02 -0.51022927491E+02  0.53707138486E+02  0.00000000000E+00 0.  1.
         11    1    4    4    0    0  0.72245207973E+02  0.42236113317E+02 -0.47902997936E+01  0.83822469037E+02  0.00000000000E+00 0. -1.
</event>
<event>
 8    1  0.7114239E-009  0.2025745E+03  0.7561462E-02  0.1147585E+00
         -2   -1    0    0    0  501 -0.00000000000E+00  0.00000000000E+00  0.47239164868E+02  0.47239164868E+02  0.00000000000E+00 0.  1.
          2   -1    0    0  501    0  0.00000000000E+00 -0.00000000000E+00 -0.97521065186E+03  0.97521065186E+03  0.00000000000E+00 0. -1.
         25    2    1    2    0    0 -0.53079345890E+02  0.17380728436E+03 -0.56487332286E+03  0.60642850608E+03  0.12508906050E+03 0.  0.
         23    2    1    2    0    0  0.53079345890E+02 -0.17380728436E+03 -0.36309816413E+03  0.41602131064E+03  0.90592853244E+02 0.  0.
          5    1    3    3  502    0 -0.69190111543E+01  0.17390213741E+03 -0.45586986203E+03  0.48798015289E+03  0.41800000000E+01 0. -1.
         -5    1    3    3    0  502 -0.46160334736E+02 -0.94853059134E-01 -0.10900346083E+03  0.11844835319E+03  0.41800000000E+01 0. -1.
        -11    1    4    4    0    0  0.34431600201E+02 -0.15274952750E+03 -0.21909278691E+03  0.26929463887E+03  0.00000000000E+00 0.  1.
         11    1    4    4    0    0  0.18647745689E+02 -0.21057756851E+02 -0.14400537722E+03  0.14672667177E+03  0.00000000000E+00 0. -1.
</event>
<event>
 8    1  0.7114239E-009  0.1293358E+03  0.7561462E-02  0.1228445E+00
         -2   -1    0    0    0  501 -0.00000000000E+00  0.00000000000E+00  0.30736098745E+03  0.30736098745E+03  0.00000000000E+00 0.  1.
          2   -1    0    0  501    0  0.00000000000E+00 -0.00000000000E+00 -0.74278731838E+02  0.74278731838E+02  0.00000000000E+00 0. -1.
         25    2    1    2    0    0  0.91185651395E+02 -0.46765716161E+02  0.15233138411E+03  0.22215859204E+03  0.12509090377E+03 0.  0.
         23    2    1    2    0    0 -0.91185651395E+02  0.46765716161E+02  0.80750871506E+02  0.15948112725E+03  0.91715164895E+02 0.  0.
          5    1    3    3  502    0  0.67721729713E+02  0.25317362913E+02  0.30441584582E+02  0.78558029584E+02  0.41800000000E+01 0.  1.
         -5    1    3    3    0  502  0.23463921682E+02 -0.72083079074E+02  0.12188979953E+03  0.14360056246E+03  0.41800000000E+01 0.  1.
        -11    1    4    4    0    0 -0.54613063136E+01  0.19687815677E+02  0.65098538174E+02  0.68229433715E+02  0.00000000000E+00 0.  1.
         11    1    4    4    0    0 -0.85724345081E+02  0.27077900484E+02  0.15652333332E+02  0.91251693535E+02  0.00000000000E+00 0. -1.
</event>
<event>
 8    1  0.7114239E-009  0.1096727E+03  0.7561462E-02  0.1261177E+00
         -1   -1    0    0    0  501 -0.00000000000E+00  0.00000000000E+00  0.36704145919E+02  0.36704145919E+02  0.00000000000E+00 0.  1.
          1   -1    0    0  501    0  0.00000000000E+00 -0.00000000000E+00 -0.57458326393E+03  0.57458326393E+03  0.00000000000E+00 0. -1.
         25    2    1    2    0    0  0.77965302897E+02 -0.50698965703E+02 -0.23680849017E+03  0.28350446209E+03  0.12509014921E+03 0.  0.
         23    2    1    2    0    0 -0.77965302897E+02  0.50698965703E+02 -0.30107062784E+03  0.32778294776E+03  0.90272721861E+02 0.  0.
          5    1    3    3  502    0  0.70438128523E+02 -0.73360991825E+02 -0.93674512577E+02  0.13833203453E+03  0.41800000000E+01 0. -1.
         -5    1    3    3    0  502  0.75271743744E+01  0.22662026122E+02 -0.14313397759E+03  0.14517242756E+03  0.41800000000E+01 0. -1.
        -11    1    4    4    0    0 -0.70832506424E+02  0.43207090401E+02 -0.30547326593E+03  0.31654069695E+03  0.00000000000E+00 0. -1.
         11    1    4    4    0    0 -0.71327964727E+01  0.74918753019E+01  0.44026380892E+01  0.11242250807E+02  0.00000000000E+00 0.  1.
</event>
<event>
 8    1  0.7114239E-009  0.9797973E+02  0.7561462E-02  0.1284603E+00
         -1   -1    0    0    0  501 -0.00000000000E+00  0.00000000000E+00  0.18137693112E+02  0.18137693112E+02  0.00000000000E+00 0.  1.
          1   -1    0    0  501    0  0.00000000000E+00 -0.00000000000E+00 -0.81172487554E+03  0.81172487554E+03  0.00000000000E+00 0. -1.
         25    2    1    2    0    0  0.19656715594E+02  0.24410217667E+02 -0.60312053162E+03  0.61675287375E+03  0.12508991335E+03 0.  0.
         23    2    1    2    0    0 -0.19656715594E+02 -0.24410217667E+02 -0.19046665081E+03  0.21310969490E+03  0.90310308365E+02 0.  0.
          5    1    3    3  502    0  0.12268125981E+01  0.69524315932E+02 -0.22651956397E+03  0.23698886226E+03  0.41800000000E+01 0.  1.
         -5    1    3    3    0  502  0.18429902996E+02 -0.45114098265E+02 -0.37660096765E+03  0.37976401148E+03  0.41800000000E+01 0.  1.
        -11    1    4    4    0    0  0.21164121911E+02  0.10543874598E+02 -0.11586965199E+02  0.26331561107E+02  0.00000000000E+00 0.  1.
         11    1    4    4    0    0 -0.40820837505E+02 -0.34954092265E+02 -0.17887968561E+03  0.18677813379E+03  0.00000000000E+00 0. -1.
</event>
<event>
 8    1  0.7114239E-009  0.1263194E+03  0.7561462E-02  0.1233022E+00
         -2   -1    0    0    0  501 -0.00000000000E+00  0.00000000000E+00  0.46881050744E+03  0.46881050744E+03  0.00000000000E+00 0.  1.
          2   -1    0    0  501    0  0.00000000000E+00 -0.00000000000E+00 -0.41409789865E+02  0.41409789865E+02  0.00000000000E+00 0. -1.
         25    2    1    2    0    0 -0.46617061161E+02  0.72669409196E+02  0.22520191857E+03  0.27169353217E+03  0.12508987916E+03 0.  0.
         23    2    1    2    0    0  0.46617061161E+02 -0.72669409196E+02  0.20219879900E+03  0.23852676514E+03  0.92502269949E+02 0.  0.
          5    1    3    3  502    0 -0.64264531067E+02  0.91269700788E+02  0.21764838314E+03  0.24463928409E+03  0.41800000000E+01 0. -1.
         -5    1    3    3    0  502  0.17647469906E+02 -0.18600291593E+02  0.75535354284E+01  0.27054248075E+02  0.41800000000E+01 0. -1.
        -11    1    4    4    0    0  0.63246468466E+02 -0.31709221585E+02  0.16909259847E+03  0.18329729230E+03  0.00000000000E+00 0.  1.
         11    1    4    4    0    0 -0.16629407305E+02 -0.40960187611E+02  0.33106200530E+02  0.55229472838E+02  0.00000000000E+00 0. -1.
</event>
<event>
 8    1  0.7114239E-009  0.5399821E+02  0.7561462E-02  0.1424897E+00
         -1   -1    0    0    0  501 -0.00000000000E+00  0.00000000000E+00  0.16516844104E+03  0.16516844104E+03  0.00000000000E+00 0.  1.
          1   -1    0    0  501    0  0.00000000000E+00 -0.00000000000E+00 -0.86338173611E+02  0.86338173611E+02  0.00000000000E+00 0. -1.
         25    2    1    2    0    0  0.73998336090E+01  0.32784248853E+02  0.86416866094E+02  0.15572322920E+03  0.12510909182E+03 0.  0.
         23    2    1    2    0    0 -0.73998336090E+01 -0.32784248853E+02 -0.75865986672E+01  0.95783385450E+02  0.89371896805E+02 0.  0.
          5    1    3    3  502    0 -0.13491500554E+00  0.62715186021E+01  0.11532024400E+03  0.11556634988E+03  0.41800000000E+01 0.  1.
         -5    1    3    3    0  502  0.75347486146E+01  0.26512730251E+02 -0.28903377909E+02  0.40156879319E+02  0.41800000000E+01 0.  1.
        -11    1    4    4    0    0 -0.20298713333E+02 -0.48306697729E+02  0.24526855750E+02  0.57854485231E+02  0.00000000000E+00 0.  1.
         11    1    4    4    0    0  0.12898879724E+02  0.15522448876E+02 -0.32113454417E+02  0.37928900219E+02  0.00000000000E+00 0. -1.
</event>
<event>
 8    1  0.7114239E-009  0.1019965E+03  0.7561462E-02  0.1276153E+00
          2   -1    0    0  501    0  0.00000000000E+00  0.00000000000E+00  0.22670687960E+03  0.22670687960E+03  0.00000000000E+00 0. -1.
         -2   -1    0    0    0  501 -0.00000000000E+00 -0.00000000000E+00 -0.78568704483E+02  0.78568704483E+02  0.00000000000E+00 0.  1.
         25    2    1    2    0    0 -0.28755825838E+02  0.72845035921E+02  0.77912130090E+02  0.16689524703E+03  0.12510166541E+03 0.  0.
         23    2    1    2    0    0  0.28755825838E+02 -0.72845035921E+02  0.70226045023E+02  0.13838033705E+03  0.89911753978E+02 0.  0.
          5    1    3    3  502    0  0.31577791104E+02  0.37886339192E+02 -0.14010143625E+02  0.51442085035E+02  0.41800000000E+01 0. -1.
         -5    1    3    3    0  502 -0.60333616942E+02  0.34958696729E+02  0.91922273714E+02  0.11545316200E+03  0.41800000000E+01 0. -1.
        -11    1    4    4    0    0  0.33309948513E+02 -0.42712271146E+02  0.87827867916E+02  0.10318733042E+03  0.00000000000E+00 0. -1.
         11    1    4    4    0    0 -0.45541226745E+01 -0.30132764775E+02 -0.17601822893E+02  0.35193006627E+02  0.00000000000E+00 0.  1.
</event>
<event>
 8    1  0.7114239E-009  0.1672030E+03  0.7561462E-02  0.1180796E+00
          2   -1    0    0  501    0  0.00000000000E+00  0.00000000000E+00  0.57521458612E+03  0.57521458612E+03  0.00000000000E+00 0. -1.
         -2   -1    0    0    0  501 -0.00000000000E+00 -0.00000000000E+00 -0.53312410277E+02  0.53312410277E+02  0.00000000000E+00 0.  1.
         25    2    1    2    0    0 -0.11428774644E+03  0.75373339185E+02  0.28797475517E+03  0.34251951599E+03  0.12508928801E+03 0.  0.
         23    2    1    2    0    0  0.11428774644E+03 -0.75373339185E+02  0.23392742068E+03  0.28600748041E+03  0.91298474571E+02 0.  0.
          5    1    3    3  502    0 -0.13055684822E+03  0.29141937131E+02  0.23340060986E+03  0.26904954971E+03  0.41800000000E+01 0.  1.
         -5    1    3    3    0  502  0.16269101784E+02  0.46231402053E+02  0.54574145308E+02  0.73469966277E+02  0.41800000000E+01 0.  1.
        -11    1    4    4    0    0  0.47303517343E+02  0.40584463658E+01  0.27403424278E+02  0.54818257926E+02  0.00000000000E+00 0.  1.
         11    1    4    4    0    0  0.66984229097E+02 -0.79431785550E+02  0.20652399640E+03  0.23118922248E+03  0.00000000000E+00 0. -1.
</event>
<event>
 8    1  0.7114239E-009  0.2540067E+03  0.7561462E-02  0.1110799E+00
         -4   -1    0    0    0  501 -0.00000000000E+00  0.00000000000E+00  0.37268566590E+03  0.37268566590E+03  0.00000000000E+00 0.  1.
          4   -1    0    0  501    0  0.00000000000E+00 -0.00000000000E+00 -0.21349595084E+03  0.21349595084E+03  0.00000000000E+00 0. -1.
         25    2    1    2    0    0  0.14684390354E+03 -0.18061235321E+03  0.20132416449E+03  0.33220774036E+03  0.12508640778E+03 0.  0.
         23    2    1    2    0    0 -0.14684390354E+03  0.18061235321E+03 -0.42134449426E+02  0.25397387638E+03  0.92430860206E+02 0.  0.
          5    1    3    3  502    0  0.42809979079E+02  0.65409708430E+01  0.65399646173E+02  0.78549759566E+02  0.41800000000E+01 0. -1.
         -5    1    3    3    0  502  0.10403392446E+03 -0.18715332405E+03  0.13592451831E+03  0.25365798080E+03  0.41800000000E+01 0. -1.
        -11    1    4    4    0    0  0.65500383177E+01  0.45368301692E+02 -0.47534793387E+01  0.46084502452E+02  0.00000000000E+00 0. -1.
         11    1    4    4    0    0 -0.15339394186E+03  0.13524405152E+03 -0.37380970088E+02  0.20788937393E+03  0.00000000000E+00 0.  1.
</event>
<event>
 8    1  0.7114239E-009  0.1303768E+03  0.7561462E-02  0.1226898E+00
         -2   -1    0    0    0  501 -0.00000000000E+00  0.00000000000E+00  0.11216512834E+02  0.11216512834E+02  0.00000000000E+00 0.  1.
          2   -1    0    0  501    0  0.00000000000E+00 -0.00000000000E+00 -0.16964932183E+04  0.16964932183E+04  0.00000000000E+00 0. -1.
         25    2    1    2    0    0  0.66126498911E+02 -0.36384450857E+02 -0.11875613948E+04  0.11965146705E+04  0.12509495675E+03 0.  0.
         23    2    1    2    0    0 -0.66126498911E+02  0.36384450857E+02 -0.49771531069E+03  0.51119506064E+03  0.88900604113E+02 0.  0.
          5    1    3    3  502    0  0.38151843757E+01  0.43966138298E+02 -0.36492514120E+03  0.36760768222E+03  0.41800000000E+01 0. -1.
         -5    1    3    3    0  502  0.62311314535E+02 -0.80350589155E+02 -0.82263625359E+03  0.82890698828E+03  0.41800000000E+01 0. -1.
        -11    1    4    4    0    0  0.19912462228E+02  0.17637816669E+02 -0.15957591638E+03  0.16177784711E+03  0.00000000000E+00 0.  1.
         11    1    4    4    0    0 -0.86038961139E+02  0.18746634188E+02 -0.33813939431E+03  0.34941721353E+03  0.00000000000E+00 0. -1.
</event>
<event>
 8    1  0.7114239E-009  0.7116018E+02  0.7561462E-02  0.1356192E+00
         -2   -1    0    0    0  501 -0.00000000000E+00  0.00000000000E+00  0.38918652656E+02  0.38918652656E+02  0.00000000000E+00 0.  1.
          2   -1    0    0  501    0  0.00000000000E+00 -0.00000000000E+00 -0.32973575548E+03  0.32973575548E+03  0.00000000000E+00 0. -1.
         25    2    1    2    0    0 -0.26506753772E+01  0.77812508770E+01 -0.11073392208E+03  0.16726375741E+03  0.12509032376E+03 0.  0.
         23    2    1    2    0    0  0.26506753772E+01 -0.77812508770E+01 -0.18008318074E+03  0.20139065072E+03  0.89781224468E+02 0.  0.
          5    1    3    3  502    0 -0.98885409547E+00 -0.21841506133E+02 -0.12983591648E+03  0.13173028062E+03  0.41800000000E+01 0. -1.
         -5    1    3    3    0  502 -0.16618212817E+01  0.29622757010E+02  0.19101994404E+02  0.35533476793E+02  0.41800000000E+01 0. -1.
        -11    1    4    4    0    0  0.35206743538E+02  0.25553675163E+02 -0.90583367615E+02  0.10048806692E+03  0.00000000000E+00 0. -1.
         11    1    4    4    0    0 -0.32556068161E+02 -0.33334926040E+02 -0.89499813127E+02  0.10090258380E+03  0.00000000000E+00 0.  1.
</event>
<event>
 8    1  0.7114239E-009  0.1260072E+03  0.7561462E-02  0.1233504E+00
          2   -1    0    0  501    0  0.00000000000E+00  0.00000000000E+00  0.23691608924E+03  0.23691608924E+03  0.00000000000E+00 0. -1.
         -2   -1    0    0    0  501 -0.00000000000E+00 -0.00000000000E+00 -0.13490117933E+03  0.13490117933E+03  0.00000000000E+00 0.  1.
         25    2    1    2    0    0 -0.87658576718E+02  0.62209533829E+02 -0.40595897725E+02  0.16985277247E+03  0.12509150743E+03 0.  0.
         23    2    1    2    0    0  0.87658576718E+02 -0.62209533829E+02  0.14261080764E+03  0.20196449611E+03  0.94327954824E+02 0.  0.
          5    1    3    3  502    0  0.42973445121E+01  0.30645316697E+02 -0.62714565991E+02  0.70058488370E+02  0.41800000000E+01 0.  1.
         -5    1    3    3    0  502 -0.91955921231E+02  0.31564217132E+02  0.22118668265E+02  0.99794284097E+02  0.41800000000E+01 0.  1.
        -11    1    4    4    0    0 -0.58267535728E+01 -0.20130648382E+02 -0.56551229974E+01  0.21706553794E+02  0.00000000000E+00 0.  1.
         11    1    4    4    0    0  0.93485330291E+02 -0.42078885447E+02  0.14826593063E+03  0.18025794231E+03  0.00000000000E+00 0. -1.
</event>
<event>
 8    1  0.7114239E-009  0.1532117E+03  0.7561462E-02  0.1196581E+00
         -2   -1    0    0    0  501 -0.00000000000E+00  0.00000000000E+00  0.42314893701E+02  0.42314893701E+02  0.00000000000E+00 0.  1.
          2   -1    0    0  501    0  0.00000000000E+00 -0.00000000000E+00 -0.69604517116E+03  0.69604517116E+03  0.00000000000E+00 0. -1.
         25    2    1    2    0    0 -0.10793254583E+03  0.62377808795E+02 -0.25023871110E+03  0.30627983466E+03  0.12508996405E+03 0.  0.
         23    2    1    2    0    0  0.10793254583E+03 -0.62377808795E+02 -0.40349156636E+03  0.43208023020E+03  0.91364411709E+02 0.  0.
          5    1    3    3  502    0 -0.11487866185E+03  0.28625805200E+02 -0.10948891305E+03  0.16131285798E+03  0.41800000000E+01 0.  1.
         -5    1    3    3    0  502  0.69461160147E+01  0.33752003595E+02 -0.14074979805E+03  0.14496697667E+03  0.41800000000E+01 0.  1.
        -11    1    4    4    0    0  0.92388655727E+02 -0.36117904662E+01 -0.21525591107E+03  0.23427295189E+03  0.00000000000E+00 0.  1.
         11    1    4    4    0    0  0.15543890106E+02 -0.58766018328E+02 -0.18823565529E+03  0.19780727831E+03  0.00000000000E+00 0. -1.
</event>
<event>
 8    1  0.7114239E-009  0.1070415E+03  0.7561462E-02  0.1266149E+00
          4   -1    0    0  501    0  0.00000000000E+00  0.00000000000E+00  0.22133227340E+03  0.22133227340E+03  0.00000000000E+00 0. -1.
         -4   -1    0    0    0  501 -0.00000000000E+00 -0.00000000000E+00 -0.83602488448E+02  0.83602488448E+02  0.00000000000E+00 0.  1.
         25    2    1    2    0    0 -0.44624239081E+02  0.62844362064E+02  0.10166798154E+03  0.17867387381E+03  0.12508892099E+03 0.  0.
         23    2    1    2    0    0  0.44624239081E+02 -0.62844362064E+02  0.36061803410E+02  0.12626088804E+03  0.93277122743E+02 0.  0.
          5    1    3    3  502    0  0.18813710623E+02  0.13269096577E+02  0.94932047460E+02  0.97773159232E+02  0.41800000000E+01 0. -1.
         -5    1    3    3    0  502 -0.63437949704E+02  0.49575265486E+02  0.67359340822E+01  0.80900714574E+02  0.41800000000E+01 0. -1.
        -11    1    4    4    0    0  0.17299197092E+02  0.17857149998E+02 -0.12882067141E+02  0.28001565669E+02  0.00000000000E+00 0.  1.
         11    1    4    4    0    0  0.27325041989E+02 -0.80701512062E+02  0.48943870551E+02  0.98259322373E+02  0.00000000000E+00 0. -1.
</event>
<event>
 8    1  0.7114239E-009  0.1163011E+03  0.7561462E-02  0.1249327E+00
          1   -1    0    0  501    0  0.00000000000E+00  0.00000000000E+00  0.50181578881E+03  0.50181578881E+03  0.00000000000E+00 0. -1.
         -1   -1    0    0    0  501 -0.00000000000E+00 -0.00000000000E+00 -0.39744230085E+02  0.39744230085E+02  0.00000000000E+00 0.  1.
         25    2    1    2    0    0  0.67901911280E+02 -0.61365862358E+02  0.24758371537E+03  0.29209910442E+03  0.12509097518E+03 0.  0.
         23    2    1    2    0    0 -0.67901911280E+02  0.61365862358E+02  0.21448784336E+03  0.24946091447E+03  0.88596130184E+02 0.  0.
          5    1    3    3  502    0 -0.84422604222E+01 -0.24237834588E+02 -0.42133391086E+01  0.26343291612E+02  0.41800000000E+01 0.  1.
         -5    1    3    3    0  502  0.76344171703E+02 -0.37128027770E+02  0.25179705448E+03  0.26575581281E+03  0.41800000000E+01 0.  1.
        -11    1    4    4    0    0 -0.83126877229E+02  0.33057533088E+02  0.12014076163E+03  0.14978878735E+03  0.00000000000E+00 0.  1.
         11    1    4    4    0    0  0.15224965949E+02  0.28308329270E+02  0.94347081728E+02  0.99672127121E+02  0.00000000000E+00 0. -1.
</event>
<event>
 8    1  0.7114239E-009  0.1181727E+03  0.7561462E-02  0.1246142E+00
         -1   -1    0    0    0  501 -0.00000000000E+00  0.00000000000E+00  0.72824338026E+02  0.72824338026E+02  0.00000000000E+00 0.  1.
          1   -1    0    0  501    0  0.00000000000E+00 -0.00000000000E+00 -0.30670297984E+03  0.30670297984E+03  0.00000000000E+00 0. -1.
         25    2    1    2    0    0 -0.64451957013E+02  0.44974439222E+02 -0.21523463303E+03  0.26104897747E+03  0.12507544299E+03 0.  0.
         23    2    1    2    0    0  0.64451957013E+02 -0.44974439222E+02 -0.18644008781E+02  0.11847834039E+03  0.86676197030E+02 0.  0.
          5    1    3    3  502    0 -0.65832811647E+02 -0.22313999221E+02 -0.15776151630E+03  0.17244721533E+03  0.41800000000E+01 0. -1.
         -5    1    3    3    0  502  0.13808546345E+01  0.67288438443E+02 -0.57473116727E+02  0.88601762138E+02  0.41800000000E+01 0. -1.
        -11    1    4    4    0    0  0.40484882731E+02  0.78770115721E+01  0.22837983933E+02  0.47144952552E+02  0.00000000000E+00 0.  1.
         11    1    4    4    0    0  0.23967074282E+02 -0.52851450794E+02 -0.41481992713E+02  0.71333387836E+02  0.00000000000E+00 0. -1.
</event>
<event>
 8    1  0.7114239E-009  0.1257473E+03  0.7561462E-02  0.1233906E+00
         -2   -1    0    0    0  501 -0.00000000000E+00  0.00000000000E+00  0.33950946965E+03  0.33950946965E+03  0.00000000000E+00 0.  1.
          2   -1    0    0  501    0  0.00000000000E+00 -0.00000000000E+00 -0.71075628806E+02  0.71075628806E+02  0.00000000000E+00 0. -1.
         25    2    1    2    0    0  0.85693404639E+02 -0.25321673891E+02  0.56903843074E+02  0.16390718856E+03  0.12507186870E+03 0.  0.
         23    2    1    2    0    0 -0.85693404639E+02  0.25321673891E+02  0.21152999776E+03  0.24667790989E+03  0.90113841915E+02 0.  0.
          5    1    3    3  502    0  0.21519093186E+02  0.32251556933E+02 -0.23845004740E+02  0.45708762258E+02  0.41800000000E+01 0.  1.
         -5    1    3    3    0  502  0.64174311453E+02 -0.57573230824E+02  0.80748847814E+02  0.11819842631E+03  0.41800000000E+01 0.  1.
        -11    1    4    4    0    0 -0.10355046976E+03  0.12725686883E+02  0.16411423198E+03  0.19446882535E+03  0.00000000000E+00 0. -1.
         11    1    4    4    0    0  0.17857065120E+02  0.12595987008E+02  0.47415765782E+02  0.52209084537E+02  0.00000000000E+00 0.  1.
</event>
<event>
 8    1  0.7114239E-009  0.1863870E+03  0.7561462E-02  0.1161761E+00
         -2   -1    0    0    0  501 -0.00000000000E+00  0.00000000000E+00  0.29194738194E+02  0.29194738194E+02  0.00000000000E+00 0.  1.
          2   -1    0    0  501    0  0.00000000000E+00 -0.00000000000E+00 -0.15072379077E+04  0.15072379077E+04  0.00000000000E+00 0. -1.
         25    2    1    2    0    0 -0.14950099917E+03 -0.45430265685E+02 -0.10904182103E+04  0.11086367270E+04  0.12509620832E+03 0.  0.
         23    2    1    2    0    0  0.14950099917E+03  0.45430265685E+02 -0.38762495930E+03  0.42779591897E+03  0.91333353302E+02 0.  0.
          5    1    3    3  502    0 -0.39303367076E+02  0.39645448442E+02 -0.21305698318E+03  0.22028905267E+03  0.41800000000E+01 0. -1.
         -5    1    3    3    0  502 -0.11019763209E+03 -0.85075714128E+02 -0.87736122707E+03  0.88834767429E+03  0.41800000000E+01 0. -1.
        -11    1    4    4    0    0  0.14634173486E+03  0.15213088898E+02 -0.34830709155E+03  0.37810735441E+03  0.00000000000E+00 0. -1.
         11    1    4    4    0    0  0.31592643111E+01  0.30217176787E+02 -0.39317867748E+02  0.49688564562E+02  0.00000000000E+00 0.  1.
</event>
<event>
 8    1  0.7114239E-009  0.1555794E+03  0.7561462E-02  0.1193780E+00
         -1   -1    0    0    0  501 -0.00000000000E+00  0.00000000000E+00  0.17297631022E+02  0.17297631022E+02  0.00000000000E+00 0.  1.
          1   -1    0    0  501    0  0.00000000000E+00 -0.00000000000E+00 -0.17932775451E+04  0.17932775451E+04  0.00000000000E+00 0. -1.
         25    2    1    2    0    0 -0.11031878513E+03 -0.28539557610E+02 -0.13455171373E+04  0.13561154701E+04  0.12509220858E+03 0.  0.
         23    2    1    2    0    0  0.11031878513E+03  0.28539557610E+02 -0.43046277670E+03  0.45445970599E+03  0.90833262327E+02 0.  0.
          5    1    3    3  502    0 -0.84179994970E+02 -0.74499601590E+02 -0.77222509538E+03  0.78037525110E+03  0.41800000000E+01 0.  1.
         -5    1    3    3    0  502 -0.26138790160E+02  0.45960043980E+02 -0.57329204196E+03  0.57574021900E+03  0.41800000000E+01 0.  1.
        -11    1    4    4    0    0  0.62813322689E+02 -0.30520929056E+02 -0.19833417484E+03  0.21027003003E+03  0.00000000000E+00 0.  1.
         11    1    4    4    0    0  0.47505462440E+02  0.59060486666E+02 -0.23212860186E+03  0.24418967596E+03  0.00000000000E+00 0. -1.
</event>
<event>
 8    1  0.7114239E-009  0.1185417E+03  0.7561462E-02  0.1245522E+00
          1   -1    0    0  501    0  0.00000000000E+00  0.00000000000E+00  0.91452247444E+03  0.91452247444E+03  0.00000000000E+00 0. -1.
         -1   -1    0    0    0  501 -0.00000000000E+00 -0.00000000000E+00 -0.26982034518E+02  0.26982034518E+02  0.00000000000E+00 0.  1.
         25    2    1    2    0    0  0.89174777114E+02  0.13544335420E+02  0.67136206367E+03  0.68884697276E+03  0.12509013333E+03 0.  0.
         23    2    1    2    0    0 -0.89174777114E+02 -0.13544335420E+02  0.21617837626E+03  0.25265753620E+03  0.94695038633E+02 0.  0.
          5    1    3    3  502    0  0.86018998050E+02 -0.18934752843E+02  0.62929744212E+03  0.63544514787E+03  0.41800000000E+01 0. -1.
         -5    1    3    3    0  502  0.31557790644E+01  0.32479088263E+02  0.42064621543E+02  0.53401824889E+02  0.41800000000E+01 0. -1.
        -11    1    4    4    0    0  0.76698495467E+01 -0.17473827132E+02  0.41545028876E+01  0.19530005657E+02  0.00000000000E+00 0.  1.
         11    1    4    4    0    0 -0.96844626661E+02  0.39294917120E+01  0.21202387337E+03  0.23312753054E+03  0.00000000000E+00 0. -1.
</event>
<event>
 8    1  0.7114239E-009  0.1518755E+03  0.7561462E-02  0.1198187E+00
          2   -1    0    0  501    0  0.00000000000E+00  0.00000000000E+00  0.23268793398E+03  0.23268793398E+03  0.00000000000E+00 0. -1.
         -2   -1    0    0    0  501 -0.00000000000E+00 -0.00000000000E+00 -0.16037404031E+03  0.16037404031E+03  0.00000000000E+00 0.  1.
         25    2    1    2    0    0 -0.12442517946E+03  0.59650866494E+02  0.11531972415E+03  0.21905473076E+03  0.12508591101E+03 0.  0.
         23    2    1    2    0    0  0.12442517946E+03 -0.59650866494E+02 -0.43005830477E+02  0.17400724353E+03  0.96897720249E+02 0.  0.
          5    1    3    3  502    0 -0.80610525292E+02  0.37899306007E+00  0.12051004990E+03  0.14504600977E+03  0.41800000000E+01 0. -1.
         -5    1    3    3    0  502 -0.43814654164E+02  0.59271873434E+02 -0.51903257541E+01  0.74008720981E+02  0.41800000000E+01 0. -1.
        -11    1    4    4    0    0  0.25330189214E+02  0.10884577254E+02  0.22742670640E+02  0.35739635916E+02  0.00000000000E+00 0. -1.
         11    1    4    4    0    0  0.99094990242E+02 -0.70535443748E+02 -0.65748501117E+02  0.13826760761E+03  0.00000000000E+00 0.  1.
</event>
<event>
 8    1  0.7114239E-009  0.1961099E+03  0.7561462E-02  0.1153063E+00
         -2   -1    0    0    0  501 -0.00000000000E+00  0.00000000000E+00  0.66159308190E+02  0.66159308190E+02  0.00000000000E+00 0.  1.
          2   -1    0    0  501    0  0.00000000000E+00 -0.00000000000E+00 -0.89648736455E+03  0.89648736455E+03  0.00000000000E+00 0. -1.
         25    2    1    2    0    0 -0.99664572558E+02 -0.15184397563E+03 -0.66582970033E+03  0.70140445351E+03  0.12509755231E+03 0.  0.
         23    2    1    2    0    0  0.99664572558E+02  0.15184397563E+03 -0.16449835603E+03  0.26124221923E+03  0.90543735373E+02 0.  0.
          5    1    3    3  502    0 -0.80822863684E+02 -0.15030852898E+03 -0.65919112054E+03  0.68093714466E+03  0.41800000000E+01 0.  1.
         -5    1    3    3    0  502 -0.18841708874E+02 -0.15354466493E+01 -0.66385797906E+01  0.20467308844E+02  0.41800000000E+01 0.  1.
        -11    1    4    4    0    0  0.79657092147E+02  0.41146748092E+02 -0.84547138304E+02  0.12323362286E+03  0.00000000000E+00 0. -1.
         11    1    4    4    0    0  0.20007480411E+02  0.11069722754E+03 -0.79951217722E+02  0.13800859637E+03  0.00000000000E+00 0.  1.
</event>
<event>
 8    1  0.7114239E-009  0.9674799E+02  0.7561462E-02  0.1287287E+00
          1   -1    0    0  501    0  0.00000000000E+00  0.00000000000E+00  0.30573519151E+03  0.30573519151E+03  0.00000000000E+00 0. -1.
         -1   -1    0    0    0  501 -0.00000000000E+00 -0.00000000000E+00 -0.49174359267E+02  0.49174359267E+02  0.00000000000E+00 0.  1.
         25    2    1    2    0    0 -0.20868594705E+01  0.50313419043E+02  0.18346608417E+03  0.22769154415E+03  0.12509132711E+03 0.  0.
         23    2    1    2    0    0  0.20868594705E+01 -0.50313419043E+02  0.73094748072E+02  0.12721800663E+03  0.91136073520E+02 0.  0.
          5    1    3    3  502    0 -0.17335845463E+02 -0.18108868516E+02 -0.55824443506E+01  0.26021121070E+02  0.41800000000E+01 0.  1.
         -5    1    3    3    0  502  0.15248985993E+02  0.68422287558E+02  0.18904852852E+03  0.20167042308E+03  0.41800000000E+01 0.  1.
        -11    1    4    4    0    0  0.36800440958E+02 -0.51291913492E+02  0.66827615925E+02  0.91929663845E+02  0.00000000000E+00 0. -1.
         11    1    4    4    0    0 -0.34713581488E+02  0.97849444953E+00  0.62671321474E+01  0.35288342784E+02  0.00000000000E+00 0.  1.
</event>
<event>
 8    1  0.7114239E-009  0.7449270E+02  0.7561462E-02  0.1345449E+00
         -1   -1    0    0    0  501 -0.00000000000E+00  0.00000000000E+00  0.51450541648E+02  0.51450541648E+02  0.00000000000E+00 0.  1.
          1   -1    0    0  501    0  0.00000000000E+00 -0.00000000000E+00 -0.30359134730E+03  0.30359134730E+03  0.00000000000E+00 0. -1.
         25    2    1    2    0    0 -0.97921396308E+01 -0.44283722497E+02 -0.81037769445E+02  0.15577978918E+03  0.12507313286E+03 0.  0.
         23    2    1    2    0    0  0.97921396308E+01  0.44283722497E+02 -0.17110303620E+03  0.19926209976E+03  0.91499734029E+02 0.  0.
          5    1    3    3  502    0 -0.38070210787E+01  0.19683979029E+01 -0.10362092295E+03  0.10379371885E+03  0.41800000000E+01 0.  1.
         -5    1    3    3    0  502 -0.59851185521E+01 -0.46252120400E+02  0.22583153510E+02  0.51986070327E+02  0.41800000000E+01 0.  1.
        -11    1    4    4    0    0  0.45039493752E+02  0.40770739491E+02 -0.13799651268E+03  0.15077747414E+03  0.00000000000E+00 0. -1.
         11    1    4    4    0    0 -0.35247354121E+02  0.35129830062E+01 -0.33106523526E+02  0.48484625626E+02  0.00000000000E+00 0.  1.
</event>
<event>
 8    1  0.7114239E-009  0.5473741E+02  0.7561462E-02  0.1421345E+00
          2   -1    0    0  501    0  0.00000000000E+00  0.00000000000E+00  0.16676908236E+03  0.16676908236E+03  0.00000000000E+00 0.  1.
         -2   -1    0    0    0  501 -0.00000000000E+00 -0.00000000000E+00 -0.10107652624E+03  0.10107652624E+03  0.00000000000E+00 0. -1.
         25    2    1    2    0    0  0.13165995128E+02 -0.10529255858E+02 -0.33968006729E+02  0.13071215891E+03  0.12509050463E+03 0.  0.
         23    2    1    2    0    0 -0.13165995128E+02  0.10529255858E+02  0.99660562857E+02  0.13713344969E+03  0.92677648757E+02 0.  0.
          5    1    3    3  502    0 -0.21679959829E+01 -0.17872542880E+02 -0.79662467615E+02  0.81778414892E+02  0.41800000000E+01 0.  1.
         -5    1    3    3    0  502  0.15333991111E+02  0.73432870225E+01  0.45694460887E+02  0.48933744016E+02  0.41800000000E+01 0.  1.
        -11    1    4    4    0    0  0.29627178647E+02  0.76261063736E+01  0.87286736110E+02  0.92492710598E+02  0.00000000000E+00 0.  1.
         11    1    4    4    0    0 -0.42793173774E+02  0.29031494844E+01  0.12373826747E+02  0.44640739095E+02  0.00000000000E+00 0. -1.
</event>
<event>
 8    1  0.7114239E-009  0.1019636E+03  0.7561462E-02  0.1276220E+00
         -1   -1    0    0    0  501 -0.00000000000E+00  0.00000000000E+00  0.51533371027E+02  0.51533371027E+02  0.00000000000E+00 0.  1.
          1   -1    0    0  501    0  0.00000000000E+00 -0.00000000000E+00 -0.23337059682E+03  0.23337059682E+03  0.00000000000E+00 0. -1.
         25    2    1    2    0    0 -0.16572794333E+01 -0.70094612654E+01 -0.97222780793E+02  0.15859530627E+03  0.12509325699E+03 0.  0.
         23    2    1    2    0    0  0.16572794333E+01  0.70094612654E+01 -0.84614444996E+02  0.12630866157E+03  0.93500773060E+02 0.  0.
          5    1    3    3  502    0 -0.58712581865E+02 -0.26899253093E+02 -0.48919787642E+02  0.81125551519E+02  0.41800000000E+01 0. -1.
         -5    1    3    3    0  502  0.57055302432E+02  0.19889791827E+02 -0.48302993151E+02  0.77469754755E+02  0.41800000000E+01 0. -1.
        -11    1    4    4    0    0 -0.24869891174E+02 -0.26210489743E+02 -0.55714854514E+01  0.36558756950E+02  0.00000000000E+00 0.  1.
         11    1    4    4    0    0  0.26527170607E+02  0.33219951009E+02 -0.79042959545E+02  0.89749904619E+02  0.00000000000E+00 0. -1.
</event>
<event>
 8    1  0.7114239E-009  0.1788910E+03  0.7561462E-02  0.1168881E+00
          1   -1    0    0  501    0  0.00000000000E+00  0.00000000000E+00  0.25754464112E+03  0.25754464112E+03  0.00000000000E+00 0. -1.
         -1   -1    0    0    0  501 -0.00000000000E+00 -0.00000000000E+00 -0.14398998656E+03  0.14398998656E+03  0.00000000000E+00 0.  1.
         25    2    1    2    0    0  0.84678364151E+02  0.11777718948E+03 -0.72904113838E+01  0.19168223152E+03  0.12508811321E+03 0.  0.
         23    2    1    2    0    0 -0.84678364151E+02 -0.11777718948E+03  0.12084506595E+03  0.20985239616E+03  0.91611170118E+02 0.  0.
          5    1    3    3  502    0  0.66217081152E+02 -0.55727709696E+01 -0.63525262653E+01  0.66884860787E+02  0.41800000000E+01 0. -1.
         -5    1    3    3    0  502  0.18461282999E+02  0.12334996045E+03 -0.93788511848E+00  0.12479737074E+03  0.41800000000E+01 0. -1.
        -11    1    4    4    0    0 -0.59519304917E+02 -0.16095007747E+02  0.20983279645E+02  0.65129831544E+02  0.00000000000E+00 0.  1.
         11    1    4    4    0    0 -0.25159059234E+02 -0.10168218174E+03  0.99861786306E+02  0.14472256461E+03  0.00000000000E+00 0. -1.
</event>
<event>
 8    1  0.7114239E-009  0.1460262E+03  0.7561462E-02  0.1205443E+00
          2   -1    0    0  501    0  0.00000000000E+00  0.00000000000E+00  0.12711937870E+04  0.12711937870E+04  0.00000000000E+00 0.  1.
         -2   -1    0    0    0  501 -0.00000000000E+00 -0.00000000000E+00 -0.23895891891E+02  0.23895891891E+02  0.00000000000E+00 0. -1.
         25    2    1    2    0    0 -0.50288664870E+02  0.11172462866E+03  0.88316034798E+03  0.90035026275E+03  0.12508818062E+03 0.  0.
         23    2    1    2    0    0  0.50288664870E+02 -0.11172462866E+03  0.36413754714E+03  0.39473941615E+03  0.90618491269E+02 0.  0.
          5    1    3    3  502    0 -0.79969451964E+02  0.36697608347E+02  0.34054378608E+03  0.35175185904E+03  0.41800000000E+01 0.  1.
         -5    1    3    3    0  502  0.29680787094E+02  0.75027020316E+02  0.54261656190E+03  0.54859840371E+03  0.41800000000E+01 0.  1.
        -11    1    4    4    0    0  0.19268035776E+02 -0.58223335206E+02  0.65357350015E+02  0.89625873308E+02  0.00000000000E+00 0. -1.
         11    1    4    4    0    0  0.31020629094E+02 -0.53501293457E+02  0.29878019712E+03  0.30511354284E+03  0.00000000000E+00 0.  1.
</event>
<event>
 8    1  0.7114239E-009  0.1646557E+03  0.7561462E-02  0.1183538E+00
         -1   -1    0    0    0  501 -0.00000000000E+00  0.00000000000E+00  0.36538472342E+02  0.36538472342E+02  0.00000000000E+00 0.  1.
          1   -1    0    0  501    0  0.00000000000E+00 -0.00000000000E+00 -0.11357439256E+04  0.11357439256E+04  0.00000000000E+00 0. -1.
         25    2    1    2    0    0 -0.93585344795E+02  0.12215674026E+03 -0.34879879695E+03  0.40123447372E+03  0.12509203091E+03 0.  0.
         23    2    1    2    0    0  0.93585344795E+02 -0.12215674026E+03 -0.75040665627E+03  0.77104792418E+03  0.87887801520E+02 0.  0.
          5    1    3    3  502    0 -0.63087154873E+02  0.63161700892E+02 -0.67026424089E+02  0.11171125053E+03  0.41800000000E+01 0.  1.
         -5    1    3    3    0  502 -0.30498189922E+02  0.58995039373E+02 -0.28177237286E+03  0.28952322319E+03  0.41800000000E+01 0.  1.
        -11    1    4    4    0    0  0.64300790338E+02 -0.20319983173E+02 -0.21772451415E+03  0.22792862351E+03  0.00000000000E+00 0.  1.
         11    1    4    4    0    0  0.29284554456E+02 -0.10183675709E+03 -0.53268214212E+03  0.54311930067E+03  0.00000000000E+00 0. -1.
</event>
<event>
 8    1  0.7114239E-009  0.9481887E+02  0.7561462E-02  0.1291585E+00
          2   -1    0    0  501    0  0.00000000000E+00  0.00000000000E+00  0.28563789919E+03  0.28563789919E+03  0.00000000000E+00 0. -1.
         -2   -1    0    0    0  501 -0.00000000000E+00 -0.00000000000E+00 -0.41904542421E+02  0.41904542421E+02  0.00000000000E+00 0.  1.
         25    2    1    2    0    0 -0.99956973821E+01 -0.14506290792E+02  0.13279727592E+03  0.18328676810E+03  0.12509427018E+03 0.  0.
         23    2    1    2    0    0  0.99956973821E+01  0.14506290792E+02  0.11093608086E+03  0.14425567351E+03  0.90512644782E+02 0.  0.
          5    1    3    3  502    0 -0.58184754745E+02 -0.39373074058E+02  0.88951752583E+02  0.11342659006E+03  0.41800000000E+01 0. -1.
         -5    1    3    3    0  502  0.48189057363E+02  0.24866783266E+02  0.43845523332E+02  0.69860178040E+02  0.41800000000E+01 0. -1.
        -11    1    4    4    0    0  0.34783350614E+02  0.19068603105E+02  0.10962836611E+02  0.41154305860E+02  0.00000000000E+00 0.  1.
         11    1    4    4    0    0 -0.24787653231E+02 -0.45623123131E+01  0.99973244245E+02  0.10310136765E+03  0.00000000000E+00 0. -1.
</event>
<event>
 8    1  0.7114239E-009  0.7895411E+02  0.7561462E-02  0.1332046E+00
         -1   -1    0    0    0  501 -0.00000000000E+00  0.00000000000E+00  0.57819300741E+02  0.57819300741E+02  0.00000000000E+00 0.  1.
          1   -1    0    0  501    0  0.00000000000E+00 -0.00000000000E+00 -0.24476710624E+03  0.24476710624E+03  0.00000000000E+00 0. -1.
         25    2    1    2    0    0 -0.27293082226E+02 -0.18593831836E+01 -0.15202348154E+03  0.19876443216E+03  0.12509113041E+03 0.  0.
         23    2    1    2    0    0  0.27293082226E+02  0.18593831836E+01 -0.34924323958E+02  0.10382197482E+03  0.93866524432E+02 0.  0.
          5    1    3    3  502    0 -0.49408181200E+02 -0.47829239537E+02 -0.51686196753E+02  0.86126301784E+02  0.41800000000E+01 0.  1.
         -5    1    3    3    0  502  0.22115098974E+02  0.45969856353E+02 -0.10033728479E+03  0.11263813038E+03  0.41800000000E+01 0.  1.
        -11    1    4    4    0    0  0.15731304307E+02  0.14005246681E+02 -0.65580185342E+02  0.68879471393E+02  0.00000000000E+00 0. -1.
         11    1    4    4    0    0  0.11561777918E+02 -0.12145863498E+02  0.30655861384E+02  0.34942503430E+02  0.00000000000E+00 0.  1.
</event>
<event>
 8    1  0.7114239E-009  0.8238286E+02  0.7561462E-02  0.1322422E+00
         -1   -1    0    0    0  501 -0.00000000000E+00  0.00000000000E+00  0.63608586779E+03  0.63608586779E+03  0.00000000000E+00 0.  1.
          1   -1    0    0  501    0  0.00000000000E+00 -0.00000000000E+00 -0.21792123490E+02  0.21792123490E+02  0.00000000000E+00 0. -1.
         25    2    1    2    0    0  0.46049958511E+01  0.46300316099E+02  0.40253033086E+03  0.42407903532E+03  0.12508971053E+03 0.  0.
         23    2    1    2    0    0 -0.46049958511E+01 -0.46300316099E+02  0.21176341344E+03  0.23379895596E+03  0.87483045658E+02 0.  0.
          5    1    3    3  502    0 -0.33162835468E+01 -0.14681313831E+02 -0.12038278667E+01  0.15667173131E+02  0.41800000000E+01 0.  1.
         -5    1    3    3    0  502  0.79212793979E+01  0.60981629930E+02  0.40373415873E+03  0.40841186219E+03  0.41800000000E+01 0.  1.
        -11    1    4    4    0    0 -0.31213255334E+02 -0.51668406635E+02  0.85570409657E+02  0.10471956150E+03  0.00000000000E+00 0.  1.
         11    1    4    4    0    0  0.26608259483E+02  0.53680905363E+01  0.12619300378E+03  0.12907939445E+03  0.00000000000E+00 0. -1.
</event>
<event>
 8    1  0.7114239E-009  0.1197095E+03  0.7561462E-02  0.1243577E+00
         -4   -1    0    0    0  501 -0.00000000000E+00  0.00000000000E+00  0.22148773451E+03  0.22148773451E+03  0.00000000000E+00 0.  1.
          4   -1    0    0  501    0  0.00000000000E+00 -0.00000000000E+00 -0.87146477500E+02  0.87146477500E+02  0.00000000000E+00 0. -1.
         25    2    1    2    0    0 -0.35205561203E+02  0.58902382709E+02  0.13558204175E+03  0.19682474808E+03  0.12509424121E+03 0.  0.
         23    2    1    2    0    0  0.35205561203E+02 -0.58902382709E+02 -0.12407847439E+01  0.11180946393E+03  0.88266043575E+02 0.  0.
          5    1    3    3  502    0 -0.59363805294E+02 -0.10017866052E+02  0.27508681570E+02  0.66322085167E+02  0.41800000000E+01 0. -1.
         -5    1    3    3    0  502  0.24158244091E+02  0.68920248761E+02  0.10807336018E+03  0.13050266291E+03  0.41800000000E+01 0. -1.
        -11    1    4    4    0    0 -0.94935125248E+01  0.16051902072E+02 -0.14387800969E+02  0.23554174936E+02  0.00000000000E+00 0. -1.
         11    1    4    4    0    0  0.44699073728E+02 -0.74954284781E+02  0.13147016226E+02  0.88255288990E+02  0.00000000000E+00 0.  1.
</event>
<event>
 8    1  0.7114239E-009  0.1171590E+03  0.7561462E-02  0.1247859E+00
          1   -1    0    0  501    0  0.00000000000E+00  0.00000000000E+00  0.51891257465E+03  0.51891257465E+03  0.00000000000E+00 0. -1.
         -1   -1    0    0    0  501 -0.00000000000E+00 -0.00000000000E+00 -0.56079297815E+02  0.56079297815E+02  0.00000000000E+00 0.  1.
         25    2    1    2    0    0  0.91231738698E+02  0.87997289080E+00  0.40681897182E+03  0.43528365054E+03  0.12508467571E+03 0.  0.
         23    2    1    2    0    0 -0.91231738698E+02 -0.87997289080E+00  0.56014305011E+02  0.13970822192E+03  0.89759570007E+02 0.  0.
          5    1    3    3  502    0  0.10340836172E+03 -0.30270680418E+02  0.21498674323E+03  0.24051273465E+03  0.41800000000E+01 0.  1.
         -5    1    3    3    0  502 -0.12176623021E+02  0.31150653309E+02  0.19183222859E+03  0.19477091589E+03  0.41800000000E+01 0.  1.
        -11    1    4    4    0    0 -0.24513277153E+02 -0.77559894775E+01  0.66980608134E+02  0.71745787302E+02  0.00000000000E+00 0. -1.
         11    1    4    4    0    0 -0.66718461544E+02  0.68760165867E+01 -0.10966303123E+02  0.67962434617E+02  0.00000000000E+00 0.  1.
</event>
<event>
 8    1  0.7114239E-009  0.1169579E+03  0.7561462E-02  0.1248202E+00
          4   -1    0    0  501    0  0.00000000000E+00  0.00000000000E+00  0.53121042115E+02  0.53121042115E+02  0.00000000000E+00 0.  1.
         -4   -1    0    0    0  501 -0.00000000000E+00 -0.00000000000E+00 -0.30547960616E+03  0.30547960616E+03  0.00000000000E+00 0. -1.
         25    2    1    2    0    0 -0.68546464516E+02 -0.19224417973E+02 -0.14847752967E+03  0.20679015619E+03  0.12509354834E+03 0.  0.
         23    2    1    2    0    0  0.68546464516E+02  0.19224417973E+02 -0.10388103438E+03  0.15181049209E+03  0.84775940933E+02 0.  0.
          5    1    3    3  502    0  0.11475227179E+02  0.35262981450E+02 -0.11590498885E+02  0.39076473279E+02  0.41800000000E+01 0. -1.
         -5    1    3    3    0  502 -0.80021691695E+02 -0.54487399423E+02 -0.13688703079E+03  0.16771368291E+03  0.41800000000E+01 0. -1.
        -11    1    4    4    0    0 -0.14122717550E+02 -0.22083527359E+01 -0.47183287545E+02  0.49301020236E+02  0.00000000000E+00 0. -1.
         11    1    4    4    0    0  0.82669182066E+02  0.21432770708E+02 -0.56697746832E+02  0.10250947185E+03  0.00000000000E+00 0.  1.
</event>
<event>
 8    1  0.7114239E-009  0.1225390E+03  0.7561462E-02  0.1238966E+00
          1   -1    0    0  501    0  0.00000000000E+00  0.00000000000E+00  0.36601643082E+03  0.36601643082E+03  0.00000000000E+00 0. -1.
         -1   -1    0    0    0  501 -0.00000000000E+00 -0.00000000000E+00 -0.47405049075E+02  0.47405049075E+02  0.00000000000E+00 0.  1.
         25    2    1    2    0    0 -0.64839287603E+02 -0.15186331596E+01  0.13013736897E+03  0.19180490319E+03  0.12508775567E+03 0.  0.
         23    2    1    2    0    0  0.64839287603E+02  0.15186331596E+01  0.18847401278E+03  0.22161657671E+03  0.96876282537E+02 0.  0.
          5    1    3    3  502    0  0.28464651225E+02 -0.29853664489E+02  0.25309822933E+02  0.48575067573E+02  0.41800000000E+01 0. -1.
         -5    1    3    3    0  502 -0.93303938828E+02  0.28335031330E+02  0.10482754604E+03  0.14322983561E+03  0.41800000000E+01 0. -1.
        -11    1    4    4    0    0  0.53630013441E+02  0.39377117792E+02  0.69284776626E+02  0.96057878487E+02  0.00000000000E+00 0.  1.
         11    1    4    4    0    0  0.11209274162E+02 -0.37858484633E+02  0.11918923615E+03  0.12555869823E+03  0.00000000000E+00 0. -1.
</event>
<event>
 8    1  0.7114239E-009  0.1265559E+03  0.7561462E-02  0.1232657E+00
          1   -1    0    0  501    0  0.00000000000E+00  0.00000000000E+00  0.85236726541E+03  0.85236726541E+03  0.00000000000E+00 0. -1.
         -1   -1    0    0    0  501 -0.00000000000E+00 -0.00000000000E+00 -0.55006749890E+02  0.55006749890E+02  0.00000000000E+00 0.  1.
         25    2    1    2    0    0  0.54588307175E+02  0.10292232291E+03  0.72094525681E+03  0.74093456352E+03  0.12509626802E+03 0.  0.
         23    2    1    2    0    0 -0.54588307175E+02 -0.10292232291E+03  0.76415258710E+02  0.16643945178E+03  0.91048951179E+02 0.  0.
          5    1    3    3  502    0  0.71277140932E+02  0.77577485140E+02  0.68767312663E+03  0.69570863047E+03  0.41800000000E+01 0.  1.
         -5    1    3    3    0  502 -0.16688833757E+02  0.25344837770E+02  0.33272130172E+02  0.45225933047E+02  0.41800000000E+01 0.  1.
        -11    1    4    4    0    0 -0.32936349545E+02 -0.50081456269E+02 -0.12053697523E+02  0.61141205479E+02  0.00000000000E+00 0.  1.
         11    1    4    4    0    0 -0.21651957629E+02 -0.52840866641E+02  0.88468956233E+02  0.10529824630E+03  0.00000000000E+00 0. -1.
</event>
<event>
 8    1  0.7114239E-009  0.1951354E+03  0.7561462E-02  0.1153909E+00
          1   -1    0    0  501    0  0.00000000000E+00  0.00000000000E+00  0.34486077948E+03  0.34486077948E+03  0.00000000000E+00 0. -1.
         -1   -1    0    0    0  501 -0.00000000000E+00 -0.00000000000E+00 -0.12269658084E+03  0.12269658084E+03  0.00000000000E+00 0.  1.
         25    2    1    2    0    0  0.12363479851E+03  0.10651557580E+03  0.18622146119E+03  0.27741197577E+03  0.12509132825E+03 0.  0.
         23    2    1    2    0    0 -0.12363479851E+03 -0.10651557580E+03  0.35942737446E+02  0.19014538455E+03  0.90731778334E+02 0.  0.
          5    1    3    3  502    0  0.14848561793E+03  0.86591554727E+02  0.16842261019E+03  0.24068594497E+03  0.41800000000E+01 0. -1.
         -5    1    3    3    0  502 -0.24850819421E+02  0.19924021074E+02  0.17798851000E+02  0.36726030803E+02  0.41800000000E+01 0. -1.
        -11    1    4    4    0    0 -0.81471201752E+02 -0.11530890076E+02  0.89068015485E+01  0.82763816096E+02  0.00000000000E+00 0.  1.
         11    1    4    4    0    0 -0.42163596759E+02 -0.94984685726E+02  0.27035935897E+02  0.10738156846E+03  0.00000000000E+00 0. -1.
</event>
<event>
 8    1  0.7114239E-009  0.1231675E+03  0.7561462E-02  0.1237961E+00
         -3   -1    0    0    0  501 -0.00000000000E+00  0.00000000000E+00  0.10788346528E+03  0.10788346528E+03  0.00000000000E+00 0.  1.
          3   -1    0    0  501    0  0.00000000000E+00 -0.00000000000E+00 -0.15092075418E+03  0.15092075418E+03  0.00000000000E+00 0. -1.
         25    2    1    2    0    0  0.65642580631E+02  0.13125886889E+00 -0.24189279370E+02  0.14332859989E+03  0.12509596591E+03 0.  0.
         23    2    1    2    0    0 -0.65642580631E+02 -0.13125886889E+00 -0.18848009535E+02  0.11547561958E+03  0.93115012925E+02 0.  0.
          5    1    3    3  502    0  0.50149922797E+02  0.58242897423E+02  0.33604395017E+01  0.77045537252E+02  0.41800000000E+01 0.  1.
         -5    1    3    3    0  502  0.15492657834E+02 -0.58111638554E+02 -0.27549718872E+02  0.66283062634E+02  0.41800000000E+01 0.  1.
        -11    1    4    4    0    0 -0.77342493348E+02 -0.25255345533E+02 -0.28377499722E+02  0.86168301862E+02  0.00000000000E+00 0. -1.
         11    1    4    4    0    0  0.11699912717E+02  0.25124086664E+02  0.95294901870E+01  0.29307317713E+02  0.00000000000E+00 0.  1.
</event>
<event>
 8    1  0.7114239E-009  0.9523320E+02  0.7561462E-02  0.1290652E+00
         -2   -1    0    0    0  501 -0.00000000000E+00  0.00000000000E+00  0.37247156394E+02  0.37247156394E+02  0.00000000000E+00 0.  1.
          2   -1    0    0  501    0  0.00000000000E+00 -0.00000000000E+00 -0.34440283940E+03  0.34440283940E+03  0.00000000000E+00 0. -1.
         25    2    1    2    0    0  0.17903819798E+02 -0.27590303843E+02 -0.16479648682E+03  0.20949442939E+03  0.12509301439E+03 0.  0.
         23    2    1    2    0    0 -0.17903819798E+02  0.27590303843E+02 -0.14235919619E+03  0.17215556641E+03  0.91047386977E+02 0.  0.
          5    1    3    3  502    0 -0.48795756782E+02  0.13176698972E+02 -0.72357327454E+02  0.88361227425E+02  0.41800000000E+01 0.  1.
         -5    1    3    3    0  502  0.66699576580E+02 -0.40767002815E+02 -0.92439159366E+02  0.12113320197E+03  0.41800000000E+01 0.  1.
        -11    1    4    4    0    0 -0.32339265852E+02  0.23929361198E+01 -0.63026492545E+01  0.33034491774E+02  0.00000000000E+00 0.  1.
         11    1    4    4    0    0  0.14435446054E+02  0.25197367724E+02 -0.13605654694E+03  0.13912107463E+03  0.00000000000E+00 0. -1.
</event>
<event>
 8    1  0.7114239E-009  0.7568829E+02  0.7561462E-02  0.1341753E+00
         -1   -1    0    0    0  501 -0.00000000000E+00  0.00000000000E+00  0.16714564702E+03  0.16714564702E+03  0.00000000000E+00 0.  1.
          1   -1    0    0  501    0  0.00000000000E+00 -0.00000000000E+00 -0.11187632545E+03  0.11187632545E+03  0.00000000000E+00 0. -1.
         25    2    1    2    0    0 -0.25362769713E+01 -0.47431039437E+02  0.99996370381E+02  0.16704210912E+03  0.12509059088E+03 0.  0.
         23    2    1    2    0    0  0.25362769713E+01  0.47431039437E+02 -0.44727048815E+02  0.11197986335E+03  0.91010135137E+02 0.  0.
          5    1    3    3  502    0  0.16338983268E+02 -0.29310408160E+02  0.12567413564E+03  0.13014423986E+03  0.41800000000E+01 0.  1.
         -5    1    3    3    0  502 -0.18875260240E+02 -0.18120631277E+02 -0.25677765260E+02  0.36897869258E+02  0.41800000000E+01 0.  1.
        -11    1    4    4    0    0 -0.31999002801E+02  0.46586402982E+02 -0.13581201953E+01  0.56533827161E+02  0.00000000000E+00 0.  1.
         11    1    4    4    0    0  0.34535279772E+02  0.84463645547E+00 -0.43368928619E+02  0.55446036191E+02  0.00000000000E+00 0. -1.
</event>
<event>
 8    1  0.7114239E-009  0.1219166E+03  0.7561462E-02  0.1239968E+00
          2   -1    0    0  501    0  0.00000000000E+00  0.00000000000E+00  0.11567861392E+03  0.11567861392E+03  0.00000000000E+00 0. -1.
         -2   -1    0    0    0  501 -0.00000000000E+00 -0.00000000000E+00 -0.16583950767E+03  0.16583950767E+03  0.00000000000E+00 0.  1.
         25    2    1    2    0    0 -0.30396545664E+02  0.80057077197E+02 -0.40060888393E+02  0.15679647037E+03  0.12508865953E+03 0.  0.
         23    2    1    2    0    0  0.30396545664E+02 -0.80057077197E+02 -0.10100005364E+02  0.12472165122E+03  0.90113231975E+02 0.  0.
          5    1    3    3  502    0 -0.72873245923E+02  0.16786109364E+02 -0.14349071010E+02  0.76260420126E+02  0.41800000000E+01 0. -1.
         -5    1    3    3    0  502  0.42476700259E+02  0.63270967833E+02 -0.25711817383E+02  0.80536050242E+02  0.41800000000E+01 0. -1.
        -11    1    4    4    0    0  0.11806417202E+02 -0.15173453030E+01 -0.37612670240E+02  0.39451321733E+02  0.00000000000E+00 0.  1.
         11    1    4    4    0    0  0.18590128461E+02 -0.78539731894E+02  0.27512664876E+02  0.85270329487E+02  0.00000000000E+00 0. -1.
</event>
<event>
 8    1  0.7114239E-009  0.1375202E+03  0.7561462E-02  0.1216705E+00
         -4   -1    0    0    0  501 -0.00000000000E+00  0.00000000000E+00  0.78392557531E+02  0.78392557531E+02  0.00000000000E+00 0.  1.
          4   -1    0    0  501    0  0.00000000000E+00 -0.00000000000E+00 -0.34521444854E+03  0.34521444854E+03  0.00000000000E+00 0. -1.
         25    2    1    2    0    0  0.10473105999E+03  0.54669713830E+02 -0.97143195557E+02  0.19759248684E+03  0.12509443584E+03 0.  0.
         23    2    1    2    0    0 -0.10473105999E+03 -0.54669713830E+02 -0.16967869545E+03  0.22601451923E+03  0.91292555415E+02 0.  0.
          5    1    3    3  502    0  0.65996751739E+02  0.84009627895E+02 -0.10301607696E+03  0.14846876214E+03  0.41800000000E+01 0.  1.
         -5    1    3    3    0  502  0.38734308251E+02 -0.29339914065E+02  0.58728814008E+01  0.49123724706E+02  0.41800000000E+01 0.  1.
        -11    1    4    4    0    0 -0.42619004361E+02 -0.31762971960E+02 -0.11278313039E+02  0.54336601527E+02  0.00000000000E+00 0.  1.
         11    1    4    4    0    0 -0.62112055628E+02 -0.22906741871E+02 -0.15840038241E+03  0.17167791770E+03  0.00000000000E+00 0. -1.
</event>
<event>
 8    1  0.7114239E-009  0.1084977E+03  0.7561462E-02  0.1263378E+00
         -2   -1    0    0    0  501 -0.00000000000E+00  0.00000000000E+00  0.44652342891E+02  0.44652342891E+02  0.00000000000E+00 0.  1.
          2   -1    0    0  501    0  0.00000000000E+00 -0.00000000000E+00 -0.26463899074E+03  0.26463899074E+03  0.00000000000E+00 0. -1.
         25    2    1    2    0    0 -0.41101241380E+01 -0.62507730680E+01 -0.13529179541E+03  0.18440959698E+03  0.12508822594E+03 0.  0.
         23    2    1    2    0    0  0.41101241380E+01  0.62507730680E+01 -0.84694852447E+02  0.12488173666E+03  0.91467288336E+02 0.  0.
          5    1    3    3  502    0  0.55106247634E+02  0.22100215479E+02 -0.63375455080E+02  0.86942732641E+02  0.41800000000E+01 0. -1.
         -5    1    3    3    0  502 -0.59216371772E+02 -0.28350988547E+02 -0.71916340327E+02  0.97466864335E+02  0.41800000000E+01 0. -1.
        -11    1    4    4    0    0 -0.42923846417E+01  0.48461133544E+02 -0.47589670940E+02  0.68056467808E+02  0.00000000000E+00 0. -1.
         11    1    4    4    0    0  0.84025087797E+01 -0.42210360476E+02 -0.37105181507E+02  0.56825268851E+02  0.00000000000E+00 0.  1.
</event>
<event>
 8    1  0.7114239E-009  0.1069900E+03  0.7561462E-02  0.1266248E+00
          2   -1    0    0  501    0  0.00000000000E+00  0.00000000000E+00  0.28014503237E+03  0.28014503237E+03  0.00000000000E+00 0. -1.
         -2   -1    0    0    0  501 -0.00000000000E+00 -0.00000000000E+00 -0.52889051885E+02  0.52889051885E+02  0.00000000000E+00 0.  1.
         25    2    1    2    0    0  0.39367794911E+02  0.25479379945E+02  0.14031148621E+03  0.19373423672E+03  0.12508644705E+03 0.  0.
         23    2    1    2    0    0 -0.39367794911E+02 -0.25479379945E+02  0.86944494273E+02  0.13929984753E+03  0.98214461050E+02 0.  0.
          5    1    3    3  502    0 -0.70336656845E+01  0.65401576402E+02  0.10186497027E+03  0.12132923480E+03  0.41800000000E+01 0.  1.
         -5    1    3    3    0  502  0.46401460596E+02 -0.39922196456E+02  0.38446515938E+02  0.72405001920E+02  0.41800000000E+01 0.  1.
        -11    1    4    4    0    0 -0.42909710189E+02  0.15469141335E+02  0.28540086601E+01  0.45702110756E+02  0.00000000000E+00 0.  1.
         11    1    4    4    0    0  0.35419152778E+01 -0.40948521281E+02  0.84090485612E+02  0.93597736775E+02  0.00000000000E+00 0. -1.
</event>
<event>
 8    1  0.7114239E-009  0.1191991E+03  0.7561462E-02  0.1244424E+00
          1   -1    0    0  501    0  0.00000000000E+00  0.00000000000E+00  0.56215701852E+03  0.56215701852E+03  0.00000000000E+00 0. -1.
         -1   -1    0    0    0  501 -0.00000000000E+00 -0.00000000000E+00 -0.34762609715E+02  0.34762609715E+02  0.00000000000E+00 0.  1.
         25    2    1    2    0    0 -0.29980482980E+02  0.47125297404E+02  0.43732488817E+03  0.45827915153E+03  0.12508836838E+03 0.  0.
         23    2    1    2    0    0  0.29980482980E+02 -0.47125297404E+02  0.90069520633E+02  0.13864047670E+03  0.89381431053E+02 0.  0.
          5    1    3    3  502    0  0.14524606212E+02  0.79066474316E+02  0.29280093083E+03  0.30366483011E+03  0.41800000000E+01 0. -1.
         -5    1    3    3    0  502 -0.44505089192E+02 -0.31941176912E+02  0.14452395733E+03  0.15461432142E+03  0.41800000000E+01 0. -1.
        -11    1    4    4    0    0  0.17291299500E+02 -0.72530006140E+02  0.77628865924E+02  0.10763750115E+03  0.00000000000E+00 0. -1.
         11    1    4    4    0    0  0.12689183481E+02  0.25404708736E+02  0.12440654709E+02  0.31002975550E+02  0.00000000000E+00 0.  1.
</event>
<event>
 8    1  0.7114239E-009  0.1094072E+03  0.7561462E-02  0.1261672E+00
         -1   -1    0    0    0  501 -0.00000000000E+00  0.00000000000E+00  0.51545835480E+02  0.51545835480E+02  0.00000000000E+00 0. -1.
          1   -1    0    0  501    0  0.00000000000E+00 -0.00000000000E+00 -0.41985090925E+03  0.41985090925E+03  0.00000000000E+00 0.  1.
         25    2    1    2    0    0  0.90409833500E+02 -0.39823858012E+02 -0.20934698544E+03  0.26312305704E+03  0.12509078771E+03 0.  0.
         23    2    1    2    0    0 -0.90409833500E+02  0.39823858012E+02 -0.15895808832E+03  0.20827368769E+03  0.91380399863E+02 0.  0.
          5    1    3    3  502    0  0.61181151121E+02 -0.58669728309E+02 -0.46947058859E+02  0.96988499358E+02  0.41800000000E+01 0.  1.
         -5    1    3    3    0  502  0.29228682380E+02  0.18845870296E+02 -0.16239992658E+03  0.16613455768E+03  0.41800000000E+01 0.  1.
        -11    1    4    4    0    0 -0.20403947965E+02  0.67443415461E+01  0.90228066043E+01  0.23307043452E+02  0.00000000000E+00 0. -1.
         11    1    4    4    0    0 -0.70005885535E+02  0.33079516466E+02 -0.16798089493E+03  0.18496664424E+03  0.00000000000E+00 0.  1.
</event>
<event>
 8    1  0.7114239E-009  0.2179469E+03  0.7561462E-02  0.1135423E+00
          2   -1    0    0  501    0  0.00000000000E+00  0.00000000000E+00  0.14837349853E+04  0.14837349853E+04  0.00000000000E+00 0. -1.
         -2   -1    0    0    0  501 -0.00000000000E+00 -0.00000000000E+00 -0.35717685632E+02  0.35717685632E+02  0.00000000000E+00 0.  1.
         25    2    1    2    0    0 -0.44192111811E+02 -0.19825164331E+03  0.71871786358E+03  0.75727030826E+03  0.12508515311E+03 0.  0.
         23    2    1    2    0    0  0.44192111811E+02  0.19825164331E+03  0.72929943608E+03  0.76218236266E+03  0.88247547643E+02 0.  0.
          5    1    3    3  502    0  0.21264067626E+02 -0.91727605031E+02  0.46418430808E+03  0.47365668830E+03  0.41800000000E+01 0. -1.
         -5    1    3    3    0  502 -0.65456179437E+02 -0.10652403827E+03  0.25453355550E+03  0.28361361997E+03  0.41800000000E+01 0. -1.
        -11    1    4    4    0    0  0.61644936286E+02  0.10571385399E+03  0.33086265239E+03  0.35276849610E+03  0.00000000000E+00 0.  1.
         11    1    4    4    0    0 -0.17452824475E+02  0.92537789312E+02  0.39843678369E+03  0.40941386656E+03  0.00000000000E+00 0. -1.
</event>
<event>
 8    1  0.7114239E-009  0.1269090E+03  0.7561462E-02  0.1232116E+00
          1   -1    0    0  501    0  0.00000000000E+00  0.00000000000E+00  0.83840740756E+02  0.83840740756E+02  0.00000000000E+00 0. -1.
         -1   -1    0    0    0  501 -0.00000000000E+00 -0.00000000000E+00 -0.21890651456E+03  0.21890651456E+03  0.00000000000E+00 0.  1.
         25    2    1    2    0    0 -0.68518660968E+02  0.37072823916E+02 -0.10141047015E+03  0.17888841768E+03  0.12509109221E+03 0.  0.
         23    2    1    2    0    0  0.68518660968E+02 -0.37072823916E+02 -0.33655303658E+02  0.12385883764E+03  0.90217132645E+02 0.  0.
          5    1    3    3  502    0  0.34274291272E+02  0.40162982128E+01 -0.45391401711E+02  0.57172628440E+02  0.41800000000E+01 0. -1.
         -5    1    3    3    0  502 -0.10279295224E+03  0.33056525703E+02 -0.56019068437E+02  0.12171578924E+03  0.41800000000E+01 0. -1.
        -11    1    4    4    0    0  0.86075007328E+02 -0.24794987244E+02 -0.44306239167E+02  0.99933683551E+02  0.00000000000E+00 0.  1.
         11    1    4    4    0    0 -0.17556346360E+02 -0.12277836673E+02  0.10650935509E+02  0.23925154087E+02  0.00000000000E+00 0. -1.
</event>
<event>
 8    1  0.7114239E-009  0.1041637E+03  0.7561462E-02  0.1271776E+00
         -2   -1    0    0    0  501 -0.00000000000E+00  0.00000000000E+00  0.10038647137E+03  0.10038647137E+03  0.00000000000E+00 0.  1.
          2   -1    0    0  501    0  0.00000000000E+00 -0.00000000000E+00 -0.13814974426E+03  0.13814974426E+03  0.00000000000E+00 0. -1.
         25    2    1    2    0    0 -0.50995045202E+02  0.16502138158E+02 -0.38947313964E+02  0.14155135501E+03  0.12508827940E+03 0.  0.
         23    2    1    2    0    0  0.50995045202E+02 -0.16502138158E+02  0.11840410771E+01  0.96984860622E+02  0.80819836907E+02 0.  0.
          5    1    3    3  502    0  0.20084401322E+02 -0.38959036709E+02 -0.23750061391E+02  0.50027267903E+02  0.41800000000E+01 0.  1.
         -5    1    3    3    0  502 -0.71079446524E+02  0.55461174866E+02 -0.15197252572E+02  0.91524087110E+02  0.41800000000E+01 0.  1.
        -11    1    4    4    0    0  0.61527772638E+02 -0.15585980666E+02 -0.25408293116E+02  0.68367908833E+02  0.00000000000E+00 0. -1.
         11    1    4    4    0    0 -0.10532727437E+02 -0.91615749189E+00  0.26592334193E+02  0.28616951788E+02  0.00000000000E+00 0.  1.
</event>
<event>
 8    1  0.7114239E-009  0.1884450E+03  0.7561462E-02  0.1159871E+00
         -1   -1    0    0    0  501 -0.00000000000E+00  0.00000000000E+00  0.26471128572E+02  0.26471128572E+02  0.00000000000E+00 0.  1.
          1   -1    0    0  501    0  0.00000000000E+00 -0.00000000000E+00 -0.14729606326E+04  0.14729606326E+04  0.00000000000E+00 0. -1.
         25    2    1    2    0    0  0.13866526476E+03  0.86556846542E+02 -0.65805937432E+03  0.68949967112E+03  0.12509001963E+03 0.  0.
         23    2    1    2    0    0 -0.13866526476E+03 -0.86556846542E+02 -0.78843012973E+03  0.80993209007E+03  0.87451573625E+02 0.  0.
          5    1    3    3  502    0  0.21495097704E+02  0.69794143338E+02 -0.13869946570E+03  0.15680649175E+03  0.41800000000E+01 0.  1.
         -5    1    3    3    0  502  0.11717016705E+03  0.16762703204E+02 -0.51935990862E+03  0.53269317937E+03  0.41800000000E+01 0.  1.
        -11    1    4    4    0    0 -0.76537756924E+02  0.26633803040E+01 -0.33774239905E+03  0.34631640149E+03  0.00000000000E+00 0. -1.
         11    1    4    4    0    0 -0.62127507834E+02 -0.89220226846E+02 -0.45068773068E+03  0.46361568858E+03  0.00000000000E+00 0.  1.
</event>
<event>
 8    1  0.7114239E-009  0.9134469E+02  0.7561462E-02  0.1299628E+00
         -2   -1    0    0    0  501 -0.00000000000E+00  0.00000000000E+00  0.12382774635E+03  0.12382774635E+03  0.00000000000E+00 0.  1.
          2   -1    0    0  501    0  0.00000000000E+00 -0.00000000000E+00 -0.17162941438E+03  0.17162941438E+03  0.00000000000E+00 0. -1.
         25    2    1    2    0    0  0.16327736615E+02  0.68954127777E+01 -0.12530660104E+03  0.17794195805E+03  0.12508978564E+03 0.  0.
         23    2    1    2    0    0 -0.16327736615E+02 -0.68954127777E+01  0.77504933019E+02  0.11751520267E+03  0.86537081746E+02 0.  0.
          5    1    3    3  502    0  0.29437299591E+02 -0.39890380986E+02 -0.73374579673E+01  0.50290235552E+02  0.41800000000E+01 0.  1.
         -5    1    3    3    0  502 -0.13109562976E+02  0.46785793764E+02 -0.11796914308E+03  0.12765172250E+03  0.41800000000E+01 0.  1.
        -11    1    4    4    0    0 -0.17833587925E+02  0.36565759335E+02  0.55397544956E+02  0.68731212714E+02  0.00000000000E+00 0.  1.
         11    1    4    4    0    0  0.15058513096E+01 -0.43461172112E+02  0.22107388063E+02  0.48783989961E+02  0.00000000000E+00 0. -1.
</event>
<event>
 8    1  0.7114239E-009  0.1210070E+03  0.7561462E-02  0.1241445E+00
         -1   -1    0    0    0  501 -0.00000000000E+00  0.00000000000E+00  0.32745742140E+02  0.32745742140E+02  0.00000000000E+00 0.  1.
          1   -1    0    0  501    0  0.00000000000E+00 -0.00000000000E+00 -0.54128791027E+03  0.54128791027E+03  0.00000000000E+00 0. -1.
         25    2    1    2    0    0  0.23998746885E+02 -0.48258508876E+02 -0.37680741503E+03  0.40067081190E+03  0.12509375666E+03 0.  0.
         23    2    1    2    0    0 -0.23998746885E+02  0.48258508876E+02 -0.13173475310E+03  0.17336284051E+03  0.98973763009E+02 0.  0.
          5    1    3    3  502    0  0.73908524533E+02 -0.15825284690E+02 -0.23252917921E+03  0.24454079664E+03  0.41800000000E+01 0. -1.
         -5    1    3    3    0  502 -0.49909777648E+02 -0.32433224186E+02 -0.14427823582E+03  0.15613001526E+03  0.41800000000E+01 0. -1.
        -11    1    4    4    0    0 -0.38317363115E+01  0.73913820067E+02 -0.11481835759E+03  0.13660596708E+03  0.00000000000E+00 0. -1.
         11    1    4    4    0    0 -0.20167010573E+02 -0.25655311190E+02 -0.16916395506E+02  0.36756873434E+02  0.00000000000E+00 0.  1.
</event>
<event>
 8    1  0.7114239E-009  0.9220748E+02  0.7561462E-02  0.1297592E+00
          1   -1    0    0  501    0  0.00000000000E+00  0.00000000000E+00  0.10479978863E+04  0.10479978863E+04  0.00000000000E+00 0. -1.
         -1   -1    0    0    0  501 -0.00000000000E+00 -0.00000000000E+00 -0.13165352197E+02  0.13165352197E+02  0.00000000000E+00 0.  1.
         25    2    1    2    0    0  0.57917208587E+01  0.28364785968E+02  0.74868875205E+03  0.75961836114E+03  0.12508837685E+03 0.  0.
         23    2    1    2    0    0 -0.57917208587E+01 -0.28364785968E+02  0.28614378206E+03  0.30154487736E+03  0.90625294148E+02 0.  0.
          5    1    3    3  502    0  0.33908768578E+02  0.49898404121E+02  0.67552289963E+03  0.67822438444E+03  0.41800000000E+01 0. -1.
         -5    1    3    3    0  502 -0.28117047719E+02 -0.21533618153E+02  0.73165852413E+02  0.81393976697E+02  0.41800000000E+01 0. -1.
        -11    1    4    4    0    0  0.36160235947E+02 -0.28953080749E+02  0.93019683919E+02  0.10391585608E+03  0.00000000000E+00 0.  1.
         11    1    4    4    0    0 -0.41951956806E+02  0.58829478137E+00  0.19312409814E+03  0.19762902128E+03  0.00000000000E+00 0. -1.
</event>
<event>
 8    1  0.7114239E-009  0.1890771E+03  0.7561462E-02  0.1159296E+00
          1   -1    0    0  501    0  0.00000000000E+00  0.00000000000E+00  0.94210429523E+02  0.94210429523E+02  0.00000000000E+00 0. -1.
         -1   -1    0    0    0  501 -0.00000000000E+00 -0.00000000000E+00 -0.63198014272E+03  0.63198014272E+03  0.00000000000E+00 0.  1.
         25    2    1    2    0    0 -0.15831846581E+03 -0.34003767307E+02 -0.59843246868E+02  0.21318966684E+03  0.12509047543E+03 0.  0.
         23    2    1    2    0    0  0.15831846581E+03  0.34003767307E+02 -0.47792646633E+03  0.51300090540E+03  0.92386302649E+02 0.  0.
          5    1    3    3  502    0 -0.10572796659E+03  0.38255978263E+02 -0.16304182543E+02  0.11368914443E+03  0.41800000000E+01 0.  1.
         -5    1    3    3    0  502 -0.52590499221E+02 -0.72259745570E+02 -0.43539064324E+02  0.99500522412E+02  0.41800000000E+01 0.  1.
        -11    1    4    4    0    0  0.83227823986E+02 -0.17586976055E+02 -0.31551850969E+03  0.32678448918E+03  0.00000000000E+00 0.  1.
         11    1    4    4    0    0  0.75090641827E+02  0.51590743362E+02 -0.16240795664E+03  0.18621641622E+03  0.00000000000E+00 0. -1.
</event>
<event>
 8    1  0.7114239E-009  0.1323672E+03  0.7561462E-02  0.1223985E+00
         -2   -1    0    0    0  501 -0.00000000000E+00  0.00000000000E+00  0.35072756075E+02  0.35072756075E+02  0.00000000000E+00 0.  1.
          2   -1    0    0  501    0  0.00000000000E+00 -0.00000000000E+00 -0.73326646816E+03  0.73326646816E+03  0.00000000000E+00 0. -1.
         25    2    1    2    0    0 -0.10529537264E+03  0.25629010738E+02 -0.46540248568E+03  0.49395432806E+03  0.12508973918E+03 0.  0.
         23    2    1    2    0    0  0.10529537264E+03 -0.25629010738E+02 -0.23279122641E+03  0.27438489617E+03  0.96702401548E+02 0.  0.
          5    1    3    3  502    0 -0.60404391354E+02  0.41680411454E+02 -0.93258720660E+02  0.11874598340E+03  0.41800000000E+01 0.  1.
         -5    1    3    3    0  502 -0.44890981282E+02 -0.16051400716E+02 -0.37214376502E+03  0.37520834466E+03  0.41800000000E+01 0.  1.
        -11    1    4    4    0    0  0.98921368187E+02  0.16909190801E+02 -0.14157958134E+03  0.17354001172E+03  0.00000000000E+00 0.  1.
         11    1    4    4    0    0  0.63740044485E+01 -0.42538201539E+02 -0.91211645072E+02  0.10084488445E+03  0.00000000000E+00 0. -1.
</event>
<event>
 8    1  0.7114239E-009  0.1038323E+03  0.7561462E-02  0.1272437E+00
          4   -1    0    0  501    0  0.00000000000E+00  0.00000000000E+00  0.18961734475E+03  0.18961734475E+03  0.00000000000E+00 0. -1.
         -4   -1    0    0    0  501 -0.00000000000E+00 -0.00000000000E+00 -0.67710929779E+02  0.67710929779E+02  0.00000000000E+00 0.  1.
         25    2    1    2    0    0 -0.45248577794E+01  0.29424506095E+02  0.85647245708E+02  0.15450125772E+03  0.12509561160E+03 0.  0.
         23    2    1    2    0    0  0.45248577794E+01 -0.29424506095E+02  0.36259169261E+02  0.10282701681E+03  0.91500776684E+02 0.  0.
          5    1    3    3  502    0  0.34183877476E+02 -0.35110365006E+02  0.53182259536E+02  0.72436871409E+02  0.41800000000E+01 0. -1.
         -5    1    3    3    0  502 -0.38708735256E+02  0.64534871101E+02  0.32464986172E+02  0.82064386309E+02  0.41800000000E+01 0. -1.
        -11    1    4    4    0    0  0.37935277420E+02 -0.31965641769E+02 -0.47908925684E+01  0.49838139796E+02  0.00000000000E+00 0.  1.
         11    1    4    4    0    0 -0.33410419641E+02  0.25411356744E+01  0.41050061829E+02  0.52988877015E+02  0.00000000000E+00 0. -1.
</event>
<event>
 8    1  0.7114239E-009  0.1097922E+03  0.7561462E-02  0.1260955E+00
          2   -1    0    0  501    0  0.00000000000E+00  0.00000000000E+00  0.16032236035E+03  0.16032236035E+03  0.00000000000E+00 0.  1.
         -2   -1    0    0    0  501 -0.00000000000E+00 -0.00000000000E+00 -0.10370928940E+03  0.10370928940E+03  0.00000000000E+00 0. -1.
         25    2    1    2    0    0 -0.48285645233E+02  0.16222629404E+02 -0.22259785984E+02  0.13688583556E+03  0.12509019412E+03 0.  0.
         23    2    1    2    0    0  0.48285645233E+02 -0.16222629404E+02  0.78872856931E+02  0.12714581420E+03  0.85734784461E+02 0.  0.
          5    1    3    3  502    0 -0.79530416816E+02  0.44296298908E+02 -0.49557015024E+01  0.91264892885E+02  0.41800000000E+01 0.  1.
         -5    1    3    3    0  502  0.31244771583E+02 -0.28073669504E+02 -0.17304084482E+02  0.45620942674E+02  0.41800000000E+01 0.  1.
        -11    1    4    4    0    0  0.32940805973E+02  0.25583692577E+02  0.70378766335E+02  0.81809490739E+02  0.00000000000E+00 0.  1.
         11    1    4    4    0    0  0.15344839260E+02 -0.41806321981E+02  0.84940905960E+01  0.45336323457E+02  0.00000000000E+00 0. -1.
</event>
<event>
 8    1  0.7114239E-009  0.7696502E+02  0.7561462E-02  0.1337892E+00
          1   -1    0    0  501    0  0.00000000000E+00  0.00000000000E+00  0.98862084673E+03  0.98862084673E+03  0.00000000000E+00 0. -1.
         -1   -1    0    0    0  501 -0.00000000000E+00 -0.00000000000E+00 -0.14705441300E+02  0.14705441300E+02  0.00000000000E+00 0.  1.
         25    2    1    2    0    0  0.32803544934E+02 -0.15277248421E+02  0.72277922948E+03  0.73441604882E+03  0.12509057246E+03 0.  0.
         23    2    1    2    0    0 -0.32803544934E+02  0.15277248421E+02  0.25113617595E+03  0.26891023921E+03  0.89072279643E+02 0.  0.
          5    1    3    3  502    0 -0.38177007229E-01 -0.23342727349E+02  0.67665384737E+03  0.67706926229E+03  0.41800000000E+01 0. -1.
         -5    1    3    3    0  502  0.32841721941E+02  0.80654789280E+01  0.46125382101E+02  0.57346786522E+02  0.41800000000E+01 0. -1.
        -11    1    4    4    0    0  0.26923539614E+02  0.23642738438E+02  0.92931579739E+02  0.99599872384E+02  0.00000000000E+00 0. -1.
         11    1    4    4    0    0 -0.59727084548E+02 -0.83654900175E+01  0.15820459621E+03  0.16931036683E+03  0.00000000000E+00 0.  1.
</event>
<event>
 8    1  0.7114239E-009  0.2096847E+03  0.7561462E-02  0.1141816E+00
          1   -1    0    0  501    0  0.00000000000E+00  0.00000000000E+00  0.73494143424E+02  0.73494143424E+02  0.00000000000E+00 0. -1.
         -1   -1    0    0    0  501 -0.00000000000E+00 -0.00000000000E+00 -0.88350456723E+03  0.88350456723E+03  0.00000000000E+00 0.  1.
         25    2    1    2    0    0  0.13323075886E+03 -0.13525041503E+03 -0.66101728391E+03  0.69902401544E+03  0.12509042593E+03 0.  0.
         23    2    1    2    0    0 -0.13323075886E+03  0.13525041503E+03 -0.14899313989E+03  0.25797469521E+03  0.91153045821E+02 0.  0.
          5    1    3    3  502    0  0.27615547588E+02  0.14785716284E+02 -0.20564132383E+03  0.20805543093E+03  0.41800000000E+01 0.  1.
         -5    1    3    3    0  502  0.10561521128E+03 -0.15003613131E+03 -0.45537596008E+03  0.49096858451E+03  0.41800000000E+01 0.  1.
        -11    1    4    4    0    0 -0.47549840784E+02  0.10161796995E+03 -0.11272624125E+03  0.15904214737E+03  0.00000000000E+00 0.  1.
         11    1    4    4    0    0 -0.85680918079E+02  0.33632445080E+02 -0.36266898646E+02  0.98932547841E+02  0.00000000000E+00 0. -1.
</event>
<event>
 8    1  0.7114239E-009  0.1088764E+03  0.7561462E-02  0.1262665E+00
          2   -1    0    0  501    0  0.00000000000E+00  0.00000000000E+00  0.15735663978E+03  0.15735663978E+03  0.00000000000E+00 0. -1.
         -2   -1    0    0    0  501 -0.00000000000E+00 -0.00000000000E+00 -0.91698154003E+02  0.91698154003E+02  0.00000000000E+00 0.  1.
         25    2    1    2    0    0  0.10681217051E+02 -0.51077052017E+02  0.50738738808E+02  0.14471508724E+03  0.12508030708E+03 0.  0.
         23    2    1    2    0    0 -0.10681217051E+02  0.51077052017E+02  0.14919746971E+02  0.10433970654E+03  0.89113533605E+02 0.  0.
          5    1    3    3  502    0 -0.36934385047E+02 -0.73712629330E+02  0.33450904621E+02  0.89073766854E+02  0.41800000000E+01 0.  1.
         -5    1    3    3    0  502  0.47615602098E+02  0.22635577313E+02  0.17287834187E+02  0.55641320387E+02  0.41800000000E+01 0.  1.
        -11    1    4    4    0    0 -0.27945739695E+02 -0.47012451180E+00 -0.24517867501E+02  0.37179446081E+02  0.00000000000E+00 0.  1.
         11    1    4    4    0    0  0.17264522643E+02  0.51547176529E+02  0.39437614472E+02  0.67160260463E+02  0.00000000000E+00 0. -1.
</event>
<event>
 8    1  0.7114239E-009  0.3825011E+03  0.7561462E-02  0.1050013E+00
         -1   -1    0    0    0  501 -0.00000000000E+00  0.00000000000E+00  0.27645299273E+03  0.27645299273E+03  0.00000000000E+00 0.  1.
          1   -1    0    0  501    0  0.00000000000E+00 -0.00000000000E+00 -0.63131556504E+03  0.63131556504E+03  0.00000000000E+00 0. -1.
         25    2    1    2    0    0  0.24336014318E+03 -0.28656095374E+03 -0.20959582122E+02  0.39677185150E+03  0.12508900255E+03 0.  0.
         23    2    1    2    0    0 -0.24336014318E+03  0.28656095374E+03 -0.33390299019E+03  0.51099670627E+03  0.91022455834E+02 0.  0.
          5    1    3    3  502    0  0.67838343642E+02 -0.22289029437E+02 -0.34060570826E+02  0.79223964722E+02  0.41800000000E+01 0.  1.
         -5    1    3    3    0  502  0.17552179954E+03 -0.26427192431E+03  0.13100988704E+02  0.31754788677E+03  0.41800000000E+01 0.  1.
        -11    1    4    4    0    0 -0.18804837830E+03  0.22993040326E+03 -0.30753386053E+03  0.42755965467E+03  0.00000000000E+00 0. -1.
         11    1    4    4    0    0 -0.55311764876E+02  0.56630550482E+02 -0.26369129656E+02  0.83437051604E+02  0.00000000000E+00 0.  1.
</event>
<event>
 8    1  0.7114239E-009  0.1059020E+03  0.7561462E-02  0.1268353E+00
          2   -1    0    0  501    0  0.00000000000E+00  0.00000000000E+00  0.17935190852E+03  0.17935190852E+03  0.00000000000E+00 0. -1.
         -2   -1    0    0    0  501 -0.00000000000E+00 -0.00000000000E+00 -0.76534971591E+02  0.76534971591E+02  0.00000000000E+00 0.  1.
         25    2    1    2    0    0  0.28088214807E+02 -0.60745307670E+01  0.91262008718E+02  0.15748726187E+03  0.12509050995E+03 0.  0.
         23    2    1    2    0    0 -0.28088214807E+02  0.60745307670E+01  0.11554928216E+02  0.98399618248E+02  0.93397648633E+02 0.  0.
          5    1    3    3  502    0  0.32964521290E+02  0.56189666090E+02  0.53348901860E+02  0.84306085005E+02  0.41800000000E+01 0.  1.
         -5    1    3    3    0  502 -0.48763064832E+01 -0.62264196857E+02  0.37913106858E+02  0.73181176861E+02  0.41800000000E+01 0.  1.
        -11    1    4    4    0    0  0.13528349703E+02  0.32107821721E+02  0.29982802497E+02  0.45966258352E+02  0.00000000000E+00 0. -1.
         11    1    4    4    0    0 -0.41616564510E+02 -0.26033290954E+02 -0.18427874281E+02  0.52433359896E+02  0.00000000000E+00 0.  1.
</event>
<event>
 8    1  0.7114239E-009  0.8257998E+02  0.7561462E-02  0.1321885E+00
          1   -1    0    0  501    0  0.00000000000E+00  0.00000000000E+00  0.13560626668E+03  0.13560626668E+03  0.00000000000E+00 0. -1.
         -1   -1    0    0    0  501 -0.00000000000E+00 -0.00000000000E+00 -0.98799691921E+02  0.98799691921E+02  0.00000000000E+00 0.  1.
         25    2    1    2    0    0  0.22356972778E+02 -0.31218085211E+01 -0.14550867636E+02  0.12794068362E+03  0.12509001102E+03 0.  0.
         23    2    1    2    0    0 -0.22356972778E+02  0.31218085211E+01  0.51357442395E+02  0.10646527498E+03  0.90485844009E+02 0.  0.
          5    1    3    3  502    0  0.68870088907E+02 -0.24589172074E+02  0.38480679646E+01  0.73348459809E+02  0.41800000000E+01 0.  1.
         -5    1    3    3    0  502 -0.46513116129E+02  0.21467363552E+02 -0.18398935601E+02  0.54592223816E+02  0.41800000000E+01 0.  1.
        -11    1    4    4    0    0 -0.63298221926E+01 -0.15024510125E+02 -0.23041521328E+02  0.28226127234E+02  0.00000000000E+00 0.  1.
         11    1    4    4    0    0 -0.16027150585E+02  0.18146318646E+02  0.74398963723E+02  0.78239147742E+02  0.00000000000E+00 0. -1.
</event>
<event>
 8    1  0.7114239E-009  0.2313576E+03  0.7561462E-02  0.1125688E+00
         -2   -1    0    0    0  501 -0.00000000000E+00  0.00000000000E+00  0.16241672573E+03  0.16241672573E+03  0.00000000000E+00 0.  1.
          2   -1    0    0  501    0  0.00000000000E+00 -0.00000000000E+00 -0.39697029654E+03  0.39697029654E+03  0.00000000000E+00 0. -1.
         25    2    1    2    0    0 -0.20396629683E+03 -0.46432493315E+02 -0.22618573455E+03  0.33251569800E+03  0.12509386966E+03 0.  0.
         23    2    1    2    0    0  0.20396629683E+03  0.46432493315E+02 -0.83678362571E+01  0.22687132427E+03  0.87420537718E+02 0.  0.
          5    1    3    3  502    0 -0.21841104493E+03 -0.29553620407E+02 -0.19733740775E+03  0.29586538480E+03  0.41800000000E+01 0.  1.
         -5    1    3    3    0  502  0.14444748102E+02 -0.16878872908E+02 -0.28848326803E+02  0.36650313201E+02  0.41800000000E+01 0.  1.
        -11    1    4    4    0    0  0.26698612097E+02 -0.16703301737E+02 -0.21666971379E+02  0.38226611484E+02  0.00000000000E+00 0. -1.
         11    1    4    4    0    0  0.17726768473E+03  0.63135795052E+02  0.13299135122E+02  0.18864471278E+03  0.00000000000E+00 0.  1.
</event>
<event>
 8    1  0.7114239E-009  0.1074278E+03  0.7561462E-02  0.1265409E+00
          2   -1    0    0  501    0  0.00000000000E+00  0.00000000000E+00  0.15950122961E+03  0.15950122961E+03  0.00000000000E+00 0. -1.
         -2   -1    0    0    0  501 -0.00000000000E+00 -0.00000000000E+00 -0.14299710136E+03  0.14299710136E+03  0.00000000000E+00 0.  1.
         25    2    1    2    0    0 -0.74929323100E+02  0.37048630617E+02 -0.53776924558E+02  0.15976568096E+03  0.12508441432E+03 0.  0.
         23    2    1    2    0    0  0.74929323100E+02 -0.37048630617E+02  0.70281052803E+02  0.14273265001E+03  0.91903093014E+02 0.  0.
          5    1    3    3  502    0 -0.68170776388E+02  0.15307998452E+02  0.27541450330E+02  0.75216975851E+02  0.41800000000E+01 0. -1.
         -5    1    3    3    0  502 -0.67585467120E+01  0.21740632166E+02 -0.81318374887E+02  0.84548705105E+02  0.41800000000E+01 0. -1.
        -11    1    4    4    0    0  0.92592082182E+02 -0.15546407331E+02  0.41347287505E+02  0.10258938857E+03  0.00000000000E+00 0.  1.
         11    1    4    4    0    0 -0.17662759082E+02 -0.21502223286E+02  0.28933765298E+02  0.40143261439E+02  0.00000000000E+00 0. -1.
</event>
<event>
 8    1  0.7114239E-009  0.1057671E+03  0.7561462E-02  0.1268616E+00
         -1   -1    0    0    0  501 -0.00000000000E+00  0.00000000000E+00  0.30605486100E+02  0.30605486100E+02  0.00000000000E+00 0.  1.
          1   -1    0    0  501    0  0.00000000000E+00 -0.00000000000E+00 -0.56063639637E+03  0.56063639637E+03  0.00000000000E+00 0. -1.
         25    2    1    2    0    0  0.35122774149E+02  0.25348107523E+02 -0.44450684605E+03  0.46379939870E+03  0.12508960881E+03 0.  0.
         23    2    1    2    0    0 -0.35122774149E+02 -0.25348107523E+02 -0.85524064221E+02  0.12744248377E+03  0.83970740674E+02 0.  0.
          5    1    3    3  502    0  0.37907750111E+01 -0.42427533622E+02 -0.27791790935E+03  0.28119442086E+03  0.41800000000E+01 0.  1.
         -5    1    3    3    0  502  0.31331999138E+02  0.67775641145E+02 -0.16658893670E+03  0.18260497784E+03  0.41800000000E+01 0.  1.
        -11    1    4    4    0    0  0.57270469332E+01 -0.47251319757E+02 -0.36549348947E+02  0.60011175575E+02  0.00000000000E+00 0. -1.
         11    1    4    4    0    0 -0.40849821082E+02  0.21903212234E+02 -0.48974715273E+02  0.67431308194E+02  0.00000000000E+00 0.  1.
</event>
<event>
 8    1  0.7114239E-009  0.1353606E+03  0.7561462E-02  0.1219712E+00
         -1   -1    0    0    0  501 -0.00000000000E+00  0.00000000000E+00  0.71333613973E+02  0.71333613973E+02  0.00000000000E+00 0.  1.
          1   -1    0    0  501    0  0.00000000000E+00 -0.00000000000E+00 -0.28317196644E+03  0.28317196644E+03  0.00000000000E+00 0. -1.
         25    2    1    2    0    0  0.70136084782E+02 -0.49918863820E+02 -0.75234797807E+02  0.16946589477E+03  0.12508977310E+03 0.  0.
         23    2    1    2    0    0 -0.70136084782E+02  0.49918863820E+02 -0.13660355465E+03  0.18503968564E+03  0.90378043591E+02 0.  0.
          5    1    3    3  502    0  0.74740993274E+02 -0.84161748530E+02 -0.38930317172E+02  0.11917406591E+03  0.41800000000E+01 0. -1.
         -5    1    3    3    0  502 -0.46049084919E+01  0.34242884710E+02 -0.36304480635E+02  0.50291828856E+02  0.41800000000E+01 0. -1.
        -11    1    4    4    0    0 -0.84065002180E+02  0.14609963586E+02 -0.80523318411E+02  0.11732169635E+03  0.00000000000E+00 0. -1.
         11    1    4    4    0    0  0.13928917397E+02  0.35308900235E+02 -0.56080236244E+02  0.67717989285E+02  0.00000000000E+00 0.  1.
</event>
<event>
 8    1  0.7114239E-009  0.1870403E+03  0.7561462E-02  0.1161158E+00
         -2   -1    0    0    0  501 -0.00000000000E+00  0.00000000000E+00  0.81424214906E+02  0.81424214906E+02  0.00000000000E+00 0.  1.
          2   -1    0    0  501    0  0.00000000000E+00 -0.00000000000E+00 -0.53999779944E+03  0.53999779944E+03  0.00000000000E+00 0. -1.
         25    2    1    2    0    0  0.25705595095E+02 -0.17475077749E+03 -0.28446339994E+03  0.35744262971E+03  0.12508875159E+03 0.  0.
         23    2    1    2    0    0 -0.25705595095E+02  0.17475077749E+03 -0.17411018460E+03  0.26397938464E+03  0.90399929663E+02 0.  0.
          5    1    3    3  502    0  0.84904632173E+01 -0.13251671388E+03 -0.97081708569E+02  0.16454512440E+03  0.41800000000E+01 0. -1.
         -5    1    3    3    0  502  0.17215131878E+02 -0.42234063607E+02 -0.18738169137E+03  0.19289750531E+03  0.41800000000E+01 0. -1.
        -11    1    4    4    0    0 -0.36885477570E+02  0.17952177981E+03 -0.14943566183E+03  0.23647330697E+03  0.00000000000E+00 0.  1.
         11    1    4    4    0    0  0.11179882475E+02 -0.47710023195E+01 -0.24674522766E+02  0.27506077674E+02  0.00000000000E+00 0. -1.
</event>
<event>
 8    1  0.7114239E-009  0.1752815E+03  0.7561462E-02  0.1172449E+00
         -2   -1    0    0    0  501 -0.00000000000E+00  0.00000000000E+00  0.36299248726E+02  0.36299248726E+02  0.00000000000E+00 0.  1.
          2   -1    0    0  501    0  0.00000000000E+00 -0.00000000000E+00 -0.15090963034E+04  0.15090963034E+04  0.00000000000E+00 0. -1.
         25    2    1    2    0    0  0.81213757735E+02 -0.12872088080E+03 -0.12213786272E+04  0.12371651870E+04  0.12508880607E+03 0.  0.
         23    2    1    2    0    0 -0.81213757735E+02  0.12872088080E+03 -0.25141842744E+03  0.30823036506E+03  0.92897753972E+02 0.  0.
          5    1    3    3  502    0 -0.97255323897E+01  0.12365829139E+02 -0.31140609915E+03  0.31183125357E+03  0.41800000000E+01 0. -1.
         -5    1    3    3    0  502  0.90939290125E+02 -0.14108670994E+03 -0.90997252806E+03  0.92533393348E+03  0.41800000000E+01 0. -1.
        -11    1    4    4    0    0 -0.88258840994E+02  0.86522118701E+02 -0.22828095987E+03  0.25959178854E+03  0.00000000000E+00 0.  1.
         11    1    4    4    0    0  0.70450832587E+01  0.42198762102E+02 -0.23137467568E+02  0.48638576526E+02  0.00000000000E+00 0. -1.
</event>
<event>
 8    1  0.7114239E-009  0.1273241E+03  0.7561462E-02  0.1231481E+00
          1   -1    0    0  501    0  0.00000000000E+00  0.00000000000E+00  0.17218022159E+03  0.17218022159E+03  0.00000000000E+00 0. -1.
         -1   -1    0    0    0  501 -0.00000000000E+00 -0.00000000000E+00 -0.12468974533E+03  0.12468974533E+03  0.00000000000E+00 0.  1.
         25    2    1    2    0    0 -0.88153760162E+02  0.23326274051E+02 -0.10472270380E+02  0.15515082943E+03  0.12508761304E+03 0.  0.
         23    2    1    2    0    0  0.88153760162E+02 -0.23326274051E+02  0.57962746640E+02  0.14171913749E+03  0.91702963095E+02 0.  0.
          5    1    3    3  502    0  0.96522964198E+01 -0.26653089747E+02  0.26654577013E+02  0.39134293081E+02  0.41800000000E+01 0. -1.
         -5    1    3    3    0  502 -0.97806056582E+02  0.49979363797E+02 -0.37126847393E+02  0.11601653635E+03  0.41800000000E+01 0. -1.
        -11    1    4    4    0    0 -0.11979697283E+02  0.33761144069E+01 -0.11511601926E+02  0.16953709753E+02  0.00000000000E+00 0.  1.
         11    1    4    4    0    0  0.10013345745E+03 -0.26702388457E+02  0.69474348566E+02  0.12476542774E+03  0.00000000000E+00 0. -1.
</event>
<event>
 8    1  0.7114239E-009  0.8024196E+02  0.7561462E-02  0.1328366E+00
         -1   -1    0    0    0  501 -0.00000000000E+00  0.00000000000E+00  0.11491154224E+03  0.11491154224E+03  0.00000000000E+00 0.  1.
          1   -1    0    0  501    0  0.00000000000E+00 -0.00000000000E+00 -0.11958659341E+03  0.11958659341E+03  0.00000000000E+00 0. -1.
         25    2    1    2    0    0 -0.30602718199E+02 -0.66337576748E+01  0.27607217060E+02  0.13188044452E+03  0.12509900123E+03 0.  0.
         23    2    1    2    0    0  0.30602718199E+02  0.66337576748E+01 -0.32282268231E+02  0.10261769114E+03  0.92237262481E+02 0.  0.
          5    1    3    3  502    0 -0.49949979331E+01 -0.55264913731E+02 -0.19914201966E+02  0.59103371596E+02  0.41800000000E+01 0. -1.
         -5    1    3    3    0  502 -0.25607720266E+02  0.48631156056E+02  0.47521419026E+02  0.72777072920E+02  0.41800000000E+01 0. -1.
        -11    1    4    4    0    0  0.21787129310E+02  0.22654189153E+02 -0.60971777355E+02  0.68596274852E+02  0.00000000000E+00 0. -1.
         11    1    4    4    0    0  0.88155888890E+01 -0.16020431479E+02  0.28689509124E+02  0.34021416284E+02  0.00000000000E+00 0.  1.
</event>
<event>
 8    1  0.7114239E-009  0.7630694E+02  0.7561462E-02  0.1339871E+00
         -2   -1    0    0    0  501 -0.00000000000E+00  0.00000000000E+00  0.67748072420E+02  0.67748072420E+02  0.00000000000E+00 0.  1.
          2   -1    0    0  501    0  0.00000000000E+00 -0.00000000000E+00 -0.26509477319E+03  0.26509477319E+03  0.00000000000E+00 0. -1.
         25    2    1    2    0    0  0.28360325263E+02 -0.54285537685E+02 -0.17065351675E+03  0.22027230859E+03  0.12508412969E+03 0.  0.
         23    2    1    2    0    0 -0.28360325263E+02  0.54285537685E+02 -0.26693184020E+02  0.11257053702E+03  0.90600066672E+02 0.  0.
          5    1    3    3  502    0  0.23922531780E+02 -0.30418327510E+02  0.81603428962E+01  0.39769658930E+02  0.41800000000E+01 0. -1.
         -5    1    3    3    0  502  0.44377934835E+01 -0.23867210175E+02 -0.17881385964E+03  0.18050264966E+03  0.41800000000E+01 0. -1.
        -11    1    4    4    0    0  0.19238897269E+00  0.59947855050E+02  0.14929411841E+02  0.61779201003E+02  0.00000000000E+00 0.  1.
         11    1    4    4    0    0 -0.28552714236E+02 -0.56623173655E+01 -0.41622595861E+02  0.50791336017E+02  0.00000000000E+00 0. -1.
</event>
<event>
 8    1  0.7114239E-009  0.1799929E+03  0.7561462E-02  0.1167810E+00
         -1   -1    0    0    0  501 -0.00000000000E+00  0.00000000000E+00  0.79927192133E+02  0.79927192133E+02  0.00000000000E+00 0.  1.
          1   -1    0    0  501    0  0.00000000000E+00 -0.00000000000E+00 -0.49417574716E+03  0.49417574716E+03  0.00000000000E+00 0. -1.
         25    2    1    2    0    0  0.15476037821E+03 -0.61012396667E+02 -0.23373971089E+03  0.31297671843E+03  0.12508751584E+03 0.  0.
         23    2    1    2    0    0 -0.15476037821E+03  0.61012396667E+02 -0.18050884414E+03  0.26112622087E+03  0.89051519930E+02 0.  0.
          5    1    3    3  502    0  0.61168889456E+01  0.86153193611E+01  0.12576653387E+02  0.16949473988E+02  0.41800000000E+01 0. -1.
         -5    1    3    3    0  502  0.14864348926E+03 -0.69627716028E+02 -0.24631636428E+03  0.29602724444E+03  0.41800000000E+01 0. -1.
        -11    1    4    4    0    0 -0.15974769171E+03  0.42570625320E+02 -0.14117413047E+03  0.21739760408E+03  0.00000000000E+00 0.  1.
         11    1    4    4    0    0  0.49873135011E+01  0.18441771347E+02 -0.39334713675E+02  0.43728616789E+02  0.00000000000E+00 0. -1.
</event>
<event>
 8    1  0.7114239E-009  0.1343002E+03  0.7561462E-02  0.1221211E+00
         -3   -1    0    0    0  501 -0.00000000000E+00  0.00000000000E+00  0.93662312500E+02  0.93662312500E+02  0.00000000000E+00 0.  1.
          3   -1    0    0  501    0  0.00000000000E+00 -0.00000000000E+00 -0.24165083824E+03  0.24165083824E+03  0.00000000000E+00 0. -1.
         25    2    1    2    0    0  0.34298414383E+02 -0.86273307982E+02 -0.26479136794E+02  0.15801103886E+03  0.12508748465E+03 0.  0.
         23    2    1    2    0    0 -0.34298414383E+02  0.86273307982E+02 -0.12150938895E+03  0.17730211189E+03  0.89733173227E+02 0.  0.
          5    1    3    3  502    0  0.79865448519E+02 -0.60558416028E+02 -0.31843582201E+02  0.10524874226E+03  0.41800000000E+01 0.  1.
         -5    1    3    3    0  502 -0.45567034136E+02 -0.25714891954E+02  0.53644454075E+01  0.52762296602E+02  0.41800000000E+01 0.  1.
        -11    1    4    4    0    0 -0.44437294758E+02  0.19964502082E+02 -0.91826136599E+02  0.10394851548E+03  0.00000000000E+00 0. -1.
         11    1    4    4    0    0  0.10138880375E+02  0.66308805900E+02 -0.29683252352E+02  0.73353596403E+02  0.00000000000E+00 0.  1.
</event>
<event>
 8    1  0.7114239E-009  0.7610946E+02  0.7561462E-02  0.1340469E+00
          2   -1    0    0  501    0  0.00000000000E+00  0.00000000000E+00  0.16194731164E+03  0.16194731164E+03  0.00000000000E+00 0.  1.
         -2   -1    0    0    0  501 -0.00000000000E+00 -0.00000000000E+00 -0.82986077798E+02  0.82986077798E+02  0.00000000000E+00 0. -1.
         25    2    1    2    0    0 -0.18857973585E+02  0.35100575296E+02  0.40791461392E+02  0.13747193127E+03  0.12508762932E+03 0.  0.
         23    2    1    2    0    0  0.18857973585E+02 -0.35100575296E+02  0.38169772448E+02  0.10746145817E+03  0.92213664441E+02 0.  0.
          5    1    3    3  502    0 -0.16360330119E+02 -0.21482503247E+02  0.68888304966E+02  0.74109576361E+02  0.41800000000E+01 0.  1.
         -5    1    3    3    0  502 -0.24976434664E+01  0.56583078543E+02 -0.28096843574E+02  0.63362354905E+02  0.41800000000E+01 0.  1.
        -11    1    4    4    0    0  0.19664944470E+02  0.10637009433E+02  0.54485488787E+02  0.58894180520E+02  0.00000000000E+00 0.  1.
         11    1    4    4    0    0 -0.80697088552E+00 -0.45737584728E+02 -0.16315716339E+02  0.48567277651E+02  0.00000000000E+00 0. -1.
</event>
<event>
 8    1  0.7114239E-009  0.1591295E+03  0.7561462E-02  0.1189683E+00
         -1   -1    0    0    0  501 -0.00000000000E+00  0.00000000000E+00  0.72651278447E+02  0.72651278447E+02  0.00000000000E+00 0.  1.
          1   -1    0    0  501    0  0.00000000000E+00 -0.00000000000E+00 -0.41066878057E+03  0.41066878057E+03  0.00000000000E+00 0. -1.
         25    2    1    2    0    0 -0.13222017486E+03 -0.11793451697E+01 -0.20920314365E+03  0.27730155220E+03  0.12508649026E+03 0.  0.
         23    2    1    2    0    0  0.13222017486E+03  0.11793451697E+01 -0.12881435847E+03  0.20601850682E+03  0.91470873551E+02 0.  0.
          5    1    3    3  502    0  0.16713933185E+01  0.40870739793E+02 -0.56286391283E+02  0.69705388389E+02  0.41800000000E+01 0. -1.
         -5    1    3    3    0  502 -0.13389156818E+03 -0.42050084963E+02 -0.15291675237E+03  0.20759616381E+03  0.41800000000E+01 0. -1.
        -11    1    4    4    0    0  0.98286840584E+02 -0.14514294952E+02 -0.35519191046E+02  0.10551104550E+03  0.00000000000E+00 0.  1.
         11    1    4    4    0    0  0.33933334273E+02  0.15693640122E+02 -0.93295167428E+02  0.10050746132E+03  0.00000000000E+00 0. -1.
</event>
<event>
 8    1  0.7114239E-009  0.7739661E+02  0.7561462E-02  0.1336606E+00
         -1   -1    0    0    0  501 -0.00000000000E+00  0.00000000000E+00  0.68489276124E+02  0.68489276124E+02  0.00000000000E+00 0.  1.
          1   -1    0    0  501    0  0.00000000000E+00 -0.00000000000E+00 -0.21439037727E+03  0.21439037727E+03  0.00000000000E+00 0. -1.
         25    2    1    2    0    0 -0.99621524111E+01  0.23866980888E+02 -0.22617574203E+02  0.12972333168E+03  0.12509081046E+03 0.  0.
         23    2    1    2    0    0  0.99621524111E+01 -0.23866980888E+02 -0.12328352695E+03  0.15315632172E+03  0.87115748338E+02 0.  0.
          5    1    3    3  502    0  0.33538403671E+02  0.10995434156E+02 -0.60703839785E+02  0.70343106683E+02  0.41800000000E+01 0. -1.
         -5    1    3    3    0  502 -0.43500556082E+02  0.12871546732E+02  0.38086265582E+02  0.59380224997E+02  0.41800000000E+01 0. -1.
        -11    1    4    4    0    0  0.24920400689E+02 -0.42823794293E+02 -0.32593100254E+02  0.59306103500E+02  0.00000000000E+00 0.  1.
         11    1    4    4    0    0 -0.14958248278E+02  0.18956813404E+02 -0.90690426692E+02  0.93850218218E+02  0.00000000000E+00 0. -1.
</event>
<event>
 8    1  0.7114239E-009  0.1373534E+03  0.7561462E-02  0.1216935E+00
         -1   -1    0    0    0  501 -0.00000000000E+00  0.00000000000E+00  0.54862732833E+02  0.54862732833E+02  0.00000000000E+00 0.  1.
          1   -1    0    0  501    0  0.00000000000E+00 -0.00000000000E+00 -0.50498925601E+03  0.50498925601E+03  0.00000000000E+00 0. -1.
         25    2    1    2    0    0 -0.22471950056E+01 -0.12022656007E+03 -0.19389807198E+03  0.26019959745E+03  0.12509153675E+03 0.  0.
         23    2    1    2    0    0  0.22471950056E+01  0.12022656007E+03 -0.25622845119E+03  0.29965239139E+03  0.98382218074E+02 0.  0.
          5    1    3    3  502    0  0.66416376906E+01 -0.67672357854E+02 -0.10207124396E+02  0.68886262471E+02  0.41800000000E+01 0.  1.
         -5    1    3    3    0  502 -0.88888326962E+01 -0.52554202212E+02 -0.18369094758E+03  0.19131333498E+03  0.41800000000E+01 0.  1.
        -11    1    4    4    0    0  0.43127318452E+02  0.25885481763E+02 -0.61529283216E+02  0.79472488674E+02  0.00000000000E+00 0.  1.
         11    1    4    4    0    0 -0.40880123446E+02  0.94341078302E+02 -0.19469916798E+03  0.22017990271E+03  0.00000000000E+00 0. -1.
</event>
<event>
 8    1  0.7114239E-009  0.1262407E+03  0.7561462E-02  0.1233143E+00
          2   -1    0    0  501    0  0.00000000000E+00  0.00000000000E+00  0.29204679191E+03  0.29204679191E+03  0.00000000000E+00 0.  1.
         -2   -1    0    0    0  501 -0.00000000000E+00 -0.00000000000E+00 -0.81458016714E+02  0.81458016714E+02  0.00000000000E+00 0. -1.
         25    2    1    2    0    0  0.15091270861E+02  0.10368612496E+03  0.15436514709E+03  0.22461830997E+03  0.12508488147E+03 0.  0.
         23    2    1    2    0    0 -0.15091270861E+02 -0.10368612496E+03  0.56223628111E+02  0.14888649866E+03  0.89596507507E+02 0.  0.
          5    1    3    3  502    0 -0.26849188672E+02  0.67875360280E+02  0.15268327425E+03  0.16928555196E+03  0.41800000000E+01 0.  1.
         -5    1    3    3    0  502  0.41940459533E+02  0.35810764685E+02  0.16818728347E+01  0.55332758013E+02  0.41800000000E+01 0.  1.
        -11    1    4    4    0    0  0.12616359274E+02 -0.93797928007E+02  0.11478172203E+02  0.95336101540E+02  0.00000000000E+00 0. -1.
         11    1    4    4    0    0 -0.27707630135E+02 -0.98881969579E+01  0.44745455908E+02  0.53550397115E+02  0.00000000000E+00 0.  1.
</event>
<event>
 8    1  0.7114239E-009  0.1605820E+03  0.7561462E-02  0.1188041E+00
         -1   -1    0    0    0  501 -0.00000000000E+00  0.00000000000E+00  0.23249528871E+03  0.23249528871E+03  0.00000000000E+00 0.  1.
          1   -1    0    0  501    0  0.00000000000E+00 -0.00000000000E+00 -0.13497138985E+03  0.13497138985E+03  0.00000000000E+00 0. -1.
         25    2    1    2    0    0  0.72053479144E+02 -0.11359547910E+03  0.94610343176E+02  0.20662656688E+03  0.12509110430E+03 0.  0.
         23    2    1    2    0    0 -0.72053479144E+02  0.11359547910E+03  0.29135556848E+01  0.16084011167E+03  0.88121597742E+02 0.  0.
          5    1    3    3  502    0  0.12627129127E+02 -0.12268091907E+03  0.65371624912E+02  0.13964588801E+03  0.41800000000E+01 0.  1.
         -5    1    3    3    0  502  0.59426350017E+02  0.90854399764E+01  0.29238718264E+02  0.66980678868E+02  0.41800000000E+01 0.  1.
        -11    1    4    4    0    0 -0.21805963670E+02  0.60916266275E+02  0.43044005647E+02  0.77711504751E+02  0.00000000000E+00 0.  1.
         11    1    4    4    0    0 -0.50247515474E+02  0.52679212821E+02 -0.40130449962E+02  0.83128606923E+02  0.00000000000E+00 0. -1.
</event>
<event>
 8    1  0.7114239E-009  0.1705229E+03  0.7561462E-02  0.1177304E+00
         -2   -1    0    0    0  501 -0.00000000000E+00  0.00000000000E+00  0.38773711249E+03  0.38773711249E+03  0.00000000000E+00 0.  1.
          2   -1    0    0  501    0  0.00000000000E+00 -0.00000000000E+00 -0.13035679517E+03  0.13035679517E+03  0.00000000000E+00 0. -1.
         25    2    1    2    0    0 -0.15804454462E+03 -0.10163954620E+02 -0.49479976989E-01  0.20181260726E+03  0.12508773698E+03 0.  0.
         23    2    1    2    0    0  0.15804454462E+03  0.10163954620E+02  0.25742979729E+03  0.31628130041E+03  0.93179270207E+02 0.  0.
          5    1    3    3  502    0 -0.36645415594E+02 -0.36974053376E+02 -0.45609424890E+02  0.69337285395E+02  0.41800000000E+01 0.  1.
         -5    1    3    3    0  502 -0.12139912902E+03  0.26810098755E+02  0.45559944913E+02  0.13247532186E+03  0.41800000000E+01 0.  1.
        -11    1    4    4    0    0  0.10455863424E+03 -0.14443037805E+02  0.22624925015E+03  0.24965943308E+03  0.00000000000E+00 0.  1.
         11    1    4    4    0    0  0.53485910380E+02  0.24606992426E+02  0.31180547143E+02  0.66621867322E+02  0.00000000000E+00 0. -1.
</event>
<event>
 8    1  0.7114239E-009  0.8858485E+02  0.7561462E-02  0.1306315E+00
         -1   -1    0    0    0  501 -0.00000000000E+00  0.00000000000E+00  0.98237419834E+02  0.98237419834E+02  0.00000000000E+00 0.  1.
          1   -1    0    0  501    0  0.00000000000E+00 -0.00000000000E+00 -0.15870326321E+03  0.15870326321E+03  0.00000000000E+00 0. -1.
         25    2    1    2    0    0 -0.17626695511E+02 -0.49027353250E+02 -0.68238696451E+02  0.15171484569E+03  0.12508594224E+03 0.  0.
         23    2    1    2    0    0  0.17626695511E+02  0.49027353250E+02  0.77728530789E+01  0.10522583735E+03  0.91091590394E+02 0.  0.
          5    1    3    3  502    0 -0.42972163372E+02 -0.25254847802E+02  0.22211751916E+02  0.54728863369E+02  0.41800000000E+01 0. -1.
         -5    1    3    3    0  502  0.25345467861E+02 -0.23772505448E+02 -0.90450448368E+02  0.96985982318E+02  0.41800000000E+01 0. -1.
        -11    1    4    4    0    0  0.18513607760E+02 -0.17584179282E+02 -0.20610473685E+02  0.32813848583E+02  0.00000000000E+00 0.  1.
         11    1    4    4    0    0 -0.88691224927E+00  0.66611532532E+02  0.28383326764E+02  0.72411988771E+02  0.00000000000E+00 0. -1.
</event>
<event>
 8    1  0.7114239E-009  0.1215910E+03  0.7561462E-02  0.1240495E+00
          1   -1    0    0  501    0  0.00000000000E+00  0.00000000000E+00  0.52418317911E+03  0.52418317911E+03  0.00000000000E+00 0. -1.
         -1   -1    0    0    0  501 -0.00000000000E+00 -0.00000000000E+00 -0.40044879603E+02  0.40044879603E+02  0.00000000000E+00 0.  1.
         25    2    1    2    0    0 -0.16629632994E+02  0.91712069428E+02  0.27059792387E+03  0.31234279534E+03  0.12508851678E+03 0.  0.
         23    2    1    2    0    0  0.16629632994E+02 -0.91712069428E+02  0.21354037564E+03  0.25188526337E+03  0.95702902263E+02 0.  0.
          5    1    3    3  502    0  0.31512883067E+02  0.75660576559E+02  0.23831974689E+03  0.25205427749E+03  0.41800000000E+01 0. -1.
         -5    1    3    3    0  502 -0.48142516061E+02  0.16051492868E+02  0.32278176982E+02  0.60288517856E+02  0.41800000000E+01 0. -1.
        -11    1    4    4    0    0 -0.18279267685E+02 -0.61064063749E+02  0.47566589217E+02  0.79533212675E+02  0.00000000000E+00 0.  1.
         11    1    4    4    0    0  0.34908900679E+02 -0.30648005679E+02  0.16597378642E+03  0.17235205069E+03  0.00000000000E+00 0. -1.
</event>
<event>
 8    1  0.7114239E-009  0.1234684E+03  0.7561462E-02  0.1237483E+00
         -2   -1    0    0    0  501 -0.00000000000E+00  0.00000000000E+00  0.23362829862E+03  0.23362829862E+03  0.00000000000E+00 0. -1.
          2   -1    0    0  501    0  0.00000000000E+00 -0.00000000000E+00 -0.17162304635E+03  0.17162304635E+03  0.00000000000E+00 0.  1.
         25    2    1    2    0    0 -0.67984166080E+02 -0.15479681885E+01  0.18799374263E+03  0.23582501129E+03  0.12509015005E+03 0.  0.
         23    2    1    2    0    0  0.67984166080E+02  0.15479681885E+01 -0.12598849036E+03  0.16942633369E+03  0.90597680990E+02 0.  0.
          5    1    3    3  502    0 -0.95537132839E+02  0.29897470840E+02  0.12712352567E+03  0.16186125445E+03  0.41800000000E+01 0. -1.
         -5    1    3    3    0  502  0.27552966759E+02 -0.31445439028E+02  0.60870216958E+02  0.73963756837E+02  0.41800000000E+01 0. -1.
        -11    1    4    4    0    0  0.72708985902E+02 -0.25665320893E+02 -0.11748293886E+03  0.14052596291E+03  0.00000000000E+00 0.  1.
         11    1    4    4    0    0 -0.47248198221E+01  0.27213289081E+02 -0.85055514973E+01  0.28900370780E+02  0.00000000000E+00 0. -1.
</event>
<event>
 8    1  0.7114239E-009  0.8593322E+02  0.7561462E-02  0.1313010E+00
          2   -1    0    0  501    0  0.00000000000E+00  0.00000000000E+00  0.66399593484E+03  0.66399593484E+03  0.00000000000E+00 0. -1.
         -2   -1    0    0    0  501 -0.00000000000E+00 -0.00000000000E+00 -0.22672105602E+02  0.22672105602E+02  0.00000000000E+00 0.  1.
         25    2    1    2    0    0 -0.20815645375E+02 -0.27572608943E+02  0.48741314966E+03  0.50439323378E+03  0.12508963174E+03 0.  0.
         23    2    1    2    0    0  0.20815645375E+02  0.27572608943E+02  0.15391067958E+03  0.18227480666E+03  0.91334922114E+02 0.  0.
          5    1    3    3  502    0  0.13810378572E+02 -0.45531522816E+02  0.67712354109E+02  0.82863028096E+02  0.41800000000E+01 0.  1.
         -5    1    3    3    0  502 -0.34626023947E+02  0.17958913873E+02  0.41970079555E+03  0.42153020569E+03  0.41800000000E+01 0.  1.
        -11    1    4    4    0    0 -0.21272937503E+02 -0.14198111506E+02  0.96154831271E+02  0.99498119666E+02  0.00000000000E+00 0. -1.
         11    1    4    4    0    0  0.42088582878E+02  0.41770720450E+02  0.57755848305E+02  0.82776686990E+02  0.00000000000E+00 0.  1.
</event>
<event>
 8    1  0.7114239E-009  0.9448646E+02  0.7561462E-02  0.1292337E+00
         -2   -1    0    0    0  501 -0.00000000000E+00  0.00000000000E+00  0.26102661723E+03  0.26102661723E+03  0.00000000000E+00 0.  1.
          2   -1    0    0  501    0  0.00000000000E+00 -0.00000000000E+00 -0.65275193562E+02  0.65275193562E+02  0.00000000000E+00 0. -1.
         25    2    1    2    0    0 -0.12848839025E+02  0.23448056651E+02  0.23938342369E+02  0.13013599507E+03  0.12508968364E+03 0.  0.
         23    2    1    2    0    0  0.12848839025E+02 -0.23448056651E+02  0.17181308130E+03  0.19616581572E+03  0.90809626845E+02 0.  0.
          5    1    3    3  502    0 -0.39777117503E+02  0.45111562834E+02 -0.28902105720E+02  0.66858629161E+02  0.41800000000E+01 0.  1.
         -5    1    3    3    0  502  0.26928278479E+02 -0.21663506182E+02  0.52840448089E+02  0.63277365907E+02  0.41800000000E+01 0.  1.
        -11    1    4    4    0    0  0.12484449478E+02  0.34104550948E+02  0.54453906066E+02  0.65453875057E+02  0.00000000000E+00 0.  1.
         11    1    4    4    0    0  0.36438954671E+00 -0.57552607599E+02  0.11735917524E+03  0.13071194067E+03  0.00000000000E+00 0. -1.
</event>
<event>
 8    1  0.7114239E-009  0.1302250E+03  0.7561462E-02  0.1227122E+00
         -1   -1    0    0    0  501 -0.00000000000E+00  0.00000000000E+00  0.12959146587E+04  0.12959146587E+04  0.00000000000E+00 0.  1.
          1   -1    0    0  501    0  0.00000000000E+00 -0.00000000000E+00 -0.23448172958E+02  0.23448172958E+02  0.00000000000E+00 0. -1.
         25    2    1    2    0    0  0.34744838784E+02 -0.70257020922E+02  0.11011224863E+04  0.11109750017E+04  0.12510584268E+03 0.  0.
         23    2    1    2    0    0 -0.34744838784E+02  0.70257020922E+02  0.17134399952E+03  0.20838782998E+03  0.89013868037E+02 0.  0.
          5    1    3    3  502    0 -0.46296853051E+02 -0.31239165535E+02  0.34609058109E+03  0.35059299307E+03  0.41800000000E+01 0. -1.
         -5    1    3    3    0  502  0.81041691835E+02 -0.39017855387E+02  0.75503190516E+03  0.76038200864E+03  0.41800000000E+01 0. -1.
        -11    1    4    4    0    0 -0.10055816213E+02 -0.19159733903E+02  0.58114681319E+02  0.62012345769E+02  0.00000000000E+00 0.  1.
         11    1    4    4    0    0 -0.24689022571E+02  0.89416754824E+02  0.11322931820E+03  0.14637548422E+03  0.00000000000E+00 0. -1.
</event>
<event>
 8    1  0.7114239E-009  0.1131542E+03  0.7561462E-02  0.1254838E+00
         -2   -1    0    0    0  501 -0.00000000000E+00  0.00000000000E+00  0.60040291067E+02  0.60040291067E+02  0.00000000000E+00 0. -1.
          2   -1    0    0  501    0  0.00000000000E+00 -0.00000000000E+00 -0.36407169020E+03  0.36407169020E+03  0.00000000000E+00 0.  1.
         25    2    1    2    0    0  0.19209756022E+02 -0.53852867041E+02 -0.28325362777E+03  0.31487947786E+03  0.12508925580E+03 0.  0.
         23    2    1    2    0    0 -0.19209756022E+02  0.53852867041E+02 -0.20777771362E+02  0.10923250341E+03  0.90724186428E+02 0.  0.
          5    1    3    3  502    0  0.22553752562E+01 -0.89173120163E+02 -0.13796794841E+03  0.16434585260E+03  0.41800000000E+01 0. -1.
         -5    1    3    3    0  502  0.16954380766E+02  0.35320253122E+02 -0.14528567936E+03  0.15053362526E+03  0.41800000000E+01 0. -1.
        -11    1    4    4    0    0 -0.56107796036E+01  0.73499806856E+02 -0.34813274808E+02  0.81520957787E+02  0.00000000000E+00 0.  1.
         11    1    4    4    0    0 -0.13598976418E+02 -0.19646939815E+02  0.14035503446E+02  0.27711545621E+02  0.00000000000E+00 0. -1.
</event>
<event>
 8    1  0.7114239E-009  0.9954494E+02  0.7561462E-02  0.1281256E+00
          1   -1    0    0  501    0  0.00000000000E+00  0.00000000000E+00  0.90787642059E+02  0.90787642059E+02  0.00000000000E+00 0. -1.
         -1   -1    0    0    0  501 -0.00000000000E+00 -0.00000000000E+00 -0.13433801166E+03  0.13433801166E+03  0.00000000000E+00 0.  1.
         25    2    1    2    0    0 -0.90836293248E+01 -0.16850583227E+02 -0.36560369680E+02  0.13172272697E+03  0.12509101363E+03 0.  0.
         23    2    1    2    0    0  0.90836293248E+01  0.16850583227E+02 -0.69899999165E+01  0.93402926747E+02  0.91152576207E+02 0.  0.
          5    1    3    3  502    0 -0.66729675581E+02 -0.15951153928E+02 -0.19220692678E+02  0.71373638984E+02  0.41800000000E+01 0.  1.
         -5    1    3    3    0  502  0.57646046256E+02 -0.89942929898E+00 -0.17339677002E+02  0.60349087984E+02  0.41800000000E+01 0.  1.
        -11    1    4    4    0    0 -0.53658049017E+00  0.43867086680E+02 -0.32834886028E+02  0.54797253151E+02  0.00000000000E+00 0.  1.
         11    1    4    4    0    0  0.96202098150E+01 -0.27016503453E+02  0.25844886111E+02  0.38605673596E+02  0.00000000000E+00 0. -1.
</event>
<event>
 8    1  0.7114239E-009  0.8315069E+02  0.7561462E-02  0.1320341E+00
          2   -1    0    0  501    0  0.00000000000E+00  0.00000000000E+00  0.83196119131E+03  0.83196119131E+03  0.00000000000E+00 0.  1.
         -2   -1    0    0    0  501 -0.00000000000E+00 -0.00000000000E+00 -0.18330735610E+02  0.18330735610E+02  0.00000000000E+00 0. -1.
         25    2    1    2    0    0 -0.84266862832E+01 -0.49315880793E+02  0.57345793402E+03  0.58907103902E+03  0.12509045442E+03 0.  0.
         23    2    1    2    0    0  0.84266862832E+01  0.49315880793E+02  0.24017252168E+03  0.26122088790E+03  0.89724283012E+02 0.  0.
          5    1    3    3  502    0  0.31536287329E+01 -0.58594893583E+02  0.10497945161E+03  0.12033895707E+03  0.41800000000E+01 0.  1.
         -5    1    3    3    0  502 -0.11580315016E+02  0.92790127898E+01  0.46847848240E+03  0.46873208195E+03  0.41800000000E+01 0.  1.
        -11    1    4    4    0    0  0.42778111942E+02  0.32997064601E+02  0.79575281998E+02  0.96182111844E+02  0.00000000000E+00 0. -1.
         11    1    4    4    0    0 -0.34351425659E+02  0.16318816192E+02  0.16059723969E+03  0.16503877605E+03  0.00000000000E+00 0.  1.
</event>
<event>
 8    1  0.7114239E-009  0.1317190E+03  0.7561462E-02  0.1224927E+00
         -2   -1    0    0    0  501 -0.00000000000E+00  0.00000000000E+00  0.31881658304E+02  0.31881658304E+02  0.00000000000E+00 0.  1.
          2   -1    0    0  501    0  0.00000000000E+00 -0.00000000000E+00 -0.70651037342E+03  0.70651037342E+03  0.00000000000E+00 0. -1.
         25    2    1    2    0    0 -0.48218903795E+02 -0.82321460146E+02 -0.26538468254E+03  0.30850973247E+03  0.12508932736E+03 0.  0.
         23    2    1    2    0    0  0.48218903795E+02  0.82321460146E+02 -0.40924403258E+03  0.42988229925E+03  0.90643408630E+02 0.  0.
          5    1    3    3  502    0  0.27261933135E+02 -0.22473835839E+02 -0.12239382320E+02  0.37623944173E+02  0.41800000000E+01 0. -1.
         -5    1    3    3    0  502 -0.75480836930E+02 -0.59847624307E+02 -0.25314530022E+03  0.27088578830E+03  0.41800000000E+01 0. -1.
        -11    1    4    4    0    0  0.74840361913E+02  0.68453576654E+02 -0.32432673499E+03  0.33981583683E+03  0.00000000000E+00 0.  1.
         11    1    4    4    0    0 -0.26621458118E+02  0.13867883492E+02 -0.84917297582E+02  0.90066462424E+02  0.00000000000E+00 0. -1.
</event>
<event>
 8    1  0.7114239E-009  0.1395235E+03  0.7561462E-02  0.1213972E+00
         -2   -1    0    0    0  501 -0.00000000000E+00  0.00000000000E+00  0.24049239465E+03  0.24049239465E+03  0.00000000000E+00 0.  1.
          2   -1    0    0  501    0  0.00000000000E+00 -0.00000000000E+00 -0.20836262576E+03  0.20836262576E+03  0.00000000000E+00 0. -1.
         25    2    1    2    0    0 -0.12652639607E+02  0.10528749516E+03  0.18108077860E+03  0.24431158608E+03  0.12510937931E+03 0.  0.
         23    2    1    2    0    0  0.12652639607E+02 -0.10528749516E+03 -0.14895100971E+03  0.20454343432E+03  0.91684607798E+02 0.  0.
          5    1    3    3  502    0  0.39697195806E+02  0.27951758897E+02  0.10580245839E+02  0.49865641300E+02  0.41800000000E+01 0.  1.
         -5    1    3    3    0  502 -0.52349835413E+02  0.77335736259E+02  0.17050053276E+03  0.19444594478E+03  0.41800000000E+01 0.  1.
        -11    1    4    4    0    0 -0.26892769417E+02 -0.90833894291E+02 -0.12236255468E+03  0.15474692949E+03  0.00000000000E+00 0. -1.
         11    1    4    4    0    0  0.39545409023E+02 -0.14453600865E+02 -0.26588455022E+02  0.49796504830E+02  0.00000000000E+00 0.  1.
</event>
<event>
 8    1  0.7114239E-009  0.1359147E+03  0.7561462E-02  0.1218934E+00
         -2   -1    0    0    0  501 -0.00000000000E+00  0.00000000000E+00  0.34345294176E+02  0.34345294176E+02  0.00000000000E+00 0.  1.
          2   -1    0    0  501    0  0.00000000000E+00 -0.00000000000E+00 -0.76004337324E+03  0.76004337324E+03  0.00000000000E+00 0. -1.
         25    2    1    2    0    0 -0.38159502578E+02  0.93745126862E+02 -0.23186483726E+03  0.28222794923E+03  0.12508803349E+03 0.  0.
         23    2    1    2    0    0  0.38159502578E+02 -0.93745126862E+02 -0.49383324180E+03  0.51216071818E+03  0.90515380438E+02 0.  0.
          5    1    3    3  502    0  0.37322567981E+02  0.24242084088E+02 -0.24854029824E+02  0.51145360690E+02  0.41800000000E+01 0. -1.
         -5    1    3    3    0  502 -0.75482070559E+02  0.69503042773E+02 -0.20701080744E+03  0.23108258854E+03  0.41800000000E+01 0. -1.
        -11    1    4    4    0    0 -0.14904710498E+02  0.19322305178E+01 -0.15957952670E+02  0.21921226317E+02  0.00000000000E+00 0.  1.
         11    1    4    4    0    0  0.53064213076E+02 -0.95677357379E+02 -0.47787528913E+03  0.49023949187E+03  0.00000000000E+00 0. -1.
</event>
<event>
 8    1  0.7114239E-009  0.1430512E+03  0.7561462E-02  0.1209281E+00
          1   -1    0    0  501    0  0.00000000000E+00  0.00000000000E+00  0.22507629728E+03  0.22507629728E+03  0.00000000000E+00 0. -1.
         -1   -1    0    0    0  501 -0.00000000000E+00 -0.00000000000E+00 -0.13467053326E+03  0.13467053326E+03  0.00000000000E+00 0.  1.
         25    2    1    2    0    0 -0.10477477866E+03  0.81133768946E+02  0.16772954574E+02  0.18299451447E+03  0.12508084432E+03 0.  0.
         23    2    1    2    0    0  0.10477477866E+03 -0.81133768946E+02  0.73632809438E+02  0.17675231606E+03  0.90879854214E+02 0.  0.
          5    1    3    3  502    0 -0.89412296299E+02  0.59935942249E+02  0.66532534521E+02  0.12661329493E+03  0.41800000000E+01 0.  1.
         -5    1    3    3    0  502 -0.15362482361E+02  0.21197826697E+02 -0.49759579947E+02  0.56381219545E+02  0.41800000000E+01 0.  1.
        -11    1    4    4    0    0  0.23445117318E+02 -0.64804599956E+02  0.50149407007E+01  0.69097462556E+02  0.00000000000E+00 0. -1.
         11    1    4    4    0    0  0.81329661341E+02 -0.16329168990E+02  0.68617868738E+02  0.10765485351E+03  0.00000000000E+00 0.  1.
</event>
<event>
 8    1  0.7114239E-009  0.6185415E+02  0.7561462E-02  0.1390211E+00
         -2   -1    0    0    0  501 -0.00000000000E+00  0.00000000000E+00  0.82596038319E+02  0.82596038319E+02  0.00000000000E+00 0.  1.
          2   -1    0    0  501    0  0.00000000000E+00 -0.00000000000E+00 -0.21902761259E+03  0.21902761259E+03  0.00000000000E+00 0. -1.
         25    2    1    2    0    0 -0.40633623078E+02  0.26727196130E+02 -0.49682253802E+01  0.13430207612E+03  0.12508768944E+03 0.  0.
         23    2    1    2    0    0  0.40633623078E+02 -0.26727196130E+02 -0.13146334889E+03  0.16732157479E+03  0.91369923675E+02 0.  0.
          5    1    3    3  502    0 -0.31719897014E+02  0.17503561957E+02 -0.64047173052E+02  0.73702369865E+02  0.41800000000E+01 0. -1.
         -5    1    3    3    0  502 -0.89137260641E+01  0.92236341738E+01  0.59078947672E+02  0.60599706251E+02  0.41800000000E+01 0. -1.
        -11    1    4    4    0    0  0.53250601705E+02 -0.12433866565E+02 -0.26728799851E+02  0.60865888321E+02  0.00000000000E+00 0.  1.
         11    1    4    4    0    0 -0.12616978627E+02 -0.14293329566E+02 -0.10473454904E+03  0.10645568647E+03  0.00000000000E+00 0. -1.
</event>
<event>
 8    1  0.7114239E-009  0.1878340E+03  0.7561462E-02  0.1160430E+00
         -4   -1    0    0    0  501 -0.00000000000E+00  0.00000000000E+00  0.87569903507E+03  0.87569903507E+03  0.00000000000E+00 0.  1.
          4   -1    0    0  501    0  0.00000000000E+00 -0.00000000000E+00 -0.54641956297E+02  0.54641956297E+02  0.00000000000E+00 0. -1.
         25    2    1    2    0    0  0.15855840386E+03 -0.78512560118E+02  0.57435023192E+03  0.61386519858E+03  0.12508918255E+03 0.  0.
         23    2    1    2    0    0 -0.15855840386E+03  0.78512560118E+02  0.24670684685E+03  0.31647579278E+03  0.89373763514E+02 0.  0.
          5    1    3    3  502    0  0.15308420193E+03 -0.43334934048E+02  0.32419153333E+03  0.36115137002E+03  0.41800000000E+01 0. -1.
         -5    1    3    3    0  502  0.54742019323E+01 -0.35177626070E+02  0.25015869860E+03  0.25271382856E+03  0.41800000000E+01 0. -1.
        -11    1    4    4    0    0 -0.13324806627E+03  0.49447320972E+02  0.12659600154E+03  0.19033295122E+03  0.00000000000E+00 0. -1.
         11    1    4    4    0    0 -0.25310337589E+02  0.29065239146E+02  0.12011084531E+03  0.12614284156E+03  0.00000000000E+00 0.  1.
</event>
<event>
 8    1  0.7114239E-009  0.9934876E+02  0.7561462E-02  0.1281671E+00
          1   -1    0    0  501    0  0.00000000000E+00  0.00000000000E+00  0.44507381239E+02  0.44507381239E+02  0.00000000000E+00 0. -1.
         -1   -1    0    0    0  501 -0.00000000000E+00 -0.00000000000E+00 -0.28072284673E+03  0.28072284673E+03  0.00000000000E+00 0.  1.
         25    2    1    2    0    0  0.88082056365E+01  0.22177539288E+02 -0.12832476177E+03  0.18078543548E+03  0.12508677573E+03 0.  0.
         23    2    1    2    0    0 -0.88082056365E+01 -0.22177539288E+02 -0.10789070373E+03  0.14444479249E+03  0.93029384564E+02 0.  0.
          5    1    3    3  502    0  0.66575443973E+02  0.16686368964E+02 -0.76636335101E+02  0.10296273553E+03  0.41800000000E+01 0. -1.
         -5    1    3    3    0  502 -0.57767238337E+02  0.54911703240E+01 -0.51688426666E+02  0.77822699952E+02  0.41800000000E+01 0. -1.
        -11    1    4    4    0    0 -0.79304836275E-01  0.24384414367E+02 -0.90904916773E+02  0.94118594585E+02  0.00000000000E+00 0.  1.
         11    1    4    4    0    0 -0.87289008002E+01 -0.46561953655E+02 -0.16985786952E+02  0.50326197907E+02  0.00000000000E+00 0. -1.
</event>
<event>
 8    1  0.7114239E-009  0.4169259E+03  0.7561462E-02  0.1038071E+00
          1   -1    0    0  501    0  0.00000000000E+00  0.00000000000E+00  0.50049873351E+03  0.50049873351E+03  0.00000000000E+00 0. -1.
         -1   -1    0    0    0  501 -0.00000000000E+00 -0.00000000000E+00 -0.36189775043E+03  0.36189775043E+03  0.00000000000E+00 0.  1.
         25    2    1    2    0    0  0.33059621302E+03 -0.23666519470E+03  0.75754972759E+01  0.42545109769E+03  0.12508788079E+03 0.  0.
         23    2    1    2    0    0 -0.33059621302E+03  0.23666519470E+03  0.13102548580E+03  0.43694538625E+03  0.91920194660E+02 0.  0.
          5    1    3    3  502    0  0.13994663164E+03 -0.32160813807E+02 -0.17465250547E+02  0.14471311284E+03  0.41800000000E+01 0. -1.
         -5    1    3    3    0  502  0.19064958138E+03 -0.20450438089E+03  0.25040747823E+02  0.28073798485E+03  0.41800000000E+01 0. -1.
        -11    1    4    4    0    0 -0.12029984122E+03  0.53350020430E+02  0.77982246067E+02  0.15296897456E+03  0.00000000000E+00 0. -1.
         11    1    4    4    0    0 -0.21029637180E+03  0.18331517427E+03  0.53043239730E+02  0.28397641168E+03  0.00000000000E+00 0.  1.
</event>
<event>
 8    1  0.7114239E-009  0.3221519E+03  0.7561462E-02  0.1074663E+00
          1   -1    0    0  501    0  0.00000000000E+00  0.00000000000E+00  0.59958489197E+03  0.59958489197E+03  0.00000000000E+00 0. -1.
         -1   -1    0    0    0  501 -0.00000000000E+00 -0.00000000000E+00 -0.18318841361E+03  0.18318841361E+03  0.00000000000E+00 0.  1.
         25    2    1    2    0    0  0.28162191156E+03 -0.12194501389E+03  0.28248112597E+03  0.43546018570E+03  0.12509396197E+03 0.  0.
         23    2    1    2    0    0 -0.28162191156E+03  0.12194501389E+03  0.13391535239E+03  0.34731311987E+03  0.92258301234E+02 0.  0.
          5    1    3    3  502    0  0.25442064784E+03 -0.14355559200E+03  0.27137655311E+03  0.39874901883E+03  0.41800000000E+01 0. -1.
         -5    1    3    3    0  502  0.27201263722E+02  0.21610578118E+02  0.11104572859E+02  0.36711166871E+02  0.41800000000E+01 0. -1.
        -11    1    4    4    0    0 -0.11740082594E+03  0.94387526694E+02  0.88508153075E+02  0.17471591881E+03  0.00000000000E+00 0.  1.
         11    1    4    4    0    0 -0.16422108562E+03  0.27557487193E+02  0.45407199320E+02  0.17259720106E+03  0.00000000000E+00 0. -1.
</event>
<event>
 8    1  0.7114239E-009  0.9582004E+02  0.7561462E-02  0.1289340E+00
          2   -1    0    0  501    0  0.00000000000E+00  0.00000000000E+00  0.16161484561E+03  0.16161484561E+03  0.00000000000E+00 0. -1.
         -2   -1    0    0    0  501 -0.00000000000E+00 -0.00000000000E+00 -0.73242074980E+02  0.73242074980E+02  0.00000000000E+00 0.  1.
         25    2    1    2    0    0 -0.22942910699E+01  0.10289297319E+02  0.39736228708E+02  0.13167192009E+03  0.12508954096E+03 0.  0.
         23    2    1    2    0    0  0.22942910699E+01 -0.10289297319E+02  0.48636541917E+02  0.10318500050E+03  0.90390805436E+02 0.  0.
          5    1    3    3  502    0 -0.76331798872E+01 -0.56910079876E+02  0.23664182483E+02  0.62245389864E+02  0.41800000000E+01 0.  1.
         -5    1    3    3    0  502  0.53388888173E+01  0.67199377195E+02  0.16072046225E+02  0.69426530224E+02  0.41800000000E+01 0.  1.
        -11    1    4    4    0    0  0.14298107628E+02  0.25249368745E+02 -0.12390411015E+02  0.31551367464E+02  0.00000000000E+00 0.  1.
         11    1    4    4    0    0 -0.12003816558E+02 -0.35538666063E+02  0.61026952932E+02  0.71633633034E+02  0.00000000000E+00 0. -1.
</event>
<event>
 8    1  0.7114239E-009  0.7280179E+02  0.7561462E-02  0.1350817E+00
          1   -1    0    0  501    0  0.00000000000E+00  0.00000000000E+00  0.70187979495E+02  0.70187979495E+02  0.00000000000E+00 0. -1.
         -1   -1    0    0    0  501 -0.00000000000E+00 -0.00000000000E+00 -0.23224514669E+03  0.23224514669E+03  0.00000000000E+00 0.  1.
         25    2    1    2    0    0  0.33737583406E+02 -0.28457000681E+02 -0.15016546505E+03  0.20036222634E+03  0.12508928583E+03 0.  0.
         23    2    1    2    0    0 -0.33737583406E+02  0.28457000681E+02 -0.11891702147E+02  0.10207089984E+03  0.91263522797E+02 0.  0.
          5    1    3    3  502    0  0.45948238454E+02 -0.37105716101E+02 -0.10862839875E+02  0.60195917424E+02  0.41800000000E+01 0.  1.
         -5    1    3    3    0  502 -0.12210655047E+02  0.86487154199E+01 -0.13930262518E+03  0.14016630892E+03  0.41800000000E+01 0.  1.
        -11    1    4    4    0    0 -0.94632506613E+01 -0.16926479808E+02 -0.39253380498E+02  0.43782264815E+02  0.00000000000E+00 0.  1.
         11    1    4    4    0    0 -0.24274332745E+02  0.45383480489E+02  0.27361678351E+02  0.58288635030E+02  0.00000000000E+00 0. -1.
</event>
<event>
 8    1  0.7114239E-009  0.1213940E+03  0.7561462E-02  0.1240815E+00
          1   -1    0    0  501    0  0.00000000000E+00  0.00000000000E+00  0.19164496819E+04  0.19164496819E+04  0.00000000000E+00 0. -1.
         -1   -1    0    0    0  501 -0.00000000000E+00 -0.00000000000E+00 -0.95377781937E+01  0.95377781937E+01  0.00000000000E+00 0.  1.
         25    2    1    2    0    0  0.63460544892E+02 -0.37958895043E+02  0.12829276858E+04  0.12911309614E+04  0.12509034350E+03 0.  0.
         23    2    1    2    0    0 -0.63460544892E+02  0.37958895043E+02  0.62398421787E+03  0.63485649865E+03  0.90655122632E+02 0.  0.
          5    1    3    3  502    0 -0.62069516581E+01  0.28704217544E+02  0.10091339847E+03  0.10518291090E+03  0.41800000000E+01 0.  1.
         -5    1    3    3    0  502  0.69667496550E+02 -0.66663112587E+02  0.11820142873E+04  0.11859480505E+04  0.41800000000E+01 0.  1.
        -11    1    4    4    0    0 -0.55958001201E+02  0.66608588537E+02  0.48676931928E+03  0.49448192299E+03  0.00000000000E+00 0. -1.
         11    1    4    4    0    0 -0.75025436907E+01 -0.28649693494E+02  0.13721489859E+03  0.14037457567E+03  0.00000000000E+00 0.  1.
</event>
<event>
 8    1  0.7114239E-009  0.8174072E+02  0.7561462E-02  0.1324183E+00
         -1   -1    0    0    0  501 -0.00000000000E+00  0.00000000000E+00  0.52094412548E+02  0.52094412548E+02  0.00000000000E+00 0.  1.
          1   -1    0    0  501    0  0.00000000000E+00 -0.00000000000E+00 -0.24484493291E+03  0.24484493291E+03  0.00000000000E+00 0. -1.
         25    2    1    2    0    0 -0.13446354036E+02  0.24983320178E+02 -0.89019759464E+02  0.15613323559E+03  0.12509236171E+03 0.  0.
         23    2    1    2    0    0  0.13446354036E+02 -0.24983320178E+02 -0.10373076089E+03  0.14080610986E+03  0.90891798831E+02 0.  0.
          5    1    3    3  502    0 -0.12497854024E+02  0.75775627474E+02 -0.59392973953E+02  0.97175819159E+02  0.41800000000E+01 0.  1.
         -5    1    3    3    0  502 -0.94850001256E+00 -0.50792307296E+02 -0.29626785511E+02  0.58957416433E+02  0.41800000000E+01 0.  1.
        -11    1    4    4    0    0  0.17540569115E+02 -0.10275957144E+02 -0.11810234925E+03  0.11983919124E+03  0.00000000000E+00 0. -1.
         11    1    4    4    0    0 -0.40942150788E+01 -0.14707363034E+02  0.14371588353E+02  0.20966918618E+02  0.00000000000E+00 0.  1.
</event>
<event>
 8    1  0.7114239E-009  0.1342728E+03  0.7561462E-02  0.1221250E+00
         -3   -1    0    0    0  501 -0.00000000000E+00  0.00000000000E+00  0.35505259589E+03  0.35505259589E+03  0.00000000000E+00 0.  1.
          3   -1    0    0  501    0  0.00000000000E+00 -0.00000000000E+00 -0.70599083706E+02  0.70599083706E+02  0.00000000000E+00 0. -1.
         25    2    1    2    0    0  0.59021531515E+00 -0.11252275932E+03  0.18286600323E+03  0.24849507856E+03  0.12509240269E+03 0.  0.
         23    2    1    2    0    0 -0.59021531515E+00  0.11252275932E+03  0.10158750896E+03  0.17715660104E+03  0.91666349317E+02 0.  0.
          5    1    3    3  502    0 -0.13418883542E+02 -0.10681910728E+03  0.57447484660E+02  0.12209862411E+03  0.41800000000E+01 0.  1.
         -5    1    3    3    0  502  0.14009098857E+02 -0.57036520472E+01  0.12541851857E+03  0.12639645445E+03  0.41800000000E+01 0.  1.
        -11    1    4    4    0    0 -0.27013995457E+02  0.11541258270E+03  0.84180121164E+02  0.14538264337E+03  0.00000000000E+00 0.  1.
         11    1    4    4    0    0  0.26423780142E+02 -0.28898233743E+01  0.17407387792E+02  0.31773957667E+02  0.00000000000E+00 0. -1.
</event>
<event>
 8    1  0.7114239E-009  0.1304708E+03  0.7561462E-02  0.1226759E+00
         -2   -1    0    0    0  501 -0.00000000000E+00  0.00000000000E+00  0.42652661645E+02  0.42652661645E+02  0.00000000000E+00 0.  1.
          2   -1    0    0  501    0  0.00000000000E+00 -0.00000000000E+00 -0.50822508063E+03  0.50822508063E+03  0.00000000000E+00 0. -1.
         25    2    1    2    0    0  0.72701869445E+02  0.57432306037E+02 -0.18755872672E+03  0.24374071124E+03  0.12508887540E+03 0.  0.
         23    2    1    2    0    0 -0.72701869445E+02 -0.57432306037E+02 -0.27801369227E+03  0.30713703104E+03  0.91964727747E+02 0.  0.
          5    1    3    3  502    0  0.92296944623E+02  0.68564409546E+02 -0.18845787536E+03  0.22080228130E+03  0.41800000000E+01 0. -1.
         -5    1    3    3    0  502 -0.19595075178E+02 -0.11132103508E+02  0.89914863815E+00  0.22938429938E+02  0.41800000000E+01 0. -1.
        -11    1    4    4    0    0  0.12988936866E+02 -0.30489321920E+02 -0.35709085413E+02  0.48718066598E+02  0.00000000000E+00 0.  1.
         11    1    4    4    0    0 -0.85690806311E+02 -0.26942984117E+02 -0.24230460686E+03  0.25841896444E+03  0.00000000000E+00 0. -1.
</event>
<event>
 8    1  0.7114239E-009  0.1100360E+03  0.7561462E-02  0.1260503E+00
          1   -1    0    0  501    0  0.00000000000E+00  0.00000000000E+00  0.24873102026E+03  0.24873102026E+03  0.00000000000E+00 0. -1.
         -1   -1    0    0    0  501 -0.00000000000E+00 -0.00000000000E+00 -0.65182852001E+02  0.65182852001E+02  0.00000000000E+00 0.  1.
         25    2    1    2    0    0  0.66171071589E+02  0.11730492969E+02  0.89253208667E+02  0.16771867173E+03  0.12508877811E+03 0.  0.
         23    2    1    2    0    0 -0.66171071589E+02 -0.11730492969E+02  0.94294959590E+02  0.14619520053E+03  0.89248428963E+02 0.  0.
          5    1    3    3  502    0  0.84913023858E+02 -0.32453055771E+02  0.73680144891E+02  0.11708825134E+03  0.41800000000E+01 0.  1.
         -5    1    3    3    0  502 -0.18741952270E+02  0.44183548741E+02  0.15573063776E+02  0.50630420397E+02  0.41800000000E+01 0.  1.
        -11    1    4    4    0    0 -0.29291524698E+02 -0.28060515852E+02 -0.31973510743E+01  0.40689175746E+02  0.00000000000E+00 0.  1.
         11    1    4    4    0    0 -0.36879546890E+02  0.16330022883E+02  0.97492310664E+02  0.10550602478E+03  0.00000000000E+00 0. -1.
</event>
<event>
 8    1  0.7114239E-009  0.1479799E+03  0.7561462E-02  0.1202977E+00
          2   -1    0    0  501    0  0.00000000000E+00  0.00000000000E+00  0.19870802838E+03  0.19870802838E+03  0.00000000000E+00 0.  1.
         -2   -1    0    0    0  501 -0.00000000000E+00 -0.00000000000E+00 -0.15439877602E+03  0.15439877602E+03  0.00000000000E+00 0. -1.
         25    2    1    2    0    0  0.17548655727E+02  0.13273592305E+03  0.37798802539E+02  0.18709304858E+03  0.12509308041E+03 0.  0.
         23    2    1    2    0    0 -0.17548655727E+02 -0.13273592305E+03  0.65104498178E+01  0.16601375582E+03  0.97935696153E+02 0.  0.
          5    1    3    3  502    0  0.40577642951E+02  0.34528316044E+02  0.63418962748E+02  0.82934835577E+02  0.41800000000E+01 0.  1.
         -5    1    3    3    0  502 -0.23028987224E+02  0.98207607003E+02 -0.25620160209E+02  0.10415821300E+03  0.41800000000E+01 0.  1.
        -11    1    4    4    0    0  0.15803182664E+02 -0.40148580882E+02 -0.38473465707E+02  0.57808794250E+02  0.00000000000E+00 0. -1.
         11    1    4    4    0    0 -0.33351838391E+02 -0.92587342164E+02  0.44983915525E+02  0.10820496157E+03  0.00000000000E+00 0.  1.
</event>
<event>
 8    1  0.7114239E-009  0.9916981E+02  0.7561462E-02  0.1282051E+00
         -2   -1    0    0    0  501 -0.00000000000E+00  0.00000000000E+00  0.52816805379E+03  0.52816805379E+03  0.00000000000E+00 0.  1.
          2   -1    0    0  501    0  0.00000000000E+00 -0.00000000000E+00 -0.43898009033E+02  0.43898009033E+02  0.00000000000E+00 0. -1.
         25    2    1    2    0    0  0.54710538221E+02  0.75673675336E+02  0.16564021009E+03  0.22760415625E+03  0.12508886686E+03 0.  0.
         23    2    1    2    0    0 -0.54710538221E+02 -0.75673675336E+02  0.31862983467E+03  0.34446190657E+03  0.91702155956E+02 0.  0.
          5    1    3    3  502    0  0.30302044069E+02  0.10519416772E+02 -0.13750124310E+02  0.35148404267E+02  0.41800000000E+01 0. -1.
         -5    1    3    3    0  502  0.24408494153E+02  0.65154258564E+02  0.17939033440E+03  0.19245575198E+03  0.41800000000E+01 0. -1.
        -11    1    4    4    0    0 -0.35762997223E+02 -0.29428528356E+02  0.27263772765E+03  0.27654359654E+03  0.00000000000E+00 0.  1.
         11    1    4    4    0    0 -0.18947540999E+02 -0.46245146981E+02  0.45992107022E+02  0.67918310032E+02  0.00000000000E+00 0. -1.
</event>
<event>
 8    1  0.7114239E-009  0.2175408E+03  0.7561462E-02  0.1135730E+00
         -1   -1    0    0    0  501 -0.00000000000E+00  0.00000000000E+00  0.15850725323E+03  0.15850725323E+03  0.00000000000E+00 0.  1.
          1   -1    0    0  501    0  0.00000000000E+00 -0.00000000000E+00 -0.36513161946E+03  0.36513161946E+03  0.00000000000E+00 0. -1.
         25    2    1    2    0    0 -0.91598212007E+02  0.17609843686E+03 -0.20087407869E+03  0.30886599657E+03  0.12508763504E+03 0.  0.
         23    2    1    2    0    0  0.91598212007E+02 -0.17609843686E+03 -0.57502875447E+01  0.21477287612E+03  0.81813388891E+02 0.  0.
          5    1    3    3  502    0  0.29875875823E+02  0.47216361136E+02 -0.63518423664E+02  0.84699558794E+02  0.41800000000E+01 0.  1.
         -5    1    3    3    0  502 -0.12147408783E+03  0.12888207572E+03 -0.13735565502E+03  0.22416643777E+03  0.41800000000E+01 0.  1.
        -11    1    4    4    0    0  0.15619183004E+02 -0.67974223610E+02 -0.37037108756E+02  0.78969623135E+02  0.00000000000E+00 0. -1.
         11    1    4    4    0    0  0.75979029003E+02 -0.10812421325E+03  0.31286821212E+02  0.13580325298E+03  0.00000000000E+00 0.  1.
</event>
<event>
 8    1  0.7114239E-009  0.8955740E+02  0.7561462E-02  0.1303927E+00
          1   -1    0    0  501    0  0.00000000000E+00  0.00000000000E+00  0.72015787308E+02  0.72015787308E+02  0.00000000000E+00 0. -1.
         -1   -1    0    0    0  501 -0.00000000000E+00 -0.00000000000E+00 -0.18027773066E+03  0.18027773066E+03  0.00000000000E+00 0.  1.
         25    2    1    2    0    0  0.26820094957E+02  0.25497938087E+02 -0.61393830089E+02  0.14417179272E+03  0.12508733390E+03 0.  0.
         23    2    1    2    0    0 -0.26820094957E+02 -0.25497938087E+02 -0.46868113268E+02  0.10812172526E+03  0.90134483362E+02 0.  0.
          5    1    3    3  502    0 -0.27700851359E+02 -0.16037067725E+02 -0.67914754440E+02  0.75195817556E+02  0.41800000000E+01 0. -1.
         -5    1    3    3    0  502  0.54520946315E+02  0.41535005812E+02  0.65209243511E+01  0.68975975160E+02  0.41800000000E+01 0. -1.
        -11    1    4    4    0    0  0.14084054569E+02 -0.33632708801E+02  0.98043635538E+01  0.37757717610E+02  0.00000000000E+00 0. -1.
         11    1    4    4    0    0 -0.40904149525E+02  0.81347707143E+01 -0.56672476822E+02  0.70364007647E+02  0.00000000000E+00 0.  1.
</event>
<event>
 8    1  0.7114239E-009  0.1088235E+03  0.7561462E-02  0.1262764E+00
          2   -1    0    0  501    0  0.00000000000E+00  0.00000000000E+00  0.49194489981E+03  0.49194489981E+03  0.00000000000E+00 0.  1.
         -2   -1    0    0    0  501 -0.00000000000E+00 -0.00000000000E+00 -0.25919090180E+02  0.25919090180E+02  0.00000000000E+00 0. -1.
         25    2    1    2    0    0 -0.31387618279E+02 -0.98988585552E+01  0.25061219291E+03  0.28202332306E+03  0.12509002172E+03 0.  0.
         23    2    1    2    0    0  0.31387618279E+02  0.98988585552E+01  0.21541361672E+03  0.23584066693E+03  0.90192150025E+02 0.  0.
          5    1    3    3  502    0  0.21709103063E+02  0.46101023112E+02  0.11673342090E+03  0.12743921470E+03  0.41800000000E+01 0. -1.
         -5    1    3    3    0  502 -0.53096721341E+02 -0.55999881667E+02  0.13387877200E+03  0.15458410836E+03  0.41800000000E+01 0. -1.
        -11    1    4    4    0    0  0.59501052850E+02  0.13143994443E+02  0.10081883195E+03  0.11780312710E+03  0.00000000000E+00 0. -1.
         11    1    4    4    0    0 -0.28113434572E+02 -0.32451358877E+01  0.11459478477E+03  0.11803753982E+03  0.00000000000E+00 0.  1.
</event>
<event>
 8    1  0.7114239E-009  0.9681193E+02  0.7561462E-02  0.1287147E+00
         -1   -1    0    0    0  501 -0.00000000000E+00  0.00000000000E+00  0.26635201880E+02  0.26635201880E+02  0.00000000000E+00 0.  1.
          1   -1    0    0  501    0  0.00000000000E+00 -0.00000000000E+00 -0.61554961175E+03  0.61554961175E+03  0.00000000000E+00 0. -1.
         25    2    1    2    0    0 -0.22617332533E+02 -0.41409640109E+02 -0.44815318712E+03  0.46766941407E+03  0.12508836757E+03 0.  0.
         23    2    1    2    0    0  0.22617332533E+02  0.41409640109E+02 -0.14076122274E+03  0.17451539956E+03  0.91736583925E+02 0.  0.
          5    1    3    3  502    0  0.15191217337E+01  0.23235790468E+02 -0.32948539422E+03  0.33033362998E+03  0.41800000000E+01 0. -1.
         -5    1    3    3    0  502 -0.24136454267E+02 -0.64645430577E+02 -0.11866779290E+03  0.13733578409E+03  0.41800000000E+01 0. -1.
        -11    1    4    4    0    0 -0.52943493582E+01 -0.26704518764E+02 -0.55896978307E+02  0.62174220070E+02  0.00000000000E+00 0. -1.
         11    1    4    4    0    0  0.27911681891E+02  0.68114158874E+02 -0.84864244438E+02  0.11234117949E+03  0.00000000000E+00 0.  1.
</event>
<event>
 8    1  0.7114239E-009  0.1713945E+03  0.7561462E-02  0.1176401E+00
         -1   -1    0    0    0  501 -0.00000000000E+00  0.00000000000E+00  0.42344106106E+02  0.42344106106E+02  0.00000000000E+00 0.  1.
          1   -1    0    0  501    0  0.00000000000E+00 -0.00000000000E+00 -0.98465853570E+03  0.98465853570E+03  0.00000000000E+00 0. -1.
         25    2    1    2    0    0  0.74848724638E+02 -0.12732729523E+03 -0.71553388014E+03  0.74124969186E+03  0.12509116820E+03 0.  0.
         23    2    1    2    0    0 -0.74848724638E+02  0.12732729523E+03 -0.22678054945E+03  0.28575294995E+03  0.91710190824E+02 0.  0.
          5    1    3    3  502    0  0.90517961881E+02 -0.14345057174E+03 -0.65235657519E+03  0.67406093311E+03  0.41800000000E+01 0.  1.
         -5    1    3    3    0  502 -0.15669237243E+02  0.16123276506E+02 -0.63177304953E+02  0.67188758749E+02  0.41800000000E+01 0.  1.
        -11    1    4    4    0    0 -0.23208212615E+02  0.66622254182E+02 -0.18001812236E+03  0.19334857192E+03  0.00000000000E+00 0. -1.
         11    1    4    4    0    0 -0.51640512022E+02  0.60705041052E+02 -0.46762427095E+02  0.92404378029E+02  0.00000000000E+00 0.  1.
</event>
<event>
 8    1  0.7114239E-009  0.1196077E+03  0.7561462E-02  0.1243746E+00
          3   -1    0    0  501    0  0.00000000000E+00  0.00000000000E+00  0.27107791527E+03  0.27107791527E+03  0.00000000000E+00 0. -1.
         -3   -1    0    0    0  501 -0.00000000000E+00 -0.00000000000E+00 -0.79216159965E+02  0.79216159965E+02  0.00000000000E+00 0.  1.
         25    2    1    2    0    0  0.31514944684E+02 -0.92205844045E+02  0.87638337386E+02  0.18117199951E+03  0.12509079028E+03 0.  0.
         23    2    1    2    0    0 -0.31514944684E+02  0.92205844045E+02  0.10422341792E+03  0.16912207572E+03  0.90800034358E+02 0.  0.
          5    1    3    3  502    0  0.64329095003E+02 -0.82832629412E+02  0.22247806622E+02  0.10729358908E+03  0.41800000000E+01 0. -1.
         -5    1    3    3    0  502 -0.32814150319E+02 -0.93732146328E+01  0.65390530764E+02  0.73878410428E+02  0.41800000000E+01 0. -1.
        -11    1    4    4    0    0 -0.10817559604E+01  0.35495057316E+02 -0.10970778161E+02  0.37167556596E+02  0.00000000000E+00 0.  1.
         11    1    4    4    0    0 -0.30433188724E+02  0.56710786728E+02  0.11519419608E+03  0.13195451913E+03  0.00000000000E+00 0. -1.
</event>
<event>
 8    1  0.7114239E-009  0.1808277E+03  0.7561462E-02  0.1167004E+00
          1   -1    0    0  501    0  0.00000000000E+00  0.00000000000E+00  0.11451220198E+04  0.11451220198E+04  0.00000000000E+00 0. -1.
         -1   -1    0    0    0  501 -0.00000000000E+00 -0.00000000000E+00 -0.33919770600E+02  0.33919770600E+02  0.00000000000E+00 0.  1.
         25    2    1    2    0    0 -0.11776060264E+03 -0.11417585438E+03  0.56755240011E+03  0.60387652428E+03  0.12508974558E+03 0.  0.
         23    2    1    2    0    0  0.11776060264E+03  0.11417585438E+03  0.54364984906E+03  0.57516526609E+03  0.91412470037E+02 0.  0.
          5    1    3    3  502    0 -0.13094331015E+03 -0.66567097715E+02  0.49227207893E+03  0.51373787194E+03  0.41800000000E+01 0. -1.
         -5    1    3    3    0  502  0.13182707518E+02 -0.47608756661E+02  0.75280321173E+02  0.90138652332E+02  0.41800000000E+01 0. -1.
        -11    1    4    4    0    0  0.68460983650E+02  0.79159152688E+02  0.19499631606E+03  0.22130666735E+03  0.00000000000E+00 0.  1.
         11    1    4    4    0    0  0.49299618985E+02  0.35016701687E+02  0.34865353300E+03  0.35385859874E+03  0.00000000000E+00 0. -1.
</event>
<event>
 8    1  0.7114239E-009  0.1118480E+03  0.7561462E-02  0.1257185E+00
         -2   -1    0    0    0  501 -0.00000000000E+00  0.00000000000E+00  0.45155898942E+02  0.45155898942E+02  0.00000000000E+00 0.  1.
          2   -1    0    0  501    0  0.00000000000E+00 -0.00000000000E+00 -0.52618248615E+03  0.52618248615E+03  0.00000000000E+00 0. -1.
         25    2    1    2    0    0  0.10452500211E+03  0.32912845384E+02 -0.26784507153E+03  0.31527090525E+03  0.12508409131E+03 0.  0.
         23    2    1    2    0    0 -0.10452500211E+03 -0.32912845384E+02 -0.21318151568E+03  0.25606747984E+03  0.90085870979E+02 0.  0.
          5    1    3    3  502    0  0.89848183894E+02  0.33259602933E+02 -0.27986687097E+03  0.29584089508E+03  0.41800000000E+01 0. -1.
         -5    1    3    3    0  502  0.14676818211E+02 -0.34675754889E+00  0.12021799436E+02  0.19430010171E+02  0.41800000000E+01 0. -1.
        -11    1    4    4    0    0 -0.48871947819E+02 -0.28805708195E+02 -0.18509547863E+03  0.19359383336E+03  0.00000000000E+00 0. -1.
         11    1    4    4    0    0 -0.55653054286E+02 -0.41071371882E+01 -0.28086037051E+02  0.62473646479E+02  0.00000000000E+00 0.  1.
</event>
<event>
 8    1  0.7114239E-009  0.9597316E+02  0.7561462E-02  0.1288999E+00
         -4   -1    0    0    0  501 -0.00000000000E+00  0.00000000000E+00  0.27571335616E+03  0.27571335616E+03  0.00000000000E+00 0.  1.
          4   -1    0    0  501    0  0.00000000000E+00 -0.00000000000E+00 -0.70095247324E+02  0.70095247324E+02  0.00000000000E+00 0. -1.
         25    2    1    2    0    0  0.47956637035E+02 -0.13400034606E+02  0.24874016970E+02  0.13692119828E+03  0.12509715367E+03 0.  0.
         23    2    1    2    0    0 -0.47956637035E+02  0.13400034606E+02  0.18074409186E+03  0.20888740520E+03  0.92120146243E+02 0.  0.
          5    1    3    3  502    0  0.56975025347E+02  0.24326547508E+02 -0.30504109119E+02  0.69180253686E+02  0.41800000000E+01 0.  1.
         -5    1    3    3    0  502 -0.90183883118E+01 -0.37726582114E+02  0.55378126089E+02  0.67740944597E+02  0.41800000000E+01 0.  1.
        -11    1    4    4    0    0  0.54890943708E+01  0.33345396415E+02  0.12362339154E+03  0.12815923125E+03  0.00000000000E+00 0.  1.
         11    1    4    4    0    0 -0.53445731406E+02 -0.19945361810E+02  0.57120700320E+02  0.80728173944E+02  0.00000000000E+00 0. -1.
</event>
<event>
 8    1  0.7114239E-009  0.1143936E+03  0.7561462E-02  0.1252643E+00
         -2   -1    0    0    0  501 -0.00000000000E+00  0.00000000000E+00  0.58385395341E+02  0.58385395341E+02  0.00000000000E+00 0.  1.
          2   -1    0    0  501    0  0.00000000000E+00 -0.00000000000E+00 -0.54129951942E+03  0.54129951942E+03  0.00000000000E+00 0. -1.
         25    2    1    2    0    0  0.35241142082E+02  0.33501271494E+02 -0.33208012761E+02  0.13827331833E+03  0.12510981241E+03 0.  0.
         23    2    1    2    0    0 -0.35241142082E+02 -0.33501271494E+02 -0.44970611132E+03  0.46141159644E+03  0.91108734392E+02 0.  0.
          5    1    3    3  502    0  0.66602455674E+02  0.55655274186E+02 -0.45043985912E+02  0.97876604525E+02  0.41800000000E+01 0.  1.
         -5    1    3    3    0  502 -0.31361313592E+02 -0.22154002692E+02  0.11835973150E+02  0.40396713801E+02  0.41800000000E+01 0.  1.
        -11    1    4    4    0    0 -0.66064506287E+02 -0.16615187181E+02 -0.29464682562E+03  0.30241913842E+03  0.00000000000E+00 0. -1.
         11    1    4    4    0    0  0.30823364205E+02 -0.16886084313E+02 -0.15505928570E+03  0.15899245801E+03  0.00000000000E+00 0.  1.
</event>
<event>
 8    1  0.7114239E-009  0.9883761E+02  0.7561462E-02  0.1282759E+00
         -3   -1    0    0    0  501 -0.00000000000E+00  0.00000000000E+00  0.57666261688E+02  0.57666261688E+02  0.00000000000E+00 0.  1.
          3   -1    0    0  501    0  0.00000000000E+00 -0.00000000000E+00 -0.30277216921E+03  0.30277216921E+03  0.00000000000E+00 0. -1.
         25    2    1    2    0    0  0.45001440251E+02 -0.49722480929E+02 -0.88401678557E+02  0.16720465899E+03  0.12508032013E+03 0.  0.
         23    2    1    2    0    0 -0.45001440251E+02  0.49722480929E+02 -0.15670422896E+03  0.19323377190E+03  0.91025383789E+02 0.  0.
          5    1    3    3  502    0 -0.37954449642E+01 -0.41210098699E+02 -0.10647494305E+03  0.11431125726E+03  0.41800000000E+01 0.  1.
         -5    1    3    3    0  502  0.48796885215E+02 -0.85123822300E+01  0.18073264496E+02  0.52893401738E+02  0.41800000000E+01 0.  1.
        -11    1    4    4    0    0 -0.41942119034E+02  0.72300850339E+02 -0.90384977450E+02  0.12310970091E+03  0.00000000000E+00 0.  1.
         11    1    4    4    0    0 -0.30593212172E+01 -0.22578369410E+02 -0.66319251515E+02  0.70124070995E+02  0.00000000000E+00 0. -1.
</event>
<event>
 8    1  0.7114239E-009  0.1200029E+03  0.7561462E-02  0.1243092E+00
          4   -1    0    0  501    0  0.00000000000E+00  0.00000000000E+00  0.12934206851E+03  0.12934206851E+03  0.00000000000E+00 0. -1.
         -4   -1    0    0    0  501 -0.00000000000E+00 -0.00000000000E+00 -0.16945525449E+03  0.16945525449E+03  0.00000000000E+00 0.  1.
         25    2    1    2    0    0 -0.74331858761E+02  0.22176886828E+02  0.43070773794E+02  0.15336111285E+03  0.12508996700E+03 0.  0.
         23    2    1    2    0    0  0.74331858761E+02 -0.22176886828E+02 -0.83183959769E+02  0.14543621015E+03  0.90637081388E+02 0.  0.
          5    1    3    3  502    0 -0.20261102581E+02 -0.44335594646E+02 -0.13279288952E+02  0.50694863107E+02  0.41800000000E+01 0.  1.
         -5    1    3    3    0  502 -0.54070756180E+02  0.66512481474E+02  0.56350062746E+02  0.10266624975E+03  0.41800000000E+01 0.  1.
        -11    1    4    4    0    0  0.75407138393E+02  0.73046438473E+01 -0.24276836388E+02  0.79554755530E+02  0.00000000000E+00 0. -1.
         11    1    4    4    0    0 -0.10752796326E+01 -0.29481530676E+02 -0.58907123381E+02  0.65881454616E+02  0.00000000000E+00 0.  1.
</event>
<event>
 8    1  0.7114239E-009  0.7566279E+02  0.7561462E-02  0.1341831E+00
          2   -1    0    0  501    0  0.00000000000E+00  0.00000000000E+00  0.51657167477E+03  0.51657167477E+03  0.00000000000E+00 0. -1.
         -2   -1    0    0    0  501 -0.00000000000E+00 -0.00000000000E+00 -0.27073063222E+02  0.27073063222E+02  0.00000000000E+00 0.  1.
         25    2    1    2    0    0 -0.51224397931E+02  0.70440854625E+01  0.22876464722E+03  0.26581000863E+03  0.12509252092E+03 0.  0.
         23    2    1    2    0    0  0.51224397931E+02 -0.70440854625E+01  0.26073396433E+03  0.27783472936E+03  0.80847873187E+02 0.  0.
          5    1    3    3  502    0 -0.28766071494E+02  0.16636928060E+02 -0.21580536307E+01  0.33561940348E+02  0.41800000000E+01 0. -1.
         -5    1    3    3    0  502 -0.22458326437E+02 -0.95928425977E+01  0.23092270085E+03  0.23224806829E+03  0.41800000000E+01 0. -1.
        -11    1    4    4    0    0 -0.50540773204E+01  0.26875537938E+02  0.11096233539E+03  0.11428244884E+03  0.00000000000E+00 0. -1.
         11    1    4    4    0    0  0.56278475251E+02 -0.33919623401E+02  0.14977162894E+03  0.16355228052E+03  0.00000000000E+00 0.  1.
</event>
<event>
 8    1  0.7114239E-009  0.1094426E+03  0.7561462E-02  0.1261606E+00
          3   -1    0    0  501    0  0.00000000000E+00  0.00000000000E+00  0.56852850975E+02  0.56852850975E+02  0.00000000000E+00 0. -1.
         -3   -1    0    0    0  501 -0.00000000000E+00 -0.00000000000E+00 -0.31972443373E+03  0.31972443373E+03  0.00000000000E+00 0.  1.
         25    2    1    2    0    0 -0.47343412760E+02 -0.36368192070E+02 -0.70315802640E+02  0.15542390742E+03  0.12509290456E+03 0.  0.
         23    2    1    2    0    0  0.47343412760E+02  0.36368192070E+02 -0.19255578012E+03  0.22115337729E+03  0.90923284714E+02 0.  0.
          5    1    3    3  502    0  0.11974921740E+02  0.34797716529E+02 -0.46923147456E+02  0.59779043096E+02  0.41800000000E+01 0. -1.
         -5    1    3    3    0  502 -0.59318334500E+02 -0.71165908599E+02 -0.23392655184E+02  0.95644864322E+02  0.41800000000E+01 0. -1.
        -11    1    4    4    0    0 -0.89698924819E+01  0.31308204021E+02 -0.14074778485E+03  0.14446661050E+03  0.00000000000E+00 0.  1.
         11    1    4    4    0    0  0.56313305242E+02  0.50599880489E+01 -0.51807995270E+02  0.76686766787E+02  0.00000000000E+00 0. -1.
</event>
<event>
 8    1  0.7114239E-009  0.1390100E+03  0.7561462E-02  0.1214667E+00
         -2   -1    0    0    0  501 -0.00000000000E+00  0.00000000000E+00  0.57910758082E+02  0.57910758082E+02  0.00000000000E+00 0.  1.
          2   -1    0    0  501    0  0.00000000000E+00 -0.00000000000E+00 -0.40355605623E+03  0.40355605623E+03  0.00000000000E+00 0. -1.
         25    2    1    2    0    0  0.10885551464E+03 -0.88247400977E+01 -0.19048522454E+03  0.25270092696E+03  0.12508292693E+03 0.  0.
         23    2    1    2    0    0 -0.10885551464E+03  0.88247400977E+01 -0.15516007361E+03  0.20876588736E+03  0.87069789131E+02 0.  0.
          5    1    3    3  502    0  0.94644111823E+02 -0.41054675834E+02 -0.64322091637E+02  0.12164620086E+03  0.41800000000E+01 0.  1.
         -5    1    3    3    0  502  0.14211402813E+02  0.32229935737E+02 -0.12616313291E+03  0.13105472610E+03  0.41800000000E+01 0.  1.
        -11    1    4    4    0    0 -0.19059711859E+02  0.39948646906E+02 -0.56562681019E+02  0.71822725441E+02  0.00000000000E+00 0. -1.
         11    1    4    4    0    0 -0.89795802777E+02 -0.31123906808E+02 -0.98597392587E+02  0.13694316192E+03  0.00000000000E+00 0.  1.
</event>
<event>
 8    1  0.7114239E-009  0.2275500E+03  0.7561462E-02  0.1128376E+00
          2   -1    0    0  501    0  0.00000000000E+00  0.00000000000E+00  0.22468717538E+04  0.22468717538E+04  0.00000000000E+00 0. -1.
         -2   -1    0    0    0  501 -0.00000000000E+00 -0.00000000000E+00 -0.48580051013E+02  0.48580051013E+02  0.00000000000E+00 0.  1.
         25    2    1    2    0    0 -0.44515252144E+02  0.19615646808E+03  0.19425755450E+04  0.19569637135E+04  0.12509300654E+03 0.  0.
         23    2    1    2    0    0  0.44515252144E+02 -0.19615646808E+03  0.25571615782E+03  0.33848809134E+03  0.93404855167E+02 0.  0.
          5    1    3    3  502    0 -0.85748737350E+02  0.12627258724E+03  0.11143988414E+04  0.11248110341E+04  0.41800000000E+01 0.  1.
         -5    1    3    3    0  502  0.41233485206E+02  0.69883880838E+02  0.82817670356E+03  0.83215267940E+03  0.41800000000E+01 0.  1.
        -11    1    4    4    0    0  0.57579631158E+02 -0.55755155810E+02  0.80753853005E+02  0.11377713346E+03  0.00000000000E+00 0. -1.
         11    1    4    4    0    0 -0.13064379014E+02 -0.14040131227E+03  0.17496230481E+03  0.22471095788E+03  0.00000000000E+00 0.  1.
</event>
<event>
 8    1  0.7114239E-009  0.1176345E+03  0.7561462E-02  0.1247051E+00
          2   -1    0    0  501    0  0.00000000000E+00  0.00000000000E+00  0.10769910557E+03  0.10769910557E+03  0.00000000000E+00 0. -1.
         -2   -1    0    0    0  501 -0.00000000000E+00 -0.00000000000E+00 -0.19024306188E+03  0.19024306188E+03  0.00000000000E+00 0.  1.
         25    2    1    2    0    0 -0.16599163527E+02 -0.89740243718E+02 -0.29161484140E+02  0.15756178991E+03  0.12508589812E+03 0.  0.
         23    2    1    2    0    0  0.16599163527E+02  0.89740243718E+02 -0.53382472174E+02  0.14038037754E+03  0.92347812589E+02 0.  0.
          5    1    3    3  502    0  0.10363828832E+02  0.21871905684E+02 -0.34719160744E+02  0.42528598955E+02  0.41800000000E+01 0. -1.
         -5    1    3    3    0  502 -0.26962992359E+02 -0.11161214940E+03  0.55576766045E+01  0.11503319095E+03  0.41800000000E+01 0. -1.
        -11    1    4    4    0    0  0.72287485177E+01  0.85001560403E+02 -0.76756158178E+02  0.11475638498E+03  0.00000000000E+00 0.  1.
         11    1    4    4    0    0  0.93704150094E+01  0.47386833150E+01  0.23373686005E+02  0.25623992555E+02  0.00000000000E+00 0. -1.
</event>
<event>
 8    1  0.7114239E-009  0.2009134E+03  0.7561462E-02  0.1148971E+00
          2   -1    0    0  501    0  0.00000000000E+00  0.00000000000E+00  0.40675340640E+03  0.40675340640E+03  0.00000000000E+00 0. -1.
         -2   -1    0    0    0  501 -0.00000000000E+00 -0.00000000000E+00 -0.12327532014E+03  0.12327532014E+03  0.00000000000E+00 0.  1.
         25    2    1    2    0    0  0.59581742147E+02 -0.16397012817E+03  0.24344503932E+03  0.32457590785E+03  0.12509135006E+03 0.  0.
         23    2    1    2    0    0 -0.59581742147E+02  0.16397012817E+03  0.40033046942E+02  0.20545281869E+03  0.10085647688E+03 0.  0.
          5    1    3    3  502    0 -0.20623143742E+02  0.39293203511E+01  0.58066317005E+02  0.61886373191E+02  0.41800000000E+01 0. -1.
         -5    1    3    3    0  502  0.80204885889E+02 -0.16789944852E+03  0.18537872231E+03  0.26268953466E+03  0.41800000000E+01 0. -1.
        -11    1    4    4    0    0  0.17753191625E+02  0.65724356168E+01 -0.12136784225E+02  0.22487202008E+02  0.00000000000E+00 0.  1.
         11    1    4    4    0    0 -0.77334933772E+02  0.15739769255E+03  0.52169831167E+02  0.18296561668E+03  0.00000000000E+00 0. -1.
</event>
<event>
 8    1  0.7114239E-009  0.1090440E+03  0.7561462E-02  0.1262351E+00
          4   -1    0    0  501    0  0.00000000000E+00  0.00000000000E+00  0.51758324055E+02  0.51758324055E+02  0.00000000000E+00 0. -1.
         -4   -1    0    0    0  501 -0.00000000000E+00 -0.00000000000E+00 -0.29833422328E+03  0.29833422328E+03  0.00000000000E+00 0.  1.
         25    2    1    2    0    0  0.29125135968E+02 -0.35174193593E+02 -0.19329181495E+03  0.23472226060E+03  0.12508923396E+03 0.  0.
         23    2    1    2    0    0 -0.29125135968E+02  0.35174193593E+02 -0.53284084271E+02  0.11537028674E+03  0.91572987201E+02 0.  0.
          5    1    3    3  502    0 -0.40283022120E+02 -0.36480747019E+02 -0.12887022179E+03  0.13992345493E+03  0.41800000000E+01 0. -1.
         -5    1    3    3    0  502  0.69408158088E+02  0.13065534256E+01 -0.64421593163E+02  0.94798805671E+02  0.41800000000E+01 0. -1.
        -11    1    4    4    0    0 -0.69497194173E+01 -0.27075386226E+02 -0.38631128137E+02  0.47683741468E+02  0.00000000000E+00 0. -1.
         11    1    4    4    0    0 -0.22175416550E+02  0.62249579819E+02 -0.14652956134E+02  0.67686545268E+02  0.00000000000E+00 0.  1.
</event>
<event>
 8    1  0.7114239E-009  0.1020418E+03  0.7561462E-02  0.1276060E+00
          1   -1    0    0  501    0  0.00000000000E+00  0.00000000000E+00  0.18529758166E+04  0.18529758166E+04  0.00000000000E+00 0. -1.
         -1   -1    0    0    0  501 -0.00000000000E+00 -0.00000000000E+00 -0.14616078560E+02  0.14616078560E+02  0.00000000000E+00 0.  1.
         25    2    1    2    0    0 -0.80715401480E+02 -0.52975413129E+02  0.14274400856E+04  0.14361593855E+04  0.12508881704E+03 0.  0.
         23    2    1    2    0    0  0.80715401480E+02  0.52975413129E+02  0.41091965244E+03  0.43143250966E+03  0.89205824914E+02 0.  0.
          5    1    3    3  502    0 -0.18152821293E+02 -0.29344627015E+02  0.82136185785E+02  0.89187765253E+02  0.41800000000E+01 0. -1.
         -5    1    3    3    0  502 -0.62562580187E+02 -0.23630786114E+02  0.13453038998E+04  0.13469716202E+04  0.41800000000E+01 0. -1.
        -11    1    4    4    0    0  0.16790791925E+02  0.30021130808E+02  0.33728238397E+02  0.48174610054E+02  0.00000000000E+00 0.  1.
         11    1    4    4    0    0  0.63924609555E+02  0.22954282321E+02  0.37719141404E+03  0.38325789961E+03  0.00000000000E+00 0. -1.
</event>
<event>
 8    1  0.7114239E-009  0.1557380E+03  0.7561462E-02  0.1193594E+00
         -1   -1    0    0    0  501 -0.00000000000E+00  0.00000000000E+00  0.10278231269E+03  0.10278231269E+03  0.00000000000E+00 0.  1.
          1   -1    0    0  501    0  0.00000000000E+00 -0.00000000000E+00 -0.26193417629E+03  0.26193417629E+03  0.00000000000E+00 0. -1.
         25    2    1    2    0    0 -0.11157158346E+03  0.19853609333E+02 -0.33519541398E+02  0.17208503209E+03  0.12508922645E+03 0.  0.
         23    2    1    2    0    0  0.11157158346E+03 -0.19853609333E+02 -0.12563232220E+03  0.19263145690E+03  0.92092419701E+02 0.  0.
          5    1    3    3  502    0 -0.13765313427E+03  0.19047709198E+02 -0.40397697916E+02  0.14477792303E+03  0.41800000000E+01 0. -1.
         -5    1    3    3    0  502  0.26081550814E+02  0.80590013443E+00  0.68781565172E+01  0.27307109055E+02  0.41800000000E+01 0. -1.
        -11    1    4    4    0    0  0.58108881569E+02  0.36278275907E+02 -0.58264672511E+02  0.89930681543E+02  0.00000000000E+00 0. -1.
         11    1    4    4    0    0  0.53462701890E+02 -0.56131885240E+02 -0.67367649686E+02  0.10270077535E+03  0.00000000000E+00 0.  1.
</event>
<event>
 8    1  0.7114239E-009  0.1923854E+03  0.7561462E-02  0.1156327E+00
          2   -1    0    0  501    0  0.00000000000E+00  0.00000000000E+00  0.23049608570E+04  0.23049608570E+04  0.00000000000E+00 0. -1.
         -2   -1    0    0    0  501 -0.00000000000E+00 -0.00000000000E+00 -0.19686608154E+02  0.19686608154E+02  0.00000000000E+00 0.  1.
         25    2    1    2    0    0 -0.40094634228E+02 -0.16655094306E+03  0.15348973938E+04  0.15494850442E+04  0.12508835395E+03 0.  0.
         23    2    1    2    0    0  0.40094634228E+02  0.16655094306E+03  0.75037685508E+03  0.77516242102E+03  0.92003032481E+02 0.  0.
          5    1    3    3  502    0  0.14622907258E+02 -0.14652925956E+03  0.90811292940E+03  0.91998435762E+03  0.41800000000E+01 0.  1.
         -5    1    3    3    0  502 -0.54717541486E+02 -0.20021683499E+02  0.62678446441E+03  0.62950068656E+03  0.41800000000E+01 0.  1.
        -11    1    4    4    0    0  0.40151198650E+02  0.58302187943E+02  0.16024851196E+03  0.17518804028E+03  0.00000000000E+00 0.  1.
         11    1    4    4    0    0 -0.56564422006E-01  0.10824875511E+03  0.59012834312E+03  0.59997438073E+03  0.00000000000E+00 0. -1.
</event>
<event>
 8    1  0.7114239E-009  0.1064497E+03  0.7561462E-02  0.1267289E+00
         -3   -1    0    0    0  501 -0.00000000000E+00  0.00000000000E+00  0.68186675913E+03  0.68186675913E+03  0.00000000000E+00 0.  1.
          3   -1    0    0  501    0  0.00000000000E+00 -0.00000000000E+00 -0.21744453595E+02  0.21744453595E+02  0.00000000000E+00 0. -1.
         25    2    1    2    0    0 -0.41842077413E+02  0.30759360636E+02  0.43164963189E+03  0.45240148069E+03  0.12509515305E+03 0.  0.
         23    2    1    2    0    0  0.41842077413E+02 -0.30759360636E+02  0.22847267365E+03  0.25120973203E+03  0.90607224626E+02 0.  0.
          5    1    3    3  502    0 -0.33167132729E+02 -0.40379589561E+02  0.27680805244E+03  0.28172813179E+03  0.41800000000E+01 0. -1.
         -5    1    3    3    0  502 -0.86749446842E+01  0.71138950197E+02  0.15484157944E+03  0.17067334890E+03  0.41800000000E+01 0. -1.
        -11    1    4    4    0    0  0.63610167388E+01 -0.48573291535E+02  0.18892023514E+03  0.19516834382E+03  0.00000000000E+00 0.  1.
         11    1    4    4    0    0  0.35481060674E+02  0.17813930899E+02  0.39552438511E+02  0.56041388213E+02  0.00000000000E+00 0. -1.
</event>
<event>
 8    1  0.7114239E-009  0.1517929E+03  0.7561462E-02  0.1198287E+00
         -4   -1    0    0    0  501 -0.00000000000E+00  0.00000000000E+00  0.36861595309E+02  0.36861595309E+02  0.00000000000E+00 0.  1.
          4   -1    0    0  501    0  0.00000000000E+00 -0.00000000000E+00 -0.88763261807E+03  0.88763261807E+03  0.00000000000E+00 0. -1.
         25    2    1    2    0    0  0.67214788646E+02 -0.12309970609E+03 -0.38972260945E+03  0.43266852201E+03  0.12508785779E+03 0.  0.
         23    2    1    2    0    0 -0.67214788646E+02  0.12309970609E+03 -0.46104841331E+03  0.49182569137E+03  0.98262433441E+02 0.  0.
          5    1    3    3  502    0  0.19994765467E+02 -0.10305375839E+03 -0.12638705471E+03  0.16435032024E+03  0.41800000000E+01 0.  1.
         -5    1    3    3    0  502  0.47220023179E+02 -0.20045947696E+02 -0.26333555474E+03  0.26831820177E+03  0.41800000000E+01 0.  1.
        -11    1    4    4    0    0 -0.38658441541E+01  0.50737030892E+02 -0.56644795588E+02  0.76143443066E+02  0.00000000000E+00 0.  1.
         11    1    4    4    0    0 -0.63348944492E+02  0.72362675199E+02 -0.40440361772E+03  0.41568224831E+03  0.00000000000E+00 0. -1.
</event>
<event>
 8    1  0.7114239E-009  0.1522510E+03  0.7561462E-02  0.1197734E+00
          1   -1    0    0  501    0  0.00000000000E+00  0.00000000000E+00  0.51050425015E+03  0.51050425015E+03  0.00000000000E+00 0. -1.
         -1   -1    0    0    0  501 -0.00000000000E+00 -0.00000000000E+00 -0.62887998798E+02  0.62887998798E+02  0.00000000000E+00 0.  1.
         25    2    1    2    0    0 -0.10674487579E+03 -0.76055665778E+02  0.15523081191E+03  0.23858509506E+03  0.12508920742E+03 0.  0.
         23    2    1    2    0    0  0.10674487579E+03  0.76055665778E+02  0.29238543944E+03  0.33480715389E+03  0.97096098221E+02 0.  0.
          5    1    3    3  502    0 -0.12953347612E+03 -0.59519955956E+02  0.15428914839E+03  0.21010511728E+03  0.41800000000E+01 0. -1.
         -5    1    3    3    0  502  0.22788600329E+02 -0.16535709822E+02  0.94166351150E+00  0.28479977782E+02  0.41800000000E+01 0. -1.
        -11    1    4    4    0    0  0.41482399044E+02  0.15171521081E+02  0.20569266441E+03  0.21038164529E+03  0.00000000000E+00 0. -1.
         11    1    4    4    0    0  0.65262476750E+02  0.60884144697E+02  0.86692775037E+02  0.12442550860E+03  0.00000000000E+00 0.  1.
</event>
<event>
 8    1  0.7114239E-009  0.5432610E+02  0.7561462E-02  0.1423313E+00
         -2   -1    0    0    0  501 -0.00000000000E+00  0.00000000000E+00  0.91978262088E+02  0.91978262088E+02  0.00000000000E+00 0. -1.
          2   -1    0    0  501    0  0.00000000000E+00 -0.00000000000E+00 -0.13726867509E+03  0.13726867509E+03  0.00000000000E+00 0.  1.
         25    2    1    2    0    0 -0.94555117303E+01 -0.11904052955E+02  0.97908518906E+01  0.12638535591E+03  0.12508510794E+03 0.  0.
         23    2    1    2    0    0  0.94555117303E+01  0.11904052955E+02 -0.55081264889E+02  0.10286158127E+03  0.85530380453E+02 0.  0.
          5    1    3    3  502    0 -0.19143974815E+02  0.13820036898E+02  0.62417798533E+02  0.66865081809E+02  0.41800000000E+01 0.  1.
         -5    1    3    3    0  502  0.96884630845E+01 -0.25724089853E+02 -0.52626946643E+02  0.59520274098E+02  0.41800000000E+01 0.  1.
        -11    1    4    4    0    0  0.31360353003E+02 -0.11295402486E+01 -0.67552164525E+02  0.74485183316E+02  0.00000000000E+00 0.  1.
         11    1    4    4    0    0 -0.21904841273E+02  0.13033593204E+02  0.12470899636E+02  0.28376397952E+02  0.00000000000E+00 0. -1.
</event>
<event>
 8    1  0.7114239E-009  0.7873584E+02  0.7561462E-02  0.1332678E+00
         -1   -1    0    0    0  501 -0.00000000000E+00  0.00000000000E+00  0.28636940473E+02  0.28636940473E+02  0.00000000000E+00 0.  1.
          1   -1    0    0  501    0  0.00000000000E+00 -0.00000000000E+00 -0.66471567782E+03  0.66471567782E+03  0.00000000000E+00 0. -1.
         25    2    1    2    0    0  0.11031947401E+02  0.23296861516E+02 -0.55437555419E+03  0.56889757364E+03  0.12509095326E+03 0.  0.
         23    2    1    2    0    0 -0.11031947401E+02 -0.23296861516E+02 -0.81703183155E+02  0.12445504465E+03  0.90272921643E+02 0.  0.
          5    1    3    3  502    0 -0.16311554527E+02  0.56011455726E+02 -0.13227931233E+03  0.14463277241E+03  0.41800000000E+01 0.  1.
         -5    1    3    3    0  502  0.27343501928E+02 -0.32714594210E+02 -0.42209624186E+03  0.42426480123E+03  0.41800000000E+01 0.  1.
        -11    1    4    4    0    0 -0.23021264498E+02  0.65855117809E+01 -0.88385142736E+02  0.91571180188E+02  0.00000000000E+00 0. -1.
         11    1    4    4    0    0  0.11989317097E+02 -0.29882373297E+02  0.66819595812E+01  0.32883864465E+02  0.00000000000E+00 0.  1.
</event>
<event>
 8    1  0.7114239E-009  0.1368567E+03  0.7561462E-02  0.1217622E+00
         -1   -1    0    0    0  501 -0.00000000000E+00  0.00000000000E+00  0.36172285460E+03  0.36172285460E+03  0.00000000000E+00 0.  1.
          1   -1    0    0  501    0  0.00000000000E+00 -0.00000000000E+00 -0.12700268495E+03  0.12700268495E+03  0.00000000000E+00 0. -1.
         25    2    1    2    0    0  0.45998329366E+02 -0.11709586384E+03 -0.32004211221E+02  0.18027487258E+03  0.12508985776E+03 0.  0.
         23    2    1    2    0    0 -0.45998329366E+02  0.11709586384E+03  0.26672438087E+03  0.30845066697E+03  0.90402604874E+02 0.  0.
          5    1    3    3  502    0  0.25845745681E+02 -0.81611201830E+02  0.42164283737E+02  0.95518009072E+02  0.41800000000E+01 0. -1.
         -5    1    3    3    0  502  0.20152583684E+02 -0.35484662014E+02 -0.74168494958E+02  0.84756863508E+02  0.41800000000E+01 0. -1.
        -11    1    4    4    0    0 -0.64952910260E+02  0.10783975195E+03  0.25484113529E+03  0.28423985802E+03  0.00000000000E+00 0.  1.
         11    1    4    4    0    0  0.18954580895E+02  0.92561118938E+01  0.11883245579E+02  0.24210808945E+02  0.00000000000E+00 0. -1.
</event>
<event>
 8    1  0.7114239E-009  0.1069795E+03  0.7561462E-02  0.1266268E+00
          2   -1    0    0  501    0  0.00000000000E+00  0.00000000000E+00  0.38812646891E+03  0.38812646891E+03  0.00000000000E+00 0. -1.
         -2   -1    0    0    0  501 -0.00000000000E+00 -0.00000000000E+00 -0.35664318624E+02  0.35664318624E+02  0.00000000000E+00 0.  1.
         25    2    1    2    0    0  0.41190014388E+02  0.98295888679E+01  0.22555589062E+03  0.26137195559E+03  0.12508637526E+03 0.  0.
         23    2    1    2    0    0 -0.41190014388E+02 -0.98295888679E+01  0.12690625966E+03  0.16241883194E+03  0.92094734504E+02 0.  0.
          5    1    3    3  502    0  0.21018656949E+02  0.65855054847E+02  0.92616196759E+02  0.11564559867E+03  0.41800000000E+01 0. -1.
         -5    1    3    3    0  502  0.20171357439E+02 -0.56025465980E+02  0.13293969386E+03  0.14572635693E+03  0.41800000000E+01 0. -1.
        -11    1    4    4    0    0 -0.52007142520E+02  0.18095452168E+02  0.33791570991E+02  0.64606954210E+02  0.00000000000E+00 0.  1.
         11    1    4    4    0    0  0.10817128132E+02 -0.27925041036E+02  0.93114688670E+02  0.97811877725E+02  0.00000000000E+00 0. -1.
</event>
<event>
 8    1  0.7114239E-009  0.1521196E+03  0.7561462E-02  0.1197892E+00
         -2   -1    0    0    0  501 -0.00000000000E+00  0.00000000000E+00  0.31639592643E+02  0.31639592643E+02  0.00000000000E+00 0. -1.
          2   -1    0    0  501    0  0.00000000000E+00 -0.00000000000E+00 -0.82039808981E+03  0.82039808981E+03  0.00000000000E+00 0.  1.
         25    2    1    2    0    0 -0.10594850004E+02 -0.11961311618E+03 -0.47468994666E+03  0.50536835319E+03  0.12508828300E+03 0.  0.
         23    2    1    2    0    0  0.10594850004E+02  0.11961311618E+03 -0.31406855051E+03  0.34666932926E+03  0.84386142347E+02 0.  0.
          5    1    3    3  502    0  0.35201871083E+02 -0.71883292695E+01 -0.22284553258E+03  0.22576192680E+03  0.41800000000E+01 0.  1.
         -5    1    3    3    0  502 -0.45796721086E+02 -0.11242478691E+03 -0.25184441408E+03  0.27960642639E+03  0.41800000000E+01 0.  1.
        -11    1    4    4    0    0  0.44906934118E+02  0.92663736540E+02 -0.21293868767E+03  0.23652924874E+03  0.00000000000E+00 0.  1.
         11    1    4    4    0    0 -0.34312084115E+02  0.26949379641E+02 -0.10112986284E+03  0.11014008052E+03  0.00000000000E+00 0. -1.
</event>
<event>
 8    1  0.7114239E-009  0.2220198E+03  0.7561462E-02  0.1132386E+00
          1   -1    0    0  501    0  0.00000000000E+00  0.00000000000E+00  0.15809903278E+04  0.15809903278E+04  0.00000000000E+00 0. -1.
         -1   -1    0    0    0  501 -0.00000000000E+00 -0.00000000000E+00 -0.33663624876E+02  0.33663624876E+02  0.00000000000E+00 0.  1.
         25    2    1    2    0    0 -0.20092649987E+03 -0.16046826445E+02  0.89360223514E+03  0.92455467174E+03  0.12508967746E+03 0.  0.
         23    2    1    2    0    0  0.20092649987E+03  0.16046826445E+02  0.65372446777E+03  0.69009928092E+03  0.90842604408E+02 0.  0.
          5    1    3    3  502    0 -0.76386800380E+02 -0.57393397451E+02  0.51576772347E+03  0.52455958891E+03  0.41800000000E+01 0. -1.
         -5    1    3    3    0  502 -0.12453969949E+03  0.41346571006E+02  0.37783451167E+03  0.39999508283E+03  0.41800000000E+01 0. -1.
        -11    1    4    4    0    0  0.19014086433E+03 -0.84684436421E+01  0.60815029698E+03  0.63723782573E+03  0.00000000000E+00 0. -1.
         11    1    4    4    0    0  0.10785635541E+02  0.24515270087E+02  0.45574170792E+02  0.52861455190E+02  0.00000000000E+00 0.  1.
</event>
<event>
 8    1  0.7114239E-009  0.1160635E+03  0.7561462E-02  0.1249736E+00
         -2   -1    0    0    0  501 -0.00000000000E+00  0.00000000000E+00  0.35218432452E+02  0.35218432452E+02  0.00000000000E+00 0. -1.
          2   -1    0    0  501    0  0.00000000000E+00 -0.00000000000E+00 -0.44739271170E+03  0.44739271170E+03  0.00000000000E+00 0.  1.
         25    2    1    2    0    0 -0.34991349183E+02  0.47587378203E+02 -0.27137599815E+03  0.30459906825E+03  0.12508679757E+03 0.  0.
         23    2    1    2    0    0  0.34991349183E+02 -0.47587378203E+02 -0.14079828110E+03  0.17801207590E+03  0.91516064845E+02 0.  0.
          5    1    3    3  502    0  0.37731701634E+02 -0.13211382327E+02 -0.11347245057E+03  0.12038144113E+03  0.41800000000E+01 0. -1.
         -5    1    3    3    0  502 -0.72723050817E+02  0.60798760530E+02 -0.15790354758E+03  0.18421762712E+03  0.41800000000E+01 0. -1.
        -11    1    4    4    0    0  0.29768162265E+01  0.21078057473E+02 -0.40352590366E+01  0.21666316188E+02  0.00000000000E+00 0.  1.
         11    1    4    4    0    0  0.32014532956E+02 -0.68665435676E+02 -0.13676302206E+03  0.15634575971E+03  0.00000000000E+00 0. -1.
</event>
<event>
 8    1  0.7114239E-009  0.1504982E+03  0.7561462E-02  0.1199862E+00
          1   -1    0    0  501    0  0.00000000000E+00  0.00000000000E+00  0.12755332913E+03  0.12755332913E+03  0.00000000000E+00 0. -1.
         -1   -1    0    0    0  501 -0.00000000000E+00 -0.00000000000E+00 -0.22927156540E+03  0.22927156540E+03  0.00000000000E+00 0.  1.
         25    2    1    2    0    0  0.13230080893E+03 -0.17369865602E+02 -0.55294000825E+02  0.19107564691E+03  0.12508900847E+03 0.  0.
         23    2    1    2    0    0 -0.13230080893E+03  0.17369865602E+02 -0.46424235441E+02  0.16574924762E+03  0.86674028261E+02 0.  0.
          5    1    3    3  502    0  0.50744076558E+02  0.42341492826E+02  0.14984050196E+02  0.67895194828E+02  0.41800000000E+01 0.  1.
         -5    1    3    3    0  502  0.81556732376E+02 -0.59711358428E+02 -0.70278051021E+02  0.12318045209E+03  0.41800000000E+01 0.  1.
        -11    1    4    4    0    0 -0.45092809809E+02  0.26706190140E+01 -0.61220587314E+02  0.76081890180E+02  0.00000000000E+00 0. -1.
         11    1    4    4    0    0 -0.87207999124E+02  0.14699246588E+02  0.14796351873E+02  0.89667357440E+02  0.00000000000E+00 0.  1.
</event>
<event>
 8    1  0.7114239E-009  0.1020823E+03  0.7561462E-02  0.1275977E+00
         -2   -1    0    0    0  501 -0.00000000000E+00  0.00000000000E+00  0.23368746676E+02  0.23368746676E+02  0.00000000000E+00 0.  1.
          2   -1    0    0  501    0  0.00000000000E+00 -0.00000000000E+00 -0.52725918193E+03  0.52725918193E+03  0.00000000000E+00 0. -1.
         25    2    1    2    0    0  0.18099272689E+02  0.15875664384E+02 -0.35015931760E+03  0.37261050033E+03  0.12508963530E+03 0.  0.
         23    2    1    2    0    0 -0.18099272689E+02 -0.15875664384E+02 -0.15373111765E+03  0.17801742828E+03  0.86471543556E+02 0.  0.
          5    1    3    3  502    0  0.54814305503E+02 -0.29972576040E+02 -0.23592130943E+03  0.24408871348E+03  0.41800000000E+01 0.  1.
         -5    1    3    3    0  502 -0.36715032814E+02  0.45848240424E+02 -0.11423800817E+03  0.12852178685E+03  0.41800000000E+01 0.  1.
        -11    1    4    4    0    0  0.31085717017E+02 -0.12023110630E+02 -0.30114659169E+02  0.44919591367E+02  0.00000000000E+00 0.  1.
         11    1    4    4    0    0 -0.49184989706E+02 -0.38525537541E+01 -0.12361645848E+03  0.13309783691E+03  0.00000000000E+00 0. -1.
</event>
<event>
 8    1  0.7114239E-009  0.1302863E+03  0.7561462E-02  0.1227031E+00
         -1   -1    0    0    0  501 -0.00000000000E+00  0.00000000000E+00  0.15164459394E+03  0.15164459394E+03  0.00000000000E+00 0.  1.
          1   -1    0    0  501    0  0.00000000000E+00 -0.00000000000E+00 -0.13977282225E+03  0.13977282225E+03  0.00000000000E+00 0. -1.
         25    2    1    2    0    0 -0.53937878769E+02  0.72653374895E+02 -0.27675914316E+02  0.15684844088E+03  0.12509064523E+03 0.  0.
         23    2    1    2    0    0  0.53937878769E+02 -0.72653374895E+02  0.39547686000E+02  0.13456897530E+03  0.91416530215E+02 0.  0.
          5    1    3    3  502    0 -0.81641425072E+02  0.77102691981E+02 -0.47749064816E+02  0.12209665429E+03  0.41800000000E+01 0. -1.
         -5    1    3    3    0  502  0.27703546303E+02 -0.44493170854E+01  0.20073150500E+02  0.34751786591E+02  0.41800000000E+01 0. -1.
        -11    1    4    4    0    0 -0.20657815783E+02 -0.14315938362E+02  0.30378588113E+02  0.39427782842E+02  0.00000000000E+00 0.  1.
         11    1    4    4    0    0  0.74595694552E+02 -0.58337436534E+02  0.91690978868E+01  0.95141192462E+02  0.00000000000E+00 0. -1.
</event>
<event>
 8    1  0.7114239E-009  0.1334644E+03  0.7561462E-02  0.1222404E+00
         -2   -1    0    0    0  501 -0.00000000000E+00  0.00000000000E+00  0.48584687820E+03  0.48584687820E+03  0.00000000000E+00 0.  1.
          2   -1    0    0  501    0  0.00000000000E+00 -0.00000000000E+00 -0.45685739964E+02  0.45685739964E+02  0.00000000000E+00 0. -1.
         25    2    1    2    0    0  0.35460916651E+02  0.94057856409E+02  0.21186763569E+03  0.26578128442E+03  0.12508972433E+03 0.  0.
         23    2    1    2    0    0 -0.35460916651E+02 -0.94057856409E+02  0.22829350255E+03  0.26575133375E+03  0.91659648262E+02 0.  0.
          5    1    3    3  502    0  0.50885539461E+02  0.10324579506E+03  0.10038930696E+03  0.15278912813E+03  0.41800000000E+01 0. -1.
         -5    1    3    3    0  502 -0.15424622810E+02 -0.91879386535E+01  0.11147832873E+03  0.11299215629E+03  0.41800000000E+01 0. -1.
        -11    1    4    4    0    0 -0.63810572551E+02 -0.77846323997E+02  0.14715787796E+03  0.17828987738E+03  0.00000000000E+00 0. -1.
         11    1    4    4    0    0  0.28349655901E+02 -0.16211532412E+02  0.81135624586E+02  0.87461456367E+02  0.00000000000E+00 0.  1.
</event>
<event>
 8    1  0.7114239E-009  0.9694984E+02  0.7561462E-02  0.1286844E+00
          1   -1    0    0  501    0  0.00000000000E+00  0.00000000000E+00  0.30160152111E+02  0.30160152111E+02  0.00000000000E+00 0. -1.
         -1   -1    0    0    0  501 -0.00000000000E+00 -0.00000000000E+00 -0.54178914759E+03  0.54178914759E+03  0.00000000000E+00 0.  1.
         25    2    1    2    0    0  0.33887671636E+02 -0.47783744712E+02 -0.21160877418E+03  0.25270064371E+03  0.12509069300E+03 0.  0.
         23    2    1    2    0    0 -0.33887671636E+02  0.47783744712E+02 -0.30002022130E+03  0.31924865599E+03  0.92064708842E+02 0.  0.
          5    1    3    3  502    0 -0.10249296246E+02  0.94526131709E+01 -0.16706217415E+03  0.16769508759E+03  0.41800000000E+01 0.  1.
         -5    1    3    3    0  502  0.44136967883E+02 -0.57236357883E+02 -0.44546600026E+02  0.85005556121E+02  0.41800000000E+01 0.  1.
        -11    1    4    4    0    0 -0.26804612870E+02 -0.23296180031E+02 -0.71663346008E+02  0.79980212779E+02  0.00000000000E+00 0. -1.
         11    1    4    4    0    0 -0.70830587662E+01  0.71079924743E+02 -0.22835687529E+03  0.23926844321E+03  0.00000000000E+00 0.  1.
</event>
<event>
 8    1  0.7114239E-009  0.1451141E+03  0.7561462E-02  0.1206609E+00
          2   -1    0    0  501    0  0.00000000000E+00  0.00000000000E+00  0.67424094635E+03  0.67424094635E+03  0.00000000000E+00 0. -1.
         -2   -1    0    0    0  501 -0.00000000000E+00 -0.00000000000E+00 -0.46909709439E+02  0.46909709439E+02  0.00000000000E+00 0.  1.
         25    2    1    2    0    0  0.12490978553E+03  0.39919921374E+02  0.44054649676E+03  0.47636701150E+03  0.12509300218E+03 0.  0.
         23    2    1    2    0    0 -0.12490978553E+03 -0.39919921374E+02  0.18678474015E+03  0.24478364429E+03  0.88512364763E+02 0.  0.
          5    1    3    3  502    0  0.11210038151E+03  0.38470785903E+02  0.18053125276E+03  0.21599884844E+03  0.41800000000E+01 0.  1.
         -5    1    3    3    0  502  0.12809404020E+02  0.14491354714E+01  0.26001524400E+03  0.26036816306E+03  0.41800000000E+01 0.  1.
        -11    1    4    4    0    0 -0.85081266321E+02  0.18798214538E+02  0.10778482902E+03  0.13859929335E+03  0.00000000000E+00 0. -1.
         11    1    4    4    0    0 -0.39828519205E+02 -0.58718135912E+02  0.78999911126E+02  0.10618435094E+03  0.00000000000E+00 0.  1.
</event>
<event>
 8    1  0.7114239E-009  0.8481804E+02  0.7561462E-02  0.1315909E+00
          1   -1    0    0  501    0  0.00000000000E+00  0.00000000000E+00  0.74849395785E+03  0.74849395785E+03  0.00000000000E+00 0. -1.
         -1   -1    0    0    0  501 -0.00000000000E+00 -0.00000000000E+00 -0.18640701371E+02  0.18640701371E+02  0.00000000000E+00 0.  1.
         25    2    1    2    0    0  0.20435559022E+02  0.38483605597E+02  0.41077476364E+03  0.43160350820E+03  0.12508829630E+03 0.  0.
         23    2    1    2    0    0 -0.20435559022E+02 -0.38483605597E+02  0.31907849284E+03  0.33553115102E+03  0.94188474579E+02 0.  0.
          5    1    3    3  502    0 -0.65802472682E+01  0.39804580377E+02  0.31534808283E+02  0.51377240161E+02  0.41800000000E+01 0. -1.
         -5    1    3    3    0  502  0.27015806291E+02 -0.13209747803E+01  0.37923995536E+03  0.38022626804E+03  0.41800000000E+01 0. -1.
        -11    1    4    4    0    0 -0.56318616926E+02 -0.13300129471E+02  0.14761930788E+03  0.15855642565E+03  0.00000000000E+00 0.  1.
         11    1    4    4    0    0  0.35883057903E+02 -0.25183476126E+02  0.17145918496E+03  0.17697472537E+03  0.00000000000E+00 0. -1.
</event>
<event>
 8    1  0.7114239E-009  0.7993264E+02  0.7561462E-02  0.1329243E+00
         -1   -1    0    0    0  501 -0.00000000000E+00  0.00000000000E+00  0.11173408554E+03  0.11173408554E+03  0.00000000000E+00 0.  1.
          1   -1    0    0  501    0  0.00000000000E+00 -0.00000000000E+00 -0.13490824006E+03  0.13490824006E+03  0.00000000000E+00 0. -1.
         25    2    1    2    0    0  0.41856499143E+02  0.35464686749E+02 -0.30508203937E+02  0.13995649642E+03  0.12508940745E+03 0.  0.
         23    2    1    2    0    0 -0.41856499143E+02 -0.35464686749E+02  0.73340494184E+01  0.10668582919E+03  0.91205083967E+02 0.  0.
          5    1    3    3  502    0  0.61719491464E+02  0.41810437358E+02 -0.65292125346E+02  0.99186401945E+02  0.41800000000E+01 0. -1.
         -5    1    3    3    0  502 -0.19862992321E+02 -0.63457506089E+01  0.34783921410E+02  0.40770094474E+02  0.41800000000E+01 0. -1.
        -11    1    4    4    0    0 -0.44049098863E+01 -0.24523868976E+02 -0.38895665176E+02  0.46191948975E+02  0.00000000000E+00 0. -1.
         11    1    4    4    0    0 -0.37451589257E+02 -0.10940817773E+02  0.46229714594E+02  0.60493880210E+02  0.00000000000E+00 0.  1.
</event>
<event>
 8    1  0.7114239E-009  0.9040392E+02  0.7561462E-02  0.1301876E+00
          1   -1    0    0  501    0  0.00000000000E+00  0.00000000000E+00  0.14280830310E+03  0.14280830310E+03  0.00000000000E+00 0. -1.
         -1   -1    0    0    0  501 -0.00000000000E+00 -0.00000000000E+00 -0.97590405462E+02  0.97590405462E+02  0.00000000000E+00 0.  1.
         25    2    1    2    0    0  0.12606365532E+02  0.36031387086E+02  0.56027156517E+02  0.14227913199E+03  0.12508847998E+03 0.  0.
         23    2    1    2    0    0 -0.12606365532E+02 -0.36031387086E+02 -0.10809258877E+02  0.98119576577E+02  0.89740904402E+02 0.  0.
          5    1    3    3  502    0 -0.15591932587E+02 -0.17901156647E+02 -0.28950979507E+02  0.37672156635E+02  0.41800000000E+01 0.  1.
         -5    1    3    3    0  502  0.28198298119E+02  0.53932543733E+02  0.84978136023E+02  0.10460697535E+03  0.41800000000E+01 0.  1.
        -11    1    4    4    0    0 -0.50290293736E+02 -0.14684511445E+02 -0.15296118811E+02  0.54577649007E+02  0.00000000000E+00 0. -1.
         11    1    4    4    0    0  0.37683928204E+02 -0.21346875641E+02  0.44868599340E+01  0.43541927570E+02  0.00000000000E+00 0.  1.
</event>
<event>
 8    1  0.7114239E-009  0.1036302E+03  0.7561462E-02  0.1272842E+00
          2   -1    0    0  501    0  0.00000000000E+00  0.00000000000E+00  0.11736319883E+03  0.11736319883E+03  0.00000000000E+00 0. -1.
         -2   -1    0    0    0  501 -0.00000000000E+00 -0.00000000000E+00 -0.15972168584E+03  0.15972168584E+03  0.00000000000E+00 0.  1.
         25    2    1    2    0    0  0.51784201236E+02 -0.65117983472E+02 -0.34663639688E+02  0.15417560887E+03  0.12508635091E+03 0.  0.
         23    2    1    2    0    0 -0.51784201236E+02  0.65117983472E+02 -0.76948473223E+01  0.12290927580E+03  0.90141689203E+02 0.  0.
          5    1    3    3  502    0  0.52274804857E+01 -0.30650976811E+02  0.45449146614E+02  0.55225956393E+02  0.41800000000E+01 0.  1.
         -5    1    3    3    0  502  0.46556720750E+02 -0.34467006662E+02 -0.80112786302E+02  0.98949652472E+02  0.41800000000E+01 0.  1.
        -11    1    4    4    0    0 -0.74798364360E+02  0.53979234152E+02 -0.20229466770E+02  0.94434021181E+02  0.00000000000E+00 0. -1.
         11    1    4    4    0    0  0.23014163124E+02  0.11138749321E+02  0.12534619448E+02  0.28475254616E+02  0.00000000000E+00 0.  1.
</event>
<event>
 8    1  0.7114239E-009  0.1033936E+03  0.7561462E-02  0.1273317E+00
         -2   -1    0    0    0  501 -0.00000000000E+00  0.00000000000E+00  0.31963892296E+03  0.31963892296E+03  0.00000000000E+00 0.  1.
          2   -1    0    0  501    0  0.00000000000E+00 -0.00000000000E+00 -0.48415208799E+02  0.48415208799E+02  0.00000000000E+00 0. -1.
         25    2    1    2    0    0 -0.46937571429E+02 -0.35109037089E+02  0.17998275736E+03  0.22688559877E+03  0.12508997516E+03 0.  0.
         23    2    1    2    0    0  0.46937571429E+02  0.35109037089E+02  0.91240956804E+02  0.14116853299E+03  0.90376227030E+02 0.  0.
          5    1    3    3  502    0  0.16214091311E+02  0.11637158124E+02  0.13443222794E+03  0.13596991033E+03  0.41800000000E+01 0.  1.
         -5    1    3    3    0  502 -0.63151662740E+02 -0.46746195213E+02  0.45550529419E+02  0.90915688437E+02  0.41800000000E+01 0.  1.
        -11    1    4    4    0    0 -0.27262818454E+02  0.13556128127E+02  0.26452673581E+02  0.40333284263E+02  0.00000000000E+00 0.  1.
         11    1    4    4    0    0  0.74200389883E+02  0.21552908962E+02  0.64788283222E+02  0.10083524873E+03  0.00000000000E+00 0. -1.
</event>
<event>
 8    1  0.7114239E-009  0.1435481E+03  0.7561462E-02  0.1208633E+00
          1   -1    0    0  501    0  0.00000000000E+00  0.00000000000E+00  0.48955418452E+02  0.48955418452E+02  0.00000000000E+00 0. -1.
         -1   -1    0    0    0  501 -0.00000000000E+00 -0.00000000000E+00 -0.57485743750E+03  0.57485743750E+03  0.00000000000E+00 0.  1.
         25    2    1    2    0    0 -0.21200472328E+02 -0.97273719029E+02 -0.13425234513E+03  0.20876470982E+03  0.12508946980E+03 0.  0.
         23    2    1    2    0    0  0.21200472328E+02  0.97273719029E+02 -0.39164967392E+03  0.41504814613E+03  0.94677664134E+02 0.  0.
          5    1    3    3  502    0 -0.67232962912E+02 -0.38153764762E+02 -0.99483931470E+02  0.12605755070E+03  0.41800000000E+01 0.  1.
         -5    1    3    3    0  502  0.46032490584E+02 -0.59119954267E+02 -0.34768413661E+02  0.82707159125E+02  0.41800000000E+01 0.  1.
        -11    1    4    4    0    0  0.55465626222E+02  0.76745990789E+02 -0.23437863451E+03  0.25278395343E+03  0.00000000000E+00 0. -1.
         11    1    4    4    0    0 -0.34265153893E+02  0.20527728240E+02 -0.15727103941E+03  0.16226419271E+03  0.00000000000E+00 0.  1.
</event>
<event>
 8    1  0.7114239E-009  0.1610399E+03  0.7561462E-02  0.1187528E+00
          2   -1    0    0  501    0  0.00000000000E+00  0.00000000000E+00  0.93273653134E+03  0.93273653134E+03  0.00000000000E+00 0. -1.
         -2   -1    0    0    0  501 -0.00000000000E+00 -0.00000000000E+00 -0.28251985159E+02  0.28251985159E+02  0.00000000000E+00 0.  1.
         25    2    1    2    0    0  0.11549304748E+03  0.28132888530E+02  0.53338934719E+03  0.56060467968E+03  0.12507320955E+03 0.  0.
         23    2    1    2    0    0 -0.11549304748E+03 -0.28132888530E+02  0.37109519899E+03  0.40038383682E+03  0.92007970523E+02 0.  0.
          5    1    3    3  502    0 -0.80976701915E+01  0.46220954612E+02  0.12837828566E+03  0.13674942610E+03  0.41800000000E+01 0.  1.
         -5    1    3    3    0  502  0.12359071767E+03 -0.18088066082E+02  0.40501106153E+03  0.42385525358E+03  0.41800000000E+01 0.  1.
        -11    1    4    4    0    0 -0.97945345493E+02  0.18935326080E+02  0.23409712813E+03  0.25446670249E+03  0.00000000000E+00 0.  1.
         11    1    4    4    0    0 -0.17547701987E+02 -0.47068214610E+02  0.13699807086E+03  0.14591713433E+03  0.00000000000E+00 0. -1.
</event>
<event>
 8    1  0.7114239E-009  0.1821680E+03  0.7561462E-02  0.1165721E+00
          4   -1    0    0  501    0  0.00000000000E+00  0.00000000000E+00  0.26698625566E+03  0.26698625566E+03  0.00000000000E+00 0. -1.
         -4   -1    0    0    0  501 -0.00000000000E+00 -0.00000000000E+00 -0.13719836008E+03  0.13719836008E+03  0.00000000000E+00 0.  1.
         25    2    1    2    0    0 -0.74088536757E+02  0.13391731469E+03  0.10889396786E+03  0.22568363290E+03  0.12510894241E+03 0.  0.
         23    2    1    2    0    0  0.74088536757E+02 -0.13391731469E+03  0.20893927713E+02  0.17850098283E+03  0.89459969849E+02 0.  0.
          5    1    3    3  502    0 -0.10956224426E+03  0.10101110773E+03  0.83795881056E+02  0.17101564646E+03  0.41800000000E+01 0. -1.
         -5    1    3    3    0  502  0.35473707503E+02  0.32906206958E+02  0.25098086805E+02  0.54667986443E+02  0.41800000000E+01 0. -1.
        -11    1    4    4    0    0 -0.57306595989E+01 -0.52004342016E+02  0.35462909246E+02  0.63205300253E+02  0.00000000000E+00 0. -1.
         11    1    4    4    0    0  0.79819196356E+02 -0.81912972673E+02 -0.14568981533E+02  0.11529568258E+03  0.00000000000E+00 0.  1.
</event>
<event>
 8    1  0.7114239E-009  0.9042603E+02  0.7561462E-02  0.1301823E+00
         -2   -1    0    0    0  501 -0.00000000000E+00  0.00000000000E+00  0.72490994247E+02  0.72490994247E+02  0.00000000000E+00 0.  1.
          2   -1    0    0  501    0  0.00000000000E+00 -0.00000000000E+00 -0.22287885758E+03  0.22287885758E+03  0.00000000000E+00 0. -1.
         25    2    1    2    0    0  0.43168060370E+01  0.31434885110E+02 -0.17070180976E+02  0.13017536847E+03  0.12508976241E+03 0.  0.
         23    2    1    2    0    0 -0.43168060370E+01 -0.31434885110E+02 -0.13331768235E+03  0.16519448336E+03  0.92243298333E+02 0.  0.
          5    1    3    3  502    0  0.53038460414E+02 -0.21968059784E+01  0.23583730333E+02  0.58237178640E+02  0.41800000000E+01 0. -1.
         -5    1    3    3    0  502 -0.48721654377E+02  0.33631691088E+02 -0.40653911309E+02  0.71938189826E+02  0.41800000000E+01 0. -1.
        -11    1    4    4    0    0 -0.32295504731E+02 -0.20273258377E+02 -0.12929931165E+03  0.13480473517E+03  0.00000000000E+00 0. -1.
         11    1    4    4    0    0  0.27978698694E+02 -0.11161626733E+02 -0.40183707064E+01  0.30389748191E+02  0.00000000000E+00 0.  1.
</event>
<event>
 8    1  0.7114239E-009  0.2241071E+03  0.7561462E-02  0.1130858E+00
         -2   -1    0    0    0  501 -0.00000000000E+00  0.00000000000E+00  0.81219259608E+03  0.81219259608E+03  0.00000000000E+00 0.  1.
          2   -1    0    0  501    0  0.00000000000E+00 -0.00000000000E+00 -0.80281342715E+02  0.80281342715E+02  0.00000000000E+00 0. -1.
         25    2    1    2    0    0 -0.48721145644E+02 -0.19907250432E+03  0.19036011345E+03  0.30641158947E+03  0.12508987712E+03 0.  0.
         23    2    1    2    0    0  0.48721145644E+02  0.19907250432E+03  0.54155113992E+03  0.58606234933E+03  0.90486618624E+02 0.  0.
          5    1    3    3  502    0 -0.28238841622E+02  0.97271236284E+01  0.26982738151E+02  0.40467143071E+02  0.41800000000E+01 0. -1.
         -5    1    3    3    0  502 -0.20482304022E+02 -0.20879962795E+03  0.16337737530E+03  0.26594444640E+03  0.41800000000E+01 0. -1.
        -11    1    4    4    0    0  0.22756259488E+02  0.32776942080E+02  0.37900899597E+02  0.55033203326E+02  0.00000000000E+00 0.  1.
         11    1    4    4    0    0  0.25964886156E+02  0.16629556224E+03  0.50365024032E+03  0.53102914600E+03  0.00000000000E+00 0. -1.
</event>
<event>
 8    1  0.7114239E-009  0.1215247E+03  0.7561462E-02  0.1240603E+00
          1   -1    0    0  501    0  0.00000000000E+00  0.00000000000E+00  0.15510632951E+03  0.15510632951E+03  0.00000000000E+00 0. -1.
         -1   -1    0    0    0  501 -0.00000000000E+00 -0.00000000000E+00 -0.25004418379E+03  0.25004418379E+03  0.00000000000E+00 0.  1.
         25    2    1    2    0    0  0.55562851681E+02 -0.59753436184E+02  0.95472880222E+02  0.17725642878E+03  0.12508823711E+03 0.  0.
         23    2    1    2    0    0 -0.55562851681E+02  0.59753436184E+02 -0.19041073450E+03  0.22789408452E+03  0.94982958065E+02 0.  0.
          5    1    3    3  502    0 -0.25379649615E+02  0.15220658001E+02 -0.20309261440E+01  0.29956503560E+02  0.41800000000E+01 0.  1.
         -5    1    3    3    0  502  0.80942501296E+02 -0.74974094185E+02  0.97503806366E+02  0.14729992522E+03  0.41800000000E+01 0.  1.
        -11    1    4    4    0    0 -0.66705498698E+02  0.62353448053E+02 -0.19519177517E+03  0.21549339929E+03  0.00000000000E+00 0.  1.
         11    1    4    4    0    0  0.11142647018E+02 -0.26000118688E+01  0.47810406739E+01  0.12400685231E+02  0.00000000000E+00 0. -1.
</event>
<event>
 8    1  0.7114239E-009  0.1180439E+03  0.7561462E-02  0.1246359E+00
         -1   -1    0    0    0  501 -0.00000000000E+00  0.00000000000E+00  0.20161520887E+03  0.20161520887E+03  0.00000000000E+00 0.  1.
          1   -1    0    0  501    0  0.00000000000E+00 -0.00000000000E+00 -0.11218594800E+03  0.11218594800E+03  0.00000000000E+00 0. -1.
         25    2    1    2    0    0  0.57889277779E+02  0.72784632116E+02  0.97849811082E-01  0.15588048343E+03  0.12509973775E+03 0.  0.
         23    2    1    2    0    0 -0.57889277779E+02 -0.72784632116E+02  0.89331411057E+02  0.15792067344E+03  0.91159568581E+02 0.  0.
          5    1    3    3  502    0  0.58881271690E+02 -0.10272736607E+02  0.30621095872E+02  0.67287868042E+02  0.41800000000E+01 0.  1.
         -5    1    3    3    0  502 -0.99199391140E+00  0.83057368724E+02 -0.30523246061E+02  0.88592615389E+02  0.41800000000E+01 0.  1.
        -11    1    4    4    0    0 -0.47092116487E+02 -0.58668307906E+02  0.91402716980E+01  0.75783786884E+02  0.00000000000E+00 0. -1.
         11    1    4    4    0    0 -0.10797161292E+02 -0.14116324210E+02  0.80191139359E+02  0.82136886555E+02  0.00000000000E+00 0.  1.
</event>
<event>
 8    1  0.7114239E-009  0.1108081E+03  0.7561462E-02  0.1259081E+00
         -2   -1    0    0    0  501 -0.00000000000E+00  0.00000000000E+00  0.78092725931E+02  0.78092725931E+02  0.00000000000E+00 0.  1.
          2   -1    0    0  501    0  0.00000000000E+00 -0.00000000000E+00 -0.19491720331E+03  0.19491720331E+03  0.00000000000E+00 0. -1.
         25    2    1    2    0    0 -0.56263648353E+02 -0.96424824826E+01 -0.69059317849E+02  0.15386680337E+03  0.12508888121E+03 0.  0.
         23    2    1    2    0    0  0.56263648353E+02  0.96424824826E+01 -0.47765159534E+02  0.11914312588E+03  0.93032243790E+02 0.  0.
          5    1    3    3  502    0 -0.44769024066E+02 -0.58671123171E+02 -0.76110592211E+01  0.74309937642E+02  0.41800000000E+01 0. -1.
         -5    1    3    3    0  502 -0.11494624288E+02  0.49028640688E+02 -0.61448258628E+02  0.79556865723E+02  0.41800000000E+01 0. -1.
        -11    1    4    4    0    0  0.52235416568E+01  0.38284018687E+02 -0.46692073678E+02  0.60606115356E+02  0.00000000000E+00 0. -1.
         11    1    4    4    0    0  0.51040106697E+02 -0.28641536204E+02 -0.10730858563E+01  0.58537010523E+02  0.00000000000E+00 0.  1.
</event>
<event>
 8    1  0.7114239E-009  0.1554277E+03  0.7561462E-02  0.1193958E+00
         -2   -1    0    0    0  501 -0.00000000000E+00  0.00000000000E+00  0.16554761070E+02  0.16554761070E+02  0.00000000000E+00 0. -1.
          2   -1    0    0  501    0  0.00000000000E+00 -0.00000000000E+00 -0.18774779425E+04  0.18774779425E+04  0.00000000000E+00 0.  1.
         25    2    1    2    0    0  0.76778863508E+02  0.10337345953E+03 -0.12544184506E+04  0.12671990825E+04  0.12508716788E+03 0.  0.
         23    2    1    2    0    0 -0.76778863508E+02 -0.10337345953E+03 -0.60650473081E+03  0.62683362101E+03  0.92148434163E+02 0.  0.
          5    1    3    3  502    0  0.45788117060E+02  0.35170630186E+00 -0.75052719356E+03  0.75193431630E+03  0.41800000000E+01 0. -1.
         -5    1    3    3    0  502  0.30990746448E+02  0.10302175323E+03 -0.50389125702E+03  0.51526476621E+03  0.41800000000E+01 0. -1.
        -11    1    4    4    0    0  0.20141282871E+02 -0.27702180303E+02 -0.10360263099E+03  0.10911730943E+03  0.00000000000E+00 0. -1.
         11    1    4    4    0    0 -0.96920146379E+02 -0.75671279225E+02 -0.50290209982E+03  0.51771631158E+03  0.00000000000E+00 0.  1.
</event>
<event>
 8    1  0.7114239E-009  0.9070062E+02  0.7561462E-02  0.1301164E+00
          2   -1    0    0  501    0  0.00000000000E+00  0.00000000000E+00  0.18997503237E+03  0.18997503237E+03  0.00000000000E+00 0. -1.
         -2   -1    0    0    0  501 -0.00000000000E+00 -0.00000000000E+00 -0.71819507585E+02  0.71819507585E+02  0.00000000000E+00 0.  1.
         25    2    1    2    0    0  0.17015247936E+02 -0.36506757082E+02  0.44772190132E+02  0.13883412258E+03  0.12509237630E+03 0.  0.
         23    2    1    2    0    0 -0.17015247936E+02  0.36506757082E+02  0.73383334657E+02  0.12296041738E+03  0.90066022797E+02 0.  0.
          5    1    3    3  502    0  0.68503801582E+01  0.44986777907E+02  0.10660600774E+01  0.45709372987E+02  0.41800000000E+01 0. -1.
         -5    1    3    3    0  502  0.10164867778E+02 -0.81493534989E+02  0.43706130054E+02  0.93124749590E+02  0.41800000000E+01 0. -1.
        -11    1    4    4    0    0  0.10445857022E+02  0.16374633187E+02  0.84839725001E+02  0.87034610812E+02  0.00000000000E+00 0. -1.
         11    1    4    4    0    0 -0.27461104958E+02  0.20132123895E+02 -0.11456390344E+02  0.35925806570E+02  0.00000000000E+00 0.  1.
</event>
<event>
 8    1  0.7114239E-009  0.1024444E+03  0.7561462E-02  0.1275238E+00
          1   -1    0    0  501    0  0.00000000000E+00  0.00000000000E+00  0.23198494549E+03  0.23198494549E+03  0.00000000000E+00 0. -1.
         -1   -1    0    0    0  501 -0.00000000000E+00 -0.00000000000E+00 -0.12389516924E+03  0.12389516924E+03  0.00000000000E+00 0.  1.
         25    2    1    2    0    0  0.55488540304E+02 -0.44646541745E+02 -0.57599951205E+02  0.15503969845E+03  0.12508901599E+03 0.  0.
         23    2    1    2    0    0 -0.55488540304E+02  0.44646541745E+02  0.16568972745E+03  0.20084041628E+03  0.88382663644E+02 0.  0.
          5    1    3    3  502    0  0.24312513783E+02  0.32268138735E+02 -0.59355952229E+02  0.71923101775E+02  0.41800000000E+01 0. -1.
         -5    1    3    3    0  502  0.31176026521E+02 -0.76914680480E+02  0.17560010244E+01  0.83116596673E+02  0.41800000000E+01 0. -1.
        -11    1    4    4    0    0 -0.43637750164E+02  0.10296479518E+02  0.17285969695E+02  0.48052840479E+02  0.00000000000E+00 0.  1.
         11    1    4    4    0    0 -0.11850790140E+02  0.34350062227E+02  0.14840375776E+03  0.15278757580E+03  0.00000000000E+00 0. -1.
</event>
<event>
 8    1  0.7114239E-009  0.1265729E+03  0.7561462E-02  0.1232631E+00
         -2   -1    0    0    0  501 -0.00000000000E+00  0.00000000000E+00  0.90192951242E+02  0.90192951242E+02  0.00000000000E+00 0. -1.
          2   -1    0    0  501    0  0.00000000000E+00 -0.00000000000E+00 -0.35080783952E+03  0.35080783952E+03  0.00000000000E+00 0.  1.
         25    2    1    2    0    0  0.81212452239E+02  0.93578783170E+02 -0.21762361968E+03  0.27992802160E+03  0.12508879397E+03 0.  0.
         23    2    1    2    0    0 -0.81212452239E+02 -0.93578783170E+02 -0.42991268598E+02  0.16107276916E+03  0.93507950093E+02 0.  0.
          5    1    3    3  502    0  0.50085891251E+01  0.25718342256E+02 -0.16096818311E+03  0.16314026930E+03  0.41800000000E+01 0.  1.
         -5    1    3    3    0  502  0.76203863114E+02  0.67860440915E+02 -0.56655436565E+02  0.11678775230E+03  0.41800000000E+01 0.  1.
        -11    1    4    4    0    0 -0.61155157088E+02 -0.62061932261E+02 -0.72593484711E+02  0.11340833610E+03  0.00000000000E+00 0.  1.
         11    1    4    4    0    0 -0.20057295151E+02 -0.31516850909E+02  0.29602216114E+02  0.47664433059E+02  0.00000000000E+00 0. -1.
</event>
<event>
 8    1  0.7114239E-009  0.1978755E+03  0.7561462E-02  0.1151544E+00
         -1   -1    0    0    0  501 -0.00000000000E+00  0.00000000000E+00  0.57922002464E+02  0.57922002464E+02  0.00000000000E+00 0.  1.
          1   -1    0    0  501    0  0.00000000000E+00 -0.00000000000E+00 -0.83770084207E+03  0.83770084207E+03  0.00000000000E+00 0. -1.
         25    2    1    2    0    0  0.98711772685E+02 -0.16455479200E+03 -0.38280540544E+03  0.44610514635E+03  0.12509008564E+03 0.  0.
         23    2    1    2    0    0 -0.98711772685E+02  0.16455479200E+03 -0.39697343416E+03  0.44951769818E+03  0.87498342353E+02 0.  0.
          5    1    3    3  502    0  0.16185068836E+02 -0.70022268448E+02 -0.43021361262E+02  0.83865275631E+02  0.41800000000E+01 0.  1.
         -5    1    3    3    0  502  0.82526703849E+02 -0.94532523552E+02 -0.33978404418E+03  0.36223987072E+03  0.41800000000E+01 0.  1.
        -11    1    4    4    0    0 -0.74681718512E+02  0.15553788226E+03 -0.27327881634E+03  0.32318834038E+03  0.00000000000E+00 0.  1.
         11    1    4    4    0    0 -0.24030054173E+02  0.90169097369E+01 -0.12369461782E+03  0.12632935780E+03  0.00000000000E+00 0. -1.
</event>
<event>
 8    1  0.7114239E-009  0.1322276E+03  0.7561462E-02  0.1224187E+00
          2   -1    0    0  501    0  0.00000000000E+00  0.00000000000E+00  0.50333059988E+03  0.50333059988E+03  0.00000000000E+00 0.  1.
         -2   -1    0    0    0  501 -0.00000000000E+00 -0.00000000000E+00 -0.43382362978E+02  0.43382362978E+02  0.00000000000E+00 0. -1.
         25    2    1    2    0    0 -0.59460109791E+02 -0.48158655631E+02  0.36728870545E+03  0.39547843431E+03  0.12508972016E+03 0.  0.
         23    2    1    2    0    0  0.59460109791E+02  0.48158655631E+02  0.92659531451E+02  0.15123452854E+03  0.91822290790E+02 0.  0.
          5    1    3    3  502    0 -0.81054379248E+02  0.11239794269E+02  0.18007085889E+03  0.19783612409E+03  0.41800000000E+01 0.  1.
         -5    1    3    3    0  502  0.21594269456E+02 -0.59398449900E+02  0.18721784655E+03  0.19764231023E+03  0.41800000000E+01 0.  1.
        -11    1    4    4    0    0  0.10776403245E+02  0.66340814567E+02  0.57922302703E+02  0.88725575201E+02  0.00000000000E+00 0.  1.
         11    1    4    4    0    0  0.48683706546E+02 -0.18182158936E+02  0.34737228747E+02  0.62508953340E+02  0.00000000000E+00 0. -1.
</event>
<event>
 8    1  0.7114239E-009  0.1268498E+03  0.7561462E-02  0.1232206E+00
         -2   -1    0    0    0  501 -0.00000000000E+00  0.00000000000E+00  0.28137886439E+02  0.28137886439E+02  0.00000000000E+00 0.  1.
          2   -1    0    0  501    0  0.00000000000E+00 -0.00000000000E+00 -0.71775123795E+03  0.71775123795E+03  0.00000000000E+00 0. -1.
         25    2    1    2    0    0 -0.60899167239E+02  0.51382891452E+02 -0.49210351958E+03  0.51396779851E+03  0.12509242113E+03 0.  0.
         23    2    1    2    0    0  0.60899167239E+02 -0.51382891452E+02 -0.19750983194E+03  0.23192132588E+03  0.91806631468E+02 0.  0.
          5    1    3    3  502    0 -0.85827014539E+02 -0.52178302823E+01 -0.30035458816E+03  0.31244816083E+03  0.41800000000E+01 0. -1.
         -5    1    3    3    0  502  0.24927847300E+02  0.56600721734E+02 -0.19174893141E+03  0.20151963768E+03  0.41800000000E+01 0. -1.
        -11    1    4    4    0    0  0.14371632842E+02  0.17409544320E+02 -0.10586134420E+03  0.10824167525E+03  0.00000000000E+00 0. -1.
         11    1    4    4    0    0  0.46527534397E+02 -0.68792435772E+02 -0.91648487735E+02  0.12367965063E+03  0.00000000000E+00 0.  1.
</event>
<event>
 8    1  0.7114239E-009  0.2111799E+03  0.7561462E-02  0.1140635E+00
         -1   -1    0    0    0  501 -0.00000000000E+00  0.00000000000E+00  0.57855821947E+02  0.57855821947E+02  0.00000000000E+00 0.  1.
          1   -1    0    0  501    0  0.00000000000E+00 -0.00000000000E+00 -0.87483485976E+03  0.87483485976E+03  0.00000000000E+00 0. -1.
         25    2    1    2    0    0 -0.12900030286E+03  0.14353841283E+03 -0.49899259031E+03  0.54944053923E+03  0.12508775666E+03 0.  0.
         23    2    1    2    0    0  0.12900030286E+03 -0.14353841283E+03 -0.31798644751E+03  0.38325014248E+03  0.92308920580E+02 0.  0.
          5    1    3    3  502    0 -0.86158585604E+02  0.14151224305E+03 -0.46766925897E+03  0.49616632795E+03  0.41800000000E+01 0. -1.
         -5    1    3    3    0  502 -0.42841717252E+02  0.20261697864E+01 -0.31323331342E+02  0.53274211280E+02  0.41800000000E+01 0. -1.
        -11    1    4    4    0    0  0.50522806279E+02 -0.12216635188E+03 -0.18547425764E+03  0.22776714366E+03  0.00000000000E+00 0.  1.
         11    1    4    4    0    0  0.78477496577E+02 -0.21372060958E+02 -0.13251218987E+03  0.15548299882E+03  0.00000000000E+00 0. -1.
</event>
<event>
 8    1  0.7114239E-009  0.1513099E+03  0.7561462E-02  0.1198873E+00
          2   -1    0    0  501    0  0.00000000000E+00  0.00000000000E+00  0.48065872755E+02  0.48065872755E+02  0.00000000000E+00 0. -1.
         -2   -1    0    0    0  501 -0.00000000000E+00 -0.00000000000E+00 -0.72452216104E+03  0.72452216104E+03  0.00000000000E+00 0.  1.
         25    2    1    2    0    0  0.12595901091E+03 -0.70360895404E+02 -0.25804793752E+03  0.32101750471E+03  0.12508865754E+03 0.  0.
         23    2    1    2    0    0 -0.12595901091E+03  0.70360895404E+02 -0.41840835077E+03  0.45157052908E+03  0.89632955509E+02 0.  0.
          5    1    3    3  502    0  0.12343628224E+03 -0.61070944053E+02 -0.12041420174E+03  0.18298422982E+03  0.41800000000E+01 0.  1.
         -5    1    3    3    0  502  0.25227286704E+01 -0.92899513509E+01 -0.13763373577E+03  0.13803327490E+03  0.41800000000E+01 0.  1.
        -11    1    4    4    0    0 -0.71156036833E+02  0.84407829533E+01 -0.29091689947E+03  0.29961153315E+03  0.00000000000E+00 0.  1.
         11    1    4    4    0    0 -0.54802974072E+02  0.61920112450E+02 -0.12749145130E+03  0.15195899594E+03  0.00000000000E+00 0. -1.
</event>
<event>
 8    1  0.7114239E-009  0.9625072E+02  0.7561462E-02  0.1288384E+00
         -1   -1    0    0    0  501 -0.00000000000E+00  0.00000000000E+00  0.10484022630E+03  0.10484022630E+03  0.00000000000E+00 0.  1.
          1   -1    0    0  501    0  0.00000000000E+00 -0.00000000000E+00 -0.11888372488E+03  0.11888372488E+03  0.00000000000E+00 0. -1.
         25    2    1    2    0    0  0.23846803650E+02 -0.14848075827E+02 -0.48707264301E+00  0.12820269457E+03  0.12508620330E+03 0.  0.
         23    2    1    2    0    0 -0.23846803650E+02  0.14848075827E+02 -0.13556425937E+02  0.95521256608E+02  0.90285095003E+02 0.  0.
          5    1    3    3  502    0  0.66765755835E+02 -0.33508047228E+02  0.19223925264E+02  0.77249511868E+02  0.41800000000E+01 0.  1.
         -5    1    3    3    0  502 -0.42918952186E+02  0.18659971401E+02 -0.19710997907E+02  0.50953182706E+02  0.41800000000E+01 0.  1.
        -11    1    4    4    0    0  0.21536575074E+02 -0.33582766485E+01  0.25059788648E+02  0.33212875441E+02  0.00000000000E+00 0.  1.
         11    1    4    4    0    0 -0.45383378724E+02  0.18206352475E+02 -0.38616214584E+02  0.62308381167E+02  0.00000000000E+00 0. -1.
</event>
<event>
 8    1  0.7114239E-009  0.2302256E+03  0.7561462E-02  0.1126481E+00
          1   -1    0    0  501    0  0.00000000000E+00  0.00000000000E+00  0.62484526476E+03  0.62484526476E+03  0.00000000000E+00 0. -1.
         -1   -1    0    0    0  501 -0.00000000000E+00 -0.00000000000E+00 -0.99751644779E+02  0.99751644779E+02  0.00000000000E+00 0.  1.
         25    2    1    2    0    0 -0.16038287270E+03  0.12591207595E+03  0.40357124707E+03  0.46914197588E+03  0.12509166777E+03 0.  0.
         23    2    1    2    0    0  0.16038287270E+03 -0.12591207595E+03  0.12152237291E+03  0.25545493366E+03  0.94408788195E+02 0.  0.
          5    1    3    3  502    0 -0.30466090781E+02  0.10263245507E+03  0.18405501500E+03  0.21296789539E+03  0.41800000000E+01 0.  1.
         -5    1    3    3    0  502 -0.12991678192E+03  0.23279620885E+02  0.21951623207E+03  0.25617408049E+03  0.41800000000E+01 0.  1.
        -11    1    4    4    0    0  0.58423493122E+02 -0.10039111472E+03  0.41465137382E+02  0.12333303727E+03  0.00000000000E+00 0.  1.
         11    1    4    4    0    0  0.10195937958E+03 -0.25520961227E+02  0.80057235525E+02  0.13212189639E+03  0.00000000000E+00 0. -1.
</event>
<event>
 8    1  0.7114239E-009  0.1088670E+03  0.7561462E-02  0.1262683E+00
          2   -1    0    0  501    0  0.00000000000E+00  0.00000000000E+00  0.28671913096E+03  0.28671913096E+03  0.00000000000E+00 0. -1.
         -2   -1    0    0    0  501 -0.00000000000E+00 -0.00000000000E+00 -0.65222089213E+02  0.65222089213E+02  0.00000000000E+00 0.  1.
         25    2    1    2    0    0  0.59659023827E+02  0.53451840038E+02  0.97960338063E+02  0.17792207329E+03  0.12507492955E+03 0.  0.
         23    2    1    2    0    0 -0.59659023827E+02 -0.53451840038E+02  0.12353670368E+03  0.17401914689E+03  0.92763397948E+02 0.  0.
          5    1    3    3  502    0 -0.63982211248E+01  0.37393449741E+02  0.10278459996E+03  0.10964193406E+03  0.41800000000E+01 0.  1.
         -5    1    3    3    0  502  0.66057244952E+02  0.16058390297E+02 -0.48242618928E+01  0.68280139223E+02  0.41800000000E+01 0.  1.
        -11    1    4    4    0    0 -0.34971645784E+02 -0.72355850779E+02  0.11748550294E+03  0.14234194235E+03  0.00000000000E+00 0. -1.
         11    1    4    4    0    0 -0.24687378043E+02  0.18904010741E+02  0.60512007407E+01  0.31677204535E+02  0.00000000000E+00 0.  1.
</event>
<event>
 8    1  0.7114239E-009  0.1775316E+03  0.7561462E-02  0.1170214E+00
         -1   -1    0    0    0  501 -0.00000000000E+00  0.00000000000E+00  0.14160402714E+04  0.14160402714E+04  0.00000000000E+00 0.  1.
          1   -1    0    0  501    0  0.00000000000E+00 -0.00000000000E+00 -0.43005794822E+02  0.43005794822E+02  0.00000000000E+00 0. -1.
         25    2    1    2    0    0  0.15883239470E+03  0.47017587814E+02  0.11446368455E+04  0.11633053005E+04  0.12508929130E+03 0.  0.
         23    2    1    2    0    0 -0.15883239470E+03 -0.47017587814E+02  0.22839763107E+03  0.29574076577E+03  0.88649531802E+02 0.  0.
          5    1    3    3  502    0  0.12441707824E+03 -0.70476716809E+01  0.95460460980E+03  0.96271320365E+03  0.41800000000E+01 0.  1.
         -5    1    3    3    0  502  0.34415316463E+02  0.54065259495E+02  0.19003223572E+03  0.20059209682E+03  0.41800000000E+01 0.  1.
        -11    1    4    4    0    0 -0.57927796062E+02 -0.23690804958E+02  0.15953176413E+03  0.17136880569E+03  0.00000000000E+00 0.  1.
         11    1    4    4    0    0 -0.10090459864E+03 -0.23326782856E+02  0.68865866937E+02  0.12437196008E+03  0.00000000000E+00 0. -1.
</event>
<event>
 8    1  0.7114239E-009  0.1129659E+03  0.7561462E-02  0.1255174E+00
          2   -1    0    0  501    0  0.00000000000E+00  0.00000000000E+00  0.78278166250E+03  0.78278166250E+03  0.00000000000E+00 0. -1.
         -2   -1    0    0    0  501 -0.00000000000E+00 -0.00000000000E+00 -0.21391306227E+02  0.21391306227E+02  0.00000000000E+00 0.  1.
         25    2    1    2    0    0  0.60681101147E+02  0.37811592516E+02  0.38636621195E+03  0.41235594386E+03  0.12508661853E+03 0.  0.
         23    2    1    2    0    0 -0.60681101147E+02 -0.37811592516E+02  0.37502414432E+03  0.39181702487E+03  0.88122412503E+02 0.  0.
          5    1    3    3  502    0  0.34875515855E+02 -0.29802326810E+02  0.48854263076E+02  0.67146792255E+02  0.41800000000E+01 0.  1.
         -5    1    3    3    0  502  0.25805585292E+02  0.67613919326E+02  0.33751194888E+03  0.34520915161E+03  0.41800000000E+01 0.  1.
        -11    1    4    4    0    0 -0.44949602547E+02  0.18722876813E+02  0.23503146681E+03  0.24002250577E+03  0.00000000000E+00 0. -1.
         11    1    4    4    0    0 -0.15731498600E+02 -0.56534469329E+02  0.13999267751E+03  0.15179451909E+03  0.00000000000E+00 0.  1.
</event>
<event>
 8    1  0.7114239E-009  0.1086746E+03  0.7561462E-02  0.1263044E+00
          3   -1    0    0  501    0  0.00000000000E+00  0.00000000000E+00  0.11770862039E+03  0.11770862039E+03  0.00000000000E+00 0. -1.
         -3   -1    0    0    0  501 -0.00000000000E+00 -0.00000000000E+00 -0.16076199767E+03  0.16076199767E+03  0.00000000000E+00 0.  1.
         25    2    1    2    0    0 -0.64095679074E+02 -0.48878202977E+02 -0.54377745200E+01  0.14891430847E+03  0.12509423278E+03 0.  0.
         23    2    1    2    0    0  0.64095679074E+02  0.48878202977E+02 -0.37615602759E+02  0.12955630959E+03  0.94194315018E+02 0.  0.
          5    1    3    3  502    0 -0.30627685204E+01  0.11221400947E+02  0.46863410779E+02  0.48465988694E+02  0.41800000000E+01 0. -1.
         -5    1    3    3    0  502 -0.61032910554E+02 -0.60099603924E+02 -0.52301185299E+02  0.10044831978E+03  0.41800000000E+01 0. -1.
        -11    1    4    4    0    0  0.25740764700E+02  0.70604270892E+02 -0.61583653779E+01  0.75402092144E+02  0.00000000000E+00 0.  1.
         11    1    4    4    0    0  0.38354914374E+02 -0.21726067915E+02 -0.31457237382E+02  0.54154217447E+02  0.00000000000E+00 0. -1.
</event>
<event>
 8    1  0.7114239E-009  0.2084032E+03  0.7561462E-02  0.1142837E+00
          1   -1    0    0  501    0  0.00000000000E+00  0.00000000000E+00  0.16568789163E+03  0.16568789163E+03  0.00000000000E+00 0. -1.
         -1   -1    0    0    0  501 -0.00000000000E+00 -0.00000000000E+00 -0.30573590852E+03  0.30573590852E+03  0.00000000000E+00 0.  1.
         25    2    1    2    0    0  0.12865767958E+03  0.14856152406E+03 -0.86991908285E+02  0.24867387877E+03  0.12509109052E+03 0.  0.
         23    2    1    2    0    0 -0.12865767958E+03 -0.14856152406E+03 -0.53056108605E+02  0.22274992139E+03  0.90439216447E+02 0.  0.
          5    1    3    3  502    0  0.59342044052E+02  0.50642074827E+01 -0.64141024270E+02  0.87628007989E+02  0.41800000000E+01 0. -1.
         -5    1    3    3    0  502  0.69315635528E+02  0.14349731658E+03 -0.22850884016E+02  0.16104587078E+03  0.41800000000E+01 0. -1.
        -11    1    4    4    0    0 -0.42325824617E+02 -0.64795029749E+02  0.22622538816E+02  0.80632813247E+02  0.00000000000E+00 0. -1.
         11    1    4    4    0    0 -0.86331854963E+02 -0.83766494315E+02 -0.75678647421E+02  0.14211710814E+03  0.00000000000E+00 0.  1.
</event>
<event>
 8    1  0.7114239E-009  0.1494977E+03  0.7561462E-02  0.1201092E+00
          4   -1    0    0  501    0  0.00000000000E+00  0.00000000000E+00  0.33498256572E+03  0.33498256572E+03  0.00000000000E+00 0. -1.
         -4   -1    0    0    0  501 -0.00000000000E+00 -0.00000000000E+00 -0.90090566775E+02  0.90090566775E+02  0.00000000000E+00 0.  1.
         25    2    1    2    0    0  0.46285127017E+02 -0.12784168130E+03  0.12996761374E+03  0.22588579934E+03  0.12508799007E+03 0.  0.
         23    2    1    2    0    0 -0.46285127017E+02  0.12784168130E+03  0.11492438521E+03  0.19918733316E+03  0.89342995907E+02 0.  0.
          5    1    3    3  502    0  0.64089193463E+02 -0.64965997748E+02  0.13181702989E+03  0.16037832569E+03  0.41800000000E+01 0. -1.
         -5    1    3    3    0  502 -0.17804066446E+02 -0.62875683549E+02 -0.18494161441E+01  0.65507473649E+02  0.41800000000E+01 0. -1.
        -11    1    4    4    0    0 -0.51277504725E+02  0.86788366388E+02  0.12088955675E+03  0.15740358307E+03  0.00000000000E+00 0. -1.
         11    1    4    4    0    0  0.49923777081E+01  0.41053314909E+02 -0.59651715480E+01  0.41783750093E+02  0.00000000000E+00 0.  1.
</event>
<event>
 8    1  0.7114239E-009  0.1469330E+03  0.7561462E-02  0.1204293E+00
          2   -1    0    0  501    0  0.00000000000E+00  0.00000000000E+00  0.18956674199E+03  0.18956674199E+03  0.00000000000E+00 0. -1.
         -2   -1    0    0    0  501 -0.00000000000E+00 -0.00000000000E+00 -0.15781084001E+03  0.15781084001E+03  0.00000000000E+00 0.  1.
         25    2    1    2    0    0 -0.14126989537E+02  0.13166091812E+03  0.37263063864E+02  0.18592757769E+03  0.12508540691E+03 0.  0.
         23    2    1    2    0    0  0.14126989537E+02 -0.13166091812E+03 -0.55071618875E+01  0.16145000432E+03  0.92204153200E+02 0.  0.
          5    1    3    3  502    0 -0.47115030628E+02  0.10354149194E+03  0.68025264087E+02  0.13261061654E+03  0.41800000000E+01 0. -1.
         -5    1    3    3    0  502  0.32988041091E+02  0.28119426184E+02 -0.30762200223E+02  0.53316961152E+02  0.41800000000E+01 0.  1.
        -11    1    4    4    0    0  0.24762784548E+02 -0.10237229039E+03 -0.42065312895E+02  0.11341416088E+03  0.00000000000E+00 0.  1.
         11    1    4    4    0    0 -0.10635795011E+02 -0.29288627733E+02  0.36558151007E+02  0.48035843441E+02  0.00000000000E+00 0. -1.
</event>
<event>
 8    1  0.7114239E-009  0.1076772E+03  0.7561462E-02  0.1264933E+00
          1   -1    0    0  501    0  0.00000000000E+00  0.00000000000E+00  0.20269536515E+03  0.20269536515E+03  0.00000000000E+00 0. -1.
         -1   -1    0    0    0  501 -0.00000000000E+00 -0.00000000000E+00 -0.75636812479E+02  0.75636812479E+02  0.00000000000E+00 0.  1.
         25    2    1    2    0    0 -0.22214214956E+02 -0.35981735845E+02  0.11807617134E+03  0.17713506586E+03  0.12508674054E+03 0.  0.
         23    2    1    2    0    0  0.22214214956E+02  0.35981735845E+02  0.89823813341E+01  0.10119711177E+03  0.91498719088E+02 0.  0.
          5    1    3    3  502    0  0.48143102541E+02 -0.23240911137E+02  0.79187463687E+02  0.95634852841E+02  0.41800000000E+01 0.  1.
         -5    1    3    3    0  502 -0.70357317497E+02 -0.12740824709E+02  0.38888707648E+02  0.81500213020E+02  0.41800000000E+01 0.  1.
        -11    1    4    4    0    0  0.45540552517E+02 -0.19453627122E+01 -0.18141894200E+02  0.49059705307E+02  0.00000000000E+00 0.  1.
         11    1    4    4    0    0 -0.23326337561E+02  0.37927098558E+02  0.27124275534E+02  0.52137406459E+02  0.00000000000E+00 0. -1.
</event>
<event>
 8    1  0.7114239E-009  0.6793761E+02  0.7561462E-02  0.1367250E+00
         -2   -1    0    0    0  501 -0.00000000000E+00  0.00000000000E+00  0.21008892126E+03  0.21008892126E+03  0.00000000000E+00 0.  1.
          2   -1    0    0  501    0  0.00000000000E+00 -0.00000000000E+00 -0.59809255224E+02  0.59809255224E+02  0.00000000000E+00 0. -1.
         25    2    1    2    0    0 -0.21085363258E+02 -0.20980434388E+02  0.11276890876E+03  0.17102427485E+03  0.12509078556E+03 0.  0.
         23    2    1    2    0    0  0.21085363258E+02  0.20980434388E+02  0.37510757269E+02  0.98873901636E+02  0.86511388515E+02 0.  0.
          5    1    3    3  502    0 -0.12065461011E+02 -0.36822650997E+02  0.13584229458E+03  0.14132262512E+03  0.41800000000E+01 0. -1.
         -5    1    3    3    0  502 -0.90199022472E+01  0.15842216609E+02 -0.23073385811E+02  0.29701649725E+02  0.41800000000E+01 0. -1.
        -11    1    4    4    0    0  0.32398542881E+02 -0.18376750832E+02  0.43741588307E+02  0.57451693618E+02  0.00000000000E+00 0.  1.
         11    1    4    4    0    0 -0.11313179623E+02  0.39357185220E+02 -0.62308310380E+01  0.41422208017E+02  0.00000000000E+00 0. -1.
</event>
<event>
 8    1  0.7114239E-009  0.1055920E+03  0.7561462E-02  0.1268958E+00
          2   -1    0    0  501    0  0.00000000000E+00  0.00000000000E+00  0.87935338442E+03  0.87935338442E+03  0.00000000000E+00 0. -1.
         -2   -1    0    0    0  501 -0.00000000000E+00 -0.00000000000E+00 -0.20644026844E+02  0.20644026844E+02  0.00000000000E+00 0.  1.
         25    2    1    2    0    0  0.38093940632E+00  0.77562460849E+02  0.40663282183E+03  0.43245065126E+03  0.12508890251E+03 0.  0.
         23    2    1    2    0    0 -0.38093940632E+00 -0.77562460849E+02  0.45207653574E+03  0.46754676001E+03  0.90612902927E+02 0.  0.
          5    1    3    3  502    0  0.22733609777E+02  0.56305464155E+02  0.63684894059E+02  0.88092907993E+02  0.41800000000E+01 0.  1.
         -5    1    3    3    0  502 -0.22352670371E+02  0.21256996694E+02  0.34294792777E+03  0.34435774326E+03  0.41800000000E+01 0.  1.
        -11    1    4    4    0    0  0.44297006474E+02 -0.49517846272E+02  0.24315701023E+03  0.25207057247E+03  0.00000000000E+00 0. -1.
         11    1    4    4    0    0 -0.44677945881E+02 -0.28044614578E+02  0.20891952551E+03  0.21547618753E+03  0.00000000000E+00 0.  1.
</event>
<event>
 8    1  0.7114239E-009  0.1092913E+03  0.7561462E-02  0.1261888E+00
          2   -1    0    0  501    0  0.00000000000E+00  0.00000000000E+00  0.98795752178E+02  0.98795752178E+02  0.00000000000E+00 0. -1.
         -2   -1    0    0    0  501 -0.00000000000E+00 -0.00000000000E+00 -0.21794002279E+03  0.21794002279E+03  0.00000000000E+00 0.  1.
         25    2    1    2    0    0 -0.47765053834E+02 -0.40177409337E+02  0.19605987891E+02  0.14116515030E+03  0.12508988892E+03 0.  0.
         23    2    1    2    0    0  0.47765053834E+02  0.40177409337E+02 -0.13875025851E+03  0.17557062467E+03  0.87622402513E+02 0.  0.
          5    1    3    3  502    0 -0.87491858801E+02 -0.13491761431E+02  0.26803668924E+02  0.92589211308E+02  0.41800000000E+01 0.  1.
         -5    1    3    3    0  502  0.39726804966E+02 -0.26685647905E+02 -0.71976810333E+01  0.48575938995E+02  0.41800000000E+01 0.  1.
        -11    1    4    4    0    0  0.43465403032E+02  0.20125266468E+01 -0.15043442286E+02  0.46039077750E+02  0.00000000000E+00 0. -1.
         11    1    4    4    0    0  0.42996508022E+01  0.38164882690E+02 -0.12370681622E+03  0.12953154692E+03  0.00000000000E+00 0.  1.
</event>
<event>
 8    1  0.7114239E-009  0.1647961E+03  0.7561462E-02  0.1183386E+00
          2   -1    0    0  501    0  0.00000000000E+00  0.00000000000E+00  0.16707190565E+04  0.16707190565E+04  0.00000000000E+00 0. -1.
         -2   -1    0    0    0  501 -0.00000000000E+00 -0.00000000000E+00 -0.23066026735E+02  0.23066026735E+02  0.00000000000E+00 0.  1.
         25    2    1    2    0    0  0.14916162660E+03 -0.64240690263E+02  0.94065991997E+03  0.96273783025E+03  0.12508791951E+03 0.  0.
         23    2    1    2    0    0 -0.14916162660E+03  0.64240690263E+02  0.70699310983E+03  0.73104725303E+03  0.90635377615E+02 0.  0.
          5    1    3    3  502    0  0.57218982394E+02 -0.36808095612E+02  0.13360498745E+03  0.14998870931E+03  0.41800000000E+01 0.  1.
         -5    1    3    3    0  502  0.91942644207E+02 -0.27432594650E+02  0.80705493253E+03  0.81274912094E+03  0.41800000000E+01 0.  1.
        -11    1    4    4    0    0 -0.10547896163E+03  0.29359411490E+02  0.60417312946E+03  0.61401380827E+03  0.00000000000E+00 0. -1.
         11    1    4    4    0    0 -0.43682664967E+02  0.34881278773E+02  0.10281998038E+03  0.11703344476E+03  0.00000000000E+00 0.  1.
</event>
<event>
 8    1  0.7114239E-009  0.1216747E+03  0.7561462E-02  0.1240360E+00
         -2   -1    0    0    0  501 -0.00000000000E+00  0.00000000000E+00  0.30681787000E+02  0.30681787000E+02  0.00000000000E+00 0. -1.
          2   -1    0    0  501    0  0.00000000000E+00 -0.00000000000E+00 -0.60956173481E+03  0.60956173481E+03  0.00000000000E+00 0.  1.
         25    2    1    2    0    0 -0.70629199223E+00 -0.82010985570E+02 -0.28167692718E+03  0.31892942369E+03  0.12509110835E+03 0.  0.
         23    2    1    2    0    0  0.70629199223E+00  0.82010985570E+02 -0.29720302064E+03  0.32131409813E+03  0.90481012239E+02 0.  0.
          5    1    3    3  502    0 -0.46585508860E+02  0.68316671211E+01 -0.66170886679E+02  0.81319984968E+02  0.41800000000E+01 0.  1.
         -5    1    3    3    0  502  0.45879216868E+02 -0.88842652691E+02 -0.21550604050E+03  0.23760943872E+03  0.41800000000E+01 0.  1.
        -11    1    4    4    0    0  0.24314190123E+02  0.54969146385E+02 -0.26908300327E+03  0.27571443478E+03  0.00000000000E+00 0.  1.
         11    1    4    4    0    0 -0.23607898131E+02  0.27041839186E+02 -0.28120017365E+02  0.45599663346E+02  0.00000000000E+00 0. -1.
</event>
<event>
 8    1  0.7114239E-009  0.8095426E+02  0.7561462E-02  0.1326365E+00
          1   -1    0    0  501    0  0.00000000000E+00  0.00000000000E+00  0.18763987844E+02  0.18763987844E+02  0.00000000000E+00 0. -1.
         -1   -1    0    0    0  501 -0.00000000000E+00 -0.00000000000E+00 -0.64968914002E+03  0.64968914002E+03  0.00000000000E+00 0.  1.
         25    2    1    2    0    0  0.16294928654E+02 -0.26110913303E+02 -0.35866976807E+03  0.38110194602E+03  0.12508951290E+03 0.  0.
         23    2    1    2    0    0 -0.16294928654E+02  0.26110913303E+02 -0.27225538411E+03  0.28735118185E+03  0.86604867301E+02 0.  0.
          5    1    3    3  502    0  0.27865735169E+02 -0.41724571514E+02 -0.47245200957E+02  0.69043612869E+02  0.41800000000E+01 0. -1.
         -5    1    3    3    0  502 -0.11570806515E+02  0.15613658212E+02 -0.31142456712E+03  0.31205833315E+03  0.41800000000E+01 0. -1.
        -11    1    4    4    0    0  0.35606171444E+02  0.64697245752E+01 -0.11751757363E+03  0.12296355921E+03  0.00000000000E+00 0. -1.
         11    1    4    4    0    0 -0.51901100098E+02  0.19641188727E+02 -0.15473781048E+03  0.16438762264E+03  0.00000000000E+00 0.  1.
</event>
<event>
 8    1  0.7114239E-009  0.1015334E+03  0.7561462E-02  0.1277104E+00
         -2   -1    0    0    0  501 -0.00000000000E+00  0.00000000000E+00  0.31072119127E+02  0.31072119127E+02  0.00000000000E+00 0.  1.
          2   -1    0    0  501    0  0.00000000000E+00 -0.00000000000E+00 -0.74266433657E+03  0.74266433657E+03  0.00000000000E+00 0. -1.
         25    2    1    2    0    0 -0.26287475092E+02  0.11560630519E+02 -0.64442885809E+03  0.65708290307E+03  0.12507881051E+03 0.  0.
         23    2    1    2    0    0  0.26287475092E+02 -0.11560630519E+02 -0.67163359357E+02  0.11665355263E+03  0.90953037207E+02 0.  0.
          5    1    3    3  502    0  0.28432346434E+02 -0.30301166130E+02 -0.42517937613E+03  0.42722538932E+03  0.41800000000E+01 0. -1.
         -5    1    3    3    0  502 -0.54719821526E+02  0.41861796649E+02 -0.21924948196E+03  0.22985751375E+03  0.41800000000E+01 0. -1.
        -11    1    4    4    0    0  0.55732144658E+02 -0.23532992503E+02 -0.57419752847E+02  0.83408043385E+02  0.00000000000E+00 0. -1.
         11    1    4    4    0    0 -0.29444669566E+02  0.11972361984E+02 -0.97436065094E+01  0.33245509248E+02  0.00000000000E+00 0.  1.
</event>
<event>
 8    1  0.7114239E-009  0.1594682E+03  0.7561462E-02  0.1189298E+00
         -1   -1    0    0    0  501 -0.00000000000E+00  0.00000000000E+00  0.10167551845E+03  0.10167551845E+03  0.00000000000E+00 0.  1.
          1   -1    0    0  501    0  0.00000000000E+00 -0.00000000000E+00 -0.28166892835E+03  0.28166892835E+03  0.00000000000E+00 0. -1.
         25    2    1    2    0    0  0.81201748378E+01  0.12104347492E+03 -0.40126248715E+02  0.17882867438E+03  0.12510842850E+03 0.  0.
         23    2    1    2    0    0 -0.81201748378E+01 -0.12104347492E+03 -0.13986716119E+03  0.20451577243E+03  0.86870123378E+02 0.  0.
          5    1    3    3  502    0  0.63450815774E+02  0.73292687779E+02 -0.38034182011E+01  0.97106964190E+02  0.41800000000E+01 0. -1.
         -5    1    3    3    0  502 -0.55330640936E+02  0.47750787143E+02 -0.36322830514E+02  0.81721710186E+02  0.41800000000E+01 0. -1.
        -11    1    4    4    0    0  0.39059415983E+02 -0.50777611129E+02 -0.68712532611E+02  0.93943684762E+02  0.00000000000E+00 0. -1.
         11    1    4    4    0    0 -0.47179590820E+02 -0.70265863793E+02 -0.71154628574E+02  0.11057208767E+03  0.00000000000E+00 0.  1.
</event>
<event>
 8    1  0.7114239E-009  0.1708606E+03  0.7561462E-02  0.1176953E+00
         -1   -1    0    0    0  501 -0.00000000000E+00  0.00000000000E+00  0.29415145481E+03  0.29415145481E+03  0.00000000000E+00 0.  1.
          1   -1    0    0  501    0  0.00000000000E+00 -0.00000000000E+00 -0.12944020420E+03  0.12944020420E+03  0.00000000000E+00 0. -1.
         25    2    1    2    0    0  0.14241527617E+03 -0.66281822417E+02  0.10459362282E+03  0.22641231091E+03  0.12508923904E+03 0.  0.
         23    2    1    2    0    0 -0.14241527617E+03  0.66281822417E+02  0.60117627782E+02  0.19717934810E+03  0.10290857728E+03 0.  0.
          5    1    3    3  502    0  0.18471080916E+02 -0.21116372891E+02  0.89120207224E+02  0.93525214621E+02  0.41800000000E+01 0.  1.
         -5    1    3    3    0  502  0.12394419526E+03 -0.45165449526E+02  0.15473415598E+02  0.13288709628E+03  0.41800000000E+01 0.  1.
        -11    1    4    4    0    0 -0.15528294621E+03  0.65344465374E+02  0.39795970348E+02  0.17310809281E+03  0.00000000000E+00 0. -1.
         11    1    4    4    0    0  0.12867670040E+02  0.93735704220E+00  0.20321657435E+02  0.24071255293E+02  0.00000000000E+00 0.  1.
</event>
<event>
 8    1  0.7114239E-009  0.2365388E+03  0.7561462E-02  0.1122120E+00
         -2   -1    0    0    0  501 -0.00000000000E+00  0.00000000000E+00  0.91457315842E+02  0.91457315842E+02  0.00000000000E+00 0.  1.
          2   -1    0    0  501    0  0.00000000000E+00 -0.00000000000E+00 -0.71416139271E+03  0.71416139271E+03  0.00000000000E+00 0. -1.
         25    2    1    2    0    0  0.21208980751E+03 -0.63248092465E+02 -0.42470423645E+03  0.49497618165E+03  0.12508127077E+03 0.  0.
         23    2    1    2    0    0 -0.21208980751E+03  0.63248092465E+02 -0.19799984043E+03  0.31064252690E+03  0.91172556526E+02 0.  0.
          5    1    3    3  502    0  0.14437377708E+03  0.16108031222E+02 -0.29161590239E+03  0.32582290144E+03  0.41800000000E+01 0.  1.
         -5    1    3    3    0  502  0.67716030426E+02 -0.79356123687E+02 -0.13308833406E+03  0.16915328021E+03  0.41800000000E+01 0.  1.
        -11    1    4    4    0    0 -0.13630337405E+03  0.25469233573E+02 -0.17426061283E+03  0.22269722230E+03  0.00000000000E+00 0. -1.
         11    1    4    4    0    0 -0.75786433455E+02  0.37778858892E+02 -0.23739227599E+02  0.87945304605E+02  0.00000000000E+00 0.  1.
</event>
<event>
 8    1  0.7114239E-009  0.1359245E+03  0.7561462E-02  0.1218921E+00
          2   -1    0    0  501    0  0.00000000000E+00  0.00000000000E+00  0.21650797988E+03  0.21650797988E+03  0.00000000000E+00 0. -1.
         -2   -1    0    0    0  501 -0.00000000000E+00 -0.00000000000E+00 -0.12945894759E+03  0.12945894759E+03  0.00000000000E+00 0.  1.
         25    2    1    2    0    0  0.30099786747E+02  0.12296595507E+03  0.60087984115E+02  0.18784071910E+03  0.12508775579E+03 0.  0.
         23    2    1    2    0    0 -0.30099786747E+02 -0.12296595507E+03  0.26961048168E+02  0.15812620837E+03  0.90831582547E+02 0.  0.
          5    1    3    3  502    0  0.17508310809E+02  0.12614876279E+03  0.89298309909E+02  0.15560113063E+03  0.41800000000E+01 0. -1.
         -5    1    3    3    0  502  0.12591475938E+02 -0.31828077248E+01 -0.29210325794E+02  0.32239588464E+02  0.41800000000E+01 0. -1.
        -11    1    4    4    0    0  0.64086321056E+01 -0.34252035518E+02  0.48582559933E+02  0.59787437077E+02  0.00000000000E+00 0. -1.
         11    1    4    4    0    0 -0.36508418852E+02 -0.88713919550E+02 -0.21621511764E+02  0.98338771296E+02  0.00000000000E+00 0.  1.
</event>
<event>
 8    1  0.7114239E-009  0.3147648E+03  0.7561462E-02  0.1078084E+00
         -2   -1    0    0    0  501 -0.00000000000E+00  0.00000000000E+00  0.21878991584E+03  0.21878991584E+03  0.00000000000E+00 0.  1.
          2   -1    0    0  501    0  0.00000000000E+00 -0.00000000000E+00 -0.47735320366E+03  0.47735320366E+03  0.00000000000E+00 0. -1.
         25    2    1    2    0    0 -0.27636480736E+03 -0.12670418750E+03 -0.13776431614E+03  0.35645181642E+03  0.12508969880E+03 0.  0.
         23    2    1    2    0    0  0.27636480736E+03  0.12670418750E+03 -0.12079897168E+03  0.33969130309E+03  0.91467655243E+02 0.  0.
          5    1    3    3  502    0 -0.23262700649E+02 -0.37418591843E+02 -0.64477185603E+02  0.78205397002E+02  0.41800000000E+01 0. -1.
         -5    1    3    3    0  502 -0.25310210671E+03 -0.89285595657E+02 -0.73287130540E+02  0.27824641942E+03  0.41800000000E+01 0. -1.
        -11    1    4    4    0    0  0.61989031428E+02  0.73156277336E+02 -0.46532807363E+02  0.10658228320E+03  0.00000000000E+00 0. -1.
         11    1    4    4    0    0  0.21437577593E+03  0.53547910165E+02 -0.74266164313E+02  0.23310901989E+03  0.00000000000E+00 0.  1.
</event>
<event>
 8    1  0.7114239E-009  0.1193013E+03  0.7561462E-02  0.1244254E+00
         -1   -1    0    0    0  501 -0.00000000000E+00  0.00000000000E+00  0.22229374047E+02  0.22229374047E+02  0.00000000000E+00 0.  1.
          1   -1    0    0  501    0  0.00000000000E+00 -0.00000000000E+00 -0.91618246900E+03  0.91618246900E+03  0.00000000000E+00 0. -1.
         25    2    1    2    0    0 -0.55554421654E+02  0.65087031074E+02 -0.62514270659E+03  0.64325215261E+03  0.12508921954E+03 0.  0.
         23    2    1    2    0    0  0.55554421654E+02 -0.65087031074E+02 -0.26881038836E+03  0.29515969045E+03  0.86819367610E+02 0.  0.
          5    1    3    3  502    0 -0.11462805344E+02  0.73283160556E+02 -0.16552403203E+03  0.18143179188E+03  0.41800000000E+01 0.  1.
         -5    1    3    3    0  502 -0.44091616310E+02 -0.81961294813E+01 -0.45961867457E+03  0.46182036072E+03  0.41800000000E+01 0.  1.
        -11    1    4    4    0    0  0.62741169794E+02 -0.97817090769E+01 -0.17318892980E+03  0.18446284619E+03  0.00000000000E+00 0. -1.
         11    1    4    4    0    0 -0.71867481405E+01 -0.55305321997E+02 -0.95621458568E+02  0.11069684426E+03  0.00000000000E+00 0.  1.
</event>
<event>
 8    1  0.7114239E-009  0.1125834E+03  0.7561462E-02  0.1255859E+00
         -2   -1    0    0    0  501 -0.00000000000E+00  0.00000000000E+00  0.23330545774E+02  0.23330545774E+02  0.00000000000E+00 0. -1.
          2   -1    0    0  501    0  0.00000000000E+00 -0.00000000000E+00 -0.76947262295E+03  0.76947262295E+03  0.00000000000E+00 0.  1.
         25    2    1    2    0    0  0.73071559575E+02 -0.24495359424E+02 -0.40112021265E+03  0.42718134915E+03  0.12508798749E+03 0.  0.
         23    2    1    2    0    0 -0.73071559575E+02  0.24495359424E+02 -0.34502186453E+03  0.36562181958E+03  0.93272463756E+02 0.  0.
          5    1    3    3  502    0  0.97664211617E+02 -0.50079621845E+02 -0.32577779754E+03  0.34379486983E+03  0.41800000000E+01 0.  1.
         -5    1    3    3    0  502 -0.24592652042E+02  0.25584262420E+02 -0.75342415114E+02  0.83386479319E+02  0.41800000000E+01 0.  1.
        -11    1    4    4    0    0 -0.55344879005E+02  0.27199367716E+02 -0.34190432021E+03  0.34742110675E+03  0.00000000000E+00 0.  1.
         11    1    4    4    0    0 -0.17726680570E+02 -0.27040082916E+01 -0.31175443196E+01  0.18200712828E+02  0.00000000000E+00 0. -1.
</event>
<event>
 8    1  0.7114239E-009  0.1365605E+03  0.7561462E-02  0.1218033E+00
         -1   -1    0    0    0  501 -0.00000000000E+00  0.00000000000E+00  0.70954551200E+02  0.70954551200E+02  0.00000000000E+00 0.  1.
          1   -1    0    0  501    0  0.00000000000E+00 -0.00000000000E+00 -0.27898578064E+03  0.27898578064E+03  0.00000000000E+00 0. -1.
         25    2    1    2    0    0  0.71588055611E+02  0.57471902182E+02 -0.11750963444E+03  0.19463878341E+03  0.12509145684E+03 0.  0.
         23    2    1    2    0    0 -0.71588055611E+02 -0.57471902182E+02 -0.90521594996E+02  0.15530154843E+03  0.86582576402E+02 0.  0.
          5    1    3    3  502    0 -0.27981759593E+02  0.44267494268E+02 -0.55998132395E+02  0.76784459042E+02  0.41800000000E+01 0. -1.
         -5    1    3    3    0  502  0.99569815204E+02  0.13204407913E+02 -0.61511502047E+02  0.11785432437E+03  0.41800000000E+01 0. -1.
        -11    1    4    4    0    0  0.74076648133E+01 -0.37974152321E+02 -0.53207521702E+02  0.65787157623E+02  0.00000000000E+00 0. -1.
         11    1    4    4    0    0 -0.78995720425E+02 -0.19497749860E+02 -0.37314073294E+02  0.89514390803E+02  0.00000000000E+00 0.  1.
</event>
<event>
 8    1  0.7114239E-009  0.1021549E+03  0.7561462E-02  0.1275829E+00
          2   -1    0    0  501    0  0.00000000000E+00  0.00000000000E+00  0.64024216019E+03  0.64024216019E+03  0.00000000000E+00 0. -1.
         -2   -1    0    0    0  501 -0.00000000000E+00 -0.00000000000E+00 -0.28241937971E+02  0.28241937971E+02  0.00000000000E+00 0.  1.
         25    2    1    2    0    0  0.23151347754E+00  0.45136491336E+02  0.49811697272E+03  0.51556342512E+03  0.12509104831E+03 0.  0.
         23    2    1    2    0    0 -0.23151347754E+00 -0.45136491336E+02  0.11388324950E+03  0.15292067303E+03  0.91531313094E+02 0.  0.
          5    1    3    3  502    0  0.45891809004E+02  0.17315722935E+02  0.40598301267E+03  0.40895668642E+03  0.41800000000E+01 0. -1.
         -5    1    3    3    0  502 -0.45660295526E+02  0.27820768401E+02  0.92133960050E+02  0.10660673870E+03  0.41800000000E+01 0. -1.
        -11    1    4    4    0    0  0.34853729957E+02  0.98548279334E+01  0.32881826385E+02  0.48919470888E+02  0.00000000000E+00 0.  1.
         11    1    4    4    0    0 -0.35085243434E+02 -0.54991319269E+02  0.81001423111E+02  0.10400120215E+03  0.00000000000E+00 0. -1.
</event>
<event>
 8    1  0.7114239E-009  0.2090638E+03  0.7561462E-02  0.1142310E+00
         -2   -1    0    0    0  501 -0.00000000000E+00  0.00000000000E+00  0.27427536313E+02  0.27427536313E+02  0.00000000000E+00 0.  1.
          2   -1    0    0  501    0  0.00000000000E+00 -0.00000000000E+00 -0.27655889495E+04  0.27655889495E+04  0.00000000000E+00 0. -1.
         25    2    1    2    0    0  0.14915520808E+02  0.19003474020E+03 -0.22281349608E+04  0.22397704822E+04  0.12510289476E+03 0.  0.
         23    2    1    2    0    0 -0.14915520808E+02 -0.19003474020E+03 -0.51002645239E+03  0.55324600359E+03  0.98073865564E+02 0.  0.
          5    1    3    3  502    0  0.24823934860E+02  0.15109936853E+02 -0.94641416513E+02  0.99090908025E+02  0.41800000000E+01 0.  1.
         -5    1    3    3    0  502 -0.99084140520E+01  0.17492480334E+03 -0.21334935443E+04  0.21406795742E+04  0.41800000000E+01 0.  1.
        -11    1    4    4    0    0 -0.25801241157E+02 -0.27901067475E+01 -0.79764224505E+02  0.83879796446E+02  0.00000000000E+00 0.  1.
         11    1    4    4    0    0  0.10885720349E+02 -0.18724463345E+03 -0.43026222789E+03  0.46936620715E+03  0.00000000000E+00 0. -1.
</event>
<event>
 8    1  0.7114239E-009  0.1285985E+03  0.7561462E-02  0.1229550E+00
          1   -1    0    0  501    0  0.00000000000E+00  0.00000000000E+00  0.41807166495E+02  0.41807166495E+02  0.00000000000E+00 0. -1.
         -1   -1    0    0    0  501 -0.00000000000E+00 -0.00000000000E+00 -0.42693685957E+03  0.42693685957E+03  0.00000000000E+00 0.  1.
         25    2    1    2    0    0 -0.25400827819E+02 -0.68729479666E+02 -0.16139883623E+03  0.21694611758E+03  0.12508832946E+03 0.  0.
         23    2    1    2    0    0  0.25400827819E+02  0.68729479666E+02 -0.22373085684E+03  0.25179790848E+03  0.89318234325E+02 0.  0.
          5    1    3    3  502    0  0.76956598620E+01  0.34829552178E+02 -0.45767125554E+02  0.58175794512E+02  0.41800000000E+01 0. -1.
         -5    1    3    3    0  502 -0.33096487681E+02 -0.10355903184E+03 -0.11563171067E+03  0.15877032307E+03  0.41800000000E+01 0. -1.
        -11    1    4    4    0    0  0.56149151037E+02  0.55696566815E+02 -0.18131177530E+03  0.19780999616E+03  0.00000000000E+00 0.  1.
         11    1    4    4    0    0 -0.30748323219E+02  0.13032912851E+02 -0.42419081538E+02  0.53987912320E+02  0.00000000000E+00 0. -1.
</event>
<event>
 8    1  0.7114239E-009  0.1421172E+03  0.7561462E-02  0.1210508E+00
         -3   -1    0    0    0  501 -0.00000000000E+00  0.00000000000E+00  0.27501131381E+03  0.27501131381E+03  0.00000000000E+00 0.  1.
          3   -1    0    0  501    0  0.00000000000E+00 -0.00000000000E+00 -0.87392329632E+02  0.87392329632E+02  0.00000000000E+00 0. -1.
         25    2    1    2    0    0  0.10602386877E+02  0.10898302545E+03  0.84779087065E+02  0.18660935850E+03  0.12508336672E+03 0.  0.
         23    2    1    2    0    0 -0.10602386877E+02 -0.10898302545E+03  0.10283989712E+03  0.17579428495E+03  0.91311969298E+02 0.  0.
          5    1    3    3  502    0 -0.52874670162E+02  0.27056340540E+02  0.14389970519E+02  0.61256183033E+02  0.41800000000E+01 0. -1.
         -5    1    3    3    0  502  0.63477057039E+02  0.81926684912E+02  0.70389116546E+02  0.12535317547E+03  0.41800000000E+01 0. -1.
        -11    1    4    4    0    0  0.10101886903E+02 -0.67845142216E-01  0.53499573926E+02  0.54444991801E+02  0.00000000000E+00 0.  1.
         11    1    4    4    0    0 -0.20704273779E+02 -0.10891518031E+03  0.49340323192E+02  0.12134929315E+03  0.00000000000E+00 0. -1.
</event>
<event>
 8    1  0.7114239E-009  0.1510540E+03  0.7561462E-02  0.1199184E+00
         -1   -1    0    0    0  501 -0.00000000000E+00  0.00000000000E+00  0.81991702730E+02  0.81991702730E+02  0.00000000000E+00 0.  1.
          1   -1    0    0  501    0  0.00000000000E+00 -0.00000000000E+00 -0.38041439025E+03  0.38041439025E+03  0.00000000000E+00 0. -1.
         25    2    1    2    0    0  0.11163847261E+03  0.73643269254E+02 -0.20668430523E+03  0.27613749134E+03  0.12508809864E+03 0.  0.
         23    2    1    2    0    0 -0.11163847261E+03 -0.73643269254E+02 -0.91738382285E+02  0.18626860164E+03  0.91616491414E+02 0.  0.
          5    1    3    3  502    0  0.96959407159E+02  0.98856151968E+02 -0.11568082081E+03  0.18048044249E+03  0.41800000000E+01 0.  1.
         -5    1    3    3    0  502  0.14679065452E+02 -0.25212882714E+02 -0.91003484424E+02  0.95657048850E+02  0.41800000000E+01 0.  1.
        -11    1    4    4    0    0 -0.40737445166E+02 -0.21268695916E+02  0.14531875218E+02  0.48198259948E+02  0.00000000000E+00 0.  1.
         11    1    4    4    0    0 -0.70901027445E+02 -0.52374573338E+02 -0.10627025750E+03  0.13807034169E+03  0.00000000000E+00 0. -1.
</event>
<event>
 8    1  0.7114239E-009  0.1867758E+03  0.7561462E-02  0.1161402E+00
         -1   -1    0    0    0  501 -0.00000000000E+00  0.00000000000E+00  0.65339896920E+02  0.65339896920E+02  0.00000000000E+00 0.  1.
          1   -1    0    0  501    0  0.00000000000E+00 -0.00000000000E+00 -0.57105028481E+03  0.57105028481E+03  0.00000000000E+00 0. -1.
         25    2    1    2    0    0  0.74967913230E+02  0.14090913959E+03 -0.23792329377E+03  0.31261978477E+03  0.12509221590E+03 0.  0.
         23    2    1    2    0    0 -0.74967913230E+02 -0.14090913959E+03 -0.26778709412E+03  0.32377039696E+03  0.87417209621E+02 0.  0.
          5    1    3    3  502    0  0.97494913588E+02  0.55090321110E+02 -0.11123611360E+03  0.15789600066E+03  0.41800000000E+01 0.  1.
         -5    1    3    3    0  502 -0.22527000359E+02  0.85818818476E+02 -0.12668718017E+03  0.15472378411E+03  0.41800000000E+01 0.  1.
        -11    1    4    4    0    0 -0.41331183683E+02 -0.17724364627E+02 -0.30602056878E+02  0.54395824575E+02  0.00000000000E+00 0. -1.
         11    1    4    4    0    0 -0.33636729547E+02 -0.12318477496E+03 -0.23718503724E+03  0.26937457239E+03  0.00000000000E+00 0.  1.
</event>
<event>
 8    1  0.7114239E-009  0.1250048E+03  0.7561462E-02  0.1235062E+00
          2   -1    0    0  501    0  0.00000000000E+00  0.00000000000E+00  0.10579370997E+04  0.10579370997E+04  0.00000000000E+00 0. -1.
         -2   -1    0    0    0  501 -0.00000000000E+00 -0.00000000000E+00 -0.17215237070E+02  0.17215237070E+02  0.00000000000E+00 0.  1.
         25    2    1    2    0    0  0.62920032062E+02  0.26177976149E+02  0.73949132065E+03  0.75308791762E+03  0.12509908669E+03 0.  0.
         23    2    1    2    0    0 -0.62920032062E+02 -0.26177976149E+02  0.30123054198E+03  0.32206441914E+03  0.91331450141E+02 0.  0.
          5    1    3    3  502    0  0.49933075592E+02 -0.43433420202E+02  0.45902735775E+03  0.46379236905E+03  0.41800000000E+01 0. -1.
         -5    1    3    3    0  502  0.12986956470E+02  0.69611396351E+02  0.28046396290E+03  0.28929554857E+03  0.41800000000E+01 0. -1.
        -11    1    4    4    0    0  0.20484325933E+02 -0.20786505127E+02  0.59055881814E+02  0.65873238733E+02  0.00000000000E+00 0.  1.
         11    1    4    4    0    0 -0.83404357994E+02 -0.53914710214E+01  0.24217466016E+03  0.25619118040E+03  0.00000000000E+00 0. -1.
</event>
<event>
 8    1  0.7114239E-009  0.1289430E+03  0.7561462E-02  0.1229033E+00
          2   -1    0    0  501    0  0.00000000000E+00  0.00000000000E+00  0.61007813737E+03  0.61007813737E+03  0.00000000000E+00 0. -1.
         -2   -1    0    0    0  501 -0.00000000000E+00 -0.00000000000E+00 -0.33460580326E+02  0.33460580326E+02  0.00000000000E+00 0.  1.
         25    2    1    2    0    0 -0.69000617640E+02  0.43244369988E+02  0.22404464337E+03  0.26921408866E+03  0.12509621314E+03 0.  0.
         23    2    1    2    0    0  0.69000617640E+02 -0.43244369988E+02  0.35257291367E+03  0.37432462903E+03  0.95812878436E+02 0.  0.
          5    1    3    3  502    0  0.82763958621E+00  0.72737949752E+02  0.98882628712E+02  0.12282809525E+03  0.41800000000E+01 0. -1.
         -5    1    3    3    0  502 -0.69828257226E+02 -0.29493579764E+02  0.12516201465E+03  0.14638599341E+03  0.41800000000E+01 0. -1.
        -11    1    4    4    0    0  0.13296945621E+02 -0.51145328003E+02  0.79128735174E+02  0.95152562076E+02  0.00000000000E+00 0.  1.
         11    1    4    4    0    0  0.55703672019E+02  0.79009580146E+01  0.27344417850E+03  0.27917206696E+03  0.00000000000E+00 0. -1.
</event>
<event>
 8    1  0.7114239E-009  0.8228143E+02  0.7561462E-02  0.1322699E+00
         -1   -1    0    0    0  501 -0.00000000000E+00  0.00000000000E+00  0.83145257259E+02  0.83145257259E+02  0.00000000000E+00 0.  1.
          1   -1    0    0  501    0  0.00000000000E+00 -0.00000000000E+00 -0.14258057568E+03  0.14258057568E+03  0.00000000000E+00 0. -1.
         25    2    1    2    0    0 -0.51475165648E+01 -0.81350687144E+01 -0.21877806731E+02  0.12735351605E+03  0.12509038073E+03 0.  0.
         23    2    1    2    0    0  0.51475165648E+01  0.81350687144E+01 -0.37557511687E+02  0.98372316889E+02  0.90409456232E+02 0.  0.
          5    1    3    3  502    0  0.35110127743E+02  0.97609452556E+01 -0.59079392265E+02  0.69540233770E+02  0.41800000000E+01 0.  1.
         -5    1    3    3    0  502 -0.40257644308E+02 -0.17896013970E+02  0.37201585534E+02  0.57813282276E+02  0.41800000000E+01 0.  1.
        -11    1    4    4    0    0 -0.54674303550E+01 -0.36928633986E+02 -0.36282093396E+02  0.52057728571E+02  0.00000000000E+00 0.  1.
         11    1    4    4    0    0  0.10614946920E+02  0.45063702701E+02 -0.12754182909E+01  0.46314588318E+02  0.00000000000E+00 0. -1.
</event>
<event>
 8    1  0.7114239E-009  0.1207684E+03  0.7561462E-02  0.1241835E+00
          2   -1    0    0  501    0  0.00000000000E+00  0.00000000000E+00  0.70420641740E+03  0.70420641740E+03  0.00000000000E+00 0.  1.
         -2   -1    0    0    0  501 -0.00000000000E+00 -0.00000000000E+00 -0.23647035494E+02  0.23647035494E+02  0.00000000000E+00 0. -1.
         25    2    1    2    0    0  0.64894664532E+02 -0.46623358856E+01  0.30333526281E+03  0.33450427209E+03  0.12509105292E+03 0.  0.
         23    2    1    2    0    0 -0.64894664532E+02  0.46623358856E+01  0.37722411909E+03  0.39334918080E+03  0.90512359117E+02 0.  0.
          5    1    3    3  502    0 -0.75384451067E+01  0.42609167226E+02  0.17035823598E+03  0.17581743444E+03  0.41800000000E+01 0.  1.
         -5    1    3    3    0  502  0.72433109639E+02 -0.47271503112E+02  0.13297702683E+03  0.15868683765E+03  0.41800000000E+01 0.  1.
        -11    1    4    4    0    0  0.23236244303E+02  0.53901227757E+00  0.78434238107E+02  0.81805521152E+02  0.00000000000E+00 0. -1.
         11    1    4    4    0    0 -0.88130908835E+02  0.41233236081E+01  0.29878988098E+03  0.31154365965E+03  0.00000000000E+00 0.  1.
</event>
<event>
 8    1  0.7114239E-009  0.8514719E+02  0.7561462E-02  0.1315048E+00
         -1   -1    0    0    0  501 -0.00000000000E+00  0.00000000000E+00  0.26363224225E+02  0.26363224225E+02  0.00000000000E+00 0.  1.
          1   -1    0    0  501    0  0.00000000000E+00 -0.00000000000E+00 -0.46622121399E+03  0.46622121399E+03  0.00000000000E+00 0. -1.
         25    2    1    2    0    0  0.24433337369E+01  0.76414663190E+01 -0.35326313715E+03  0.37484240301E+03  0.12509045185E+03 0.  0.
         23    2    1    2    0    0 -0.24433337369E+01 -0.76414663190E+01 -0.86594852619E+02  0.11774203520E+03  0.79373524970E+02 0.  0.
          5    1    3    3  502    0  0.53379177700E+02 -0.51367233385E+01 -0.27686882422E+03  0.28204528140E+03  0.41800000000E+01 0. -1.
         -5    1    3    3    0  502 -0.50935843963E+02  0.12778189658E+02 -0.76394312928E+02  0.92797121609E+02  0.41800000000E+01 0. -1.
        -11    1    4    4    0    0 -0.32813045776E+02 -0.63946647864E+01 -0.93214449327E+01  0.34705576590E+02  0.00000000000E+00 0. -1.
         11    1    4    4    0    0  0.30369712039E+02 -0.12468015327E+01 -0.77273407686E+02  0.83036458612E+02  0.00000000000E+00 0.  1.
</event>
<event>
 8    1  0.7114239E-009  0.1225762E+03  0.7561462E-02  0.1238907E+00
          1   -1    0    0  501    0  0.00000000000E+00  0.00000000000E+00  0.28234779098E+03  0.28234779098E+03  0.00000000000E+00 0. -1.
         -1   -1    0    0    0  501 -0.00000000000E+00 -0.00000000000E+00 -0.58106208102E+02  0.58106208102E+02  0.00000000000E+00 0.  1.
         25    2    1    2    0    0 -0.46402727160E+02  0.39167830363E+02  0.16708334830E+03  0.21736642286E+03  0.12507591487E+03 0.  0.
         23    2    1    2    0    0  0.46402727160E+02 -0.39167830363E+02  0.57158234575E+02  0.12308757623E+03  0.90532621844E+02 0.  0.
          5    1    3    3  502    0 -0.60659886848E+02  0.76221385598E+02  0.10271350443E+03  0.14162223655E+03  0.41800000000E+01 0.  1.
         -5    1    3    3    0  502  0.14257159687E+02 -0.37053555235E+02  0.64369843875E+02  0.75744186301E+02  0.41800000000E+01 0.  1.
        -11    1    4    4    0    0 -0.21866372355E+02 -0.32449723005E+02  0.30008084423E+02  0.49311336362E+02  0.00000000000E+00 0.  1.
         11    1    4    4    0    0  0.68269099515E+02 -0.67181073577E+01  0.27150150152E+02  0.73776239863E+02  0.00000000000E+00 0. -1.
</event>
<event>
 8    1  0.7114239E-009  0.1198504E+03  0.7561462E-02  0.1243344E+00
         -1   -1    0    0    0  501 -0.00000000000E+00  0.00000000000E+00  0.22803163960E+03  0.22803163960E+03  0.00000000000E+00 0.  1.
          1   -1    0    0  501    0  0.00000000000E+00 -0.00000000000E+00 -0.72543809468E+02  0.72543809468E+02  0.00000000000E+00 0. -1.
         25    2    1    2    0    0 -0.58302559695E+02  0.27931218087E+02  0.10977473616E+03  0.17853869967E+03  0.12508490384E+03 0.  0.
         23    2    1    2    0    0  0.58302559695E+02 -0.27931218087E+02  0.45713093977E+02  0.12203674940E+03  0.92865170184E+02 0.  0.
          5    1    3    3  502    0 -0.31246317466E+02 -0.45046516719E+02  0.17390643214E+02  0.57666523175E+02  0.41800000000E+01 0.  1.
         -5    1    3    3    0  502 -0.27056242228E+02  0.72977734806E+02  0.92384092943E+02  0.12087217649E+03  0.41800000000E+01 0.  1.
        -11    1    4    4    0    0  0.48125192477E+02 -0.57804501696E+02  0.49809043045E+02  0.90212722696E+02  0.00000000000E+00 0.  1.
         11    1    4    4    0    0  0.10177367218E+02  0.29873283609E+02 -0.40959490680E+01  0.31824026707E+02  0.00000000000E+00 0. -1.
</event>
<event>
 8    1  0.7114239E-009  0.1275658E+03  0.7561462E-02  0.1231113E+00
          1   -1    0    0  501    0  0.00000000000E+00  0.00000000000E+00  0.43970901413E+03  0.43970901413E+03  0.00000000000E+00 0. -1.
         -1   -1    0    0    0  501 -0.00000000000E+00 -0.00000000000E+00 -0.38124838734E+02  0.38124838734E+02  0.00000000000E+00 0.  1.
         25    2    1    2    0    0 -0.66195838922E+02  0.11699093938E+02  0.22130158505E+03  0.26294329481E+03  0.12508407912E+03 0.  0.
         23    2    1    2    0    0  0.66195838922E+02 -0.11699093938E+02  0.18028259035E+03  0.21489055806E+03  0.95694209174E+02 0.  0.
          5    1    3    3  502    0 -0.31927197647E+01 -0.49788219565E+02  0.11090115734E+03  0.12167826168E+03  0.41800000000E+01 0. -1.
         -5    1    3    3    0  502 -0.63003119158E+02  0.61487313504E+02  0.11040042771E+03  0.14126503312E+03  0.41800000000E+01 0. -1.
        -11    1    4    4    0    0  0.53386386330E+02 -0.52072163536E+02  0.11647512642E+03  0.13830427157E+03  0.00000000000E+00 0.  1.
         11    1    4    4    0    0  0.12809452593E+02  0.40373069597E+02  0.63807463932E+02  0.76586286487E+02  0.00000000000E+00 0. -1.
</event>
<event>
 8    1  0.7114239E-009  0.9771695E+02  0.7561462E-02  0.1285171E+00
         -2   -1    0    0    0  501 -0.00000000000E+00  0.00000000000E+00  0.12023659485E+03  0.12023659485E+03  0.00000000000E+00 0.  1.
          2   -1    0    0  501    0  0.00000000000E+00 -0.00000000000E+00 -0.92739460436E+02  0.92739460436E+02  0.00000000000E+00 0. -1.
         25    2    1    2    0    0 -0.58992041986E+01  0.56139920040E+01  0.28017161889E+02  0.12844380795E+03  0.12508610205E+03 0.  0.
         23    2    1    2    0    0  0.58992041986E+01 -0.56139920040E+01 -0.52002747459E+00  0.84532247332E+02  0.84137464272E+02 0.  0.
          5    1    3    3  502    0 -0.37204111748E+02 -0.40504570254E+02  0.43721554071E+02  0.70383327804E+02  0.41800000000E+01 0. -1.
         -5    1    3    3    0  502  0.31304907550E+02  0.46118562258E+02 -0.15704392182E+02  0.58060480150E+02  0.41800000000E+01 0. -1.
        -11    1    4    4    0    0  0.57159850656E+01  0.39175989093E+02 -0.27519429440E+01  0.39686317499E+02  0.00000000000E+00 0.  1.
         11    1    4    4    0    0  0.18321913294E+00 -0.44789981097E+02  0.22319154694E+01  0.44845929833E+02  0.00000000000E+00 0. -1.
</event>
<event>
 8    1  0.7114239E-009  0.2640195E+03  0.7561462E-02  0.1104752E+00
         -3   -1    0    0    0  501 -0.00000000000E+00  0.00000000000E+00  0.38187797735E+03  0.38187797735E+03  0.00000000000E+00 0.  1.
          3   -1    0    0  501    0  0.00000000000E+00 -0.00000000000E+00 -0.31515395128E+03  0.31515395128E+03  0.00000000000E+00 0. -1.
         25    2    1    2    0    0  0.19455006958E+03  0.16384009247E+03 -0.17574070767E+03  0.33350284497E+03  0.12508415486E+03 0.  0.
         23    2    1    2    0    0 -0.19455006958E+03 -0.16384009247E+03  0.24246473375E+03  0.36352908366E+03  0.93117893434E+02 0.  0.
          5    1    3    3  502    0  0.86205999394E+02  0.13511337536E+03 -0.56990507995E+02  0.17015430918E+03  0.41800000000E+01 0.  1.
         -5    1    3    3    0  502  0.10834407018E+03  0.28726717113E+02 -0.11875019968E+03  0.16334853579E+03  0.41800000000E+01 0.  1.
        -11    1    4    4    0    0 -0.91487129086E+02 -0.61047951696E+02  0.46483913595E+02  0.11940477971E+03  0.00000000000E+00 0.  1.
         11    1    4    4    0    0 -0.10306294049E+03 -0.10279214078E+03  0.19598082016E+03  0.24412430395E+03  0.00000000000E+00 0. -1.
</event>
<event>
 8    1  0.7114239E-009  0.1181963E+03  0.7561462E-02  0.1246103E+00
         -4   -1    0    0    0  501 -0.00000000000E+00  0.00000000000E+00  0.13054376163E+03  0.13054376163E+03  0.00000000000E+00 0. -1.
          4   -1    0    0  501    0  0.00000000000E+00 -0.00000000000E+00 -0.12894934529E+03  0.12894934529E+03  0.00000000000E+00 0.  1.
         25    2    1    2    0    0  0.70124065814E+02 -0.90930057947E+01 -0.66922876932E+01  0.14384776063E+03  0.12508926478E+03 0.  0.
         23    2    1    2    0    0 -0.70124065814E+02  0.90930057947E+01  0.82867040307E+01  0.11564534629E+03  0.91132372372E+02 0.  0.
          5    1    3    3  502    0  0.30089560523E+02  0.47472528075E+02 -0.37705663901E+02  0.67810117716E+02  0.41800000000E+01 0. -1.
         -5    1    3    3    0  502  0.40034505290E+02 -0.56565533870E+02  0.31013376208E+02  0.76037642912E+02  0.41800000000E+01 0. -1.
        -11    1    4    4    0    0 -0.27541348019E+02  0.46422955726E+02 -0.12351493036E+02  0.55373062487E+02  0.00000000000E+00 0.  1.
         11    1    4    4    0    0 -0.42582717794E+02 -0.37329949931E+02  0.20638197067E+02  0.60272283802E+02  0.00000000000E+00 0. -1.
</event>
<event>
 8    1  0.7114239E-009  0.8480865E+02  0.7561462E-02  0.1315934E+00
          1   -1    0    0  501    0  0.00000000000E+00  0.00000000000E+00  0.88472685741E+03  0.88472685741E+03  0.00000000000E+00 0. -1.
         -1   -1    0    0    0  501 -0.00000000000E+00 -0.00000000000E+00 -0.14347908182E+02  0.14347908182E+02  0.00000000000E+00 0.  1.
         25    2    1    2    0    0  0.93716429367E+00 -0.29267560710E+02  0.49726045199E+03  0.51358899975E+03  0.12509290613E+03 0.  0.
         23    2    1    2    0    0 -0.93716429367E+00  0.29267560710E+02  0.37311849724E+03  0.38548576584E+03  0.92327646454E+02 0.  0.
          5    1    3    3  502    0  0.36592629289E+02 -0.12104392467E+02  0.44235924625E+02  0.58820287850E+02  0.41800000000E+01 0.  1.
         -5    1    3    3    0  502 -0.35655464995E+02 -0.17163168243E+02  0.45302452737E+03  0.45476871190E+03  0.41800000000E+01 0.  1.
        -11    1    4    4    0    0  0.16671192927E+02  0.56344085123E+02  0.29768163008E+03  0.30342534088E+03  0.00000000000E+00 0. -1.
         11    1    4    4    0    0 -0.17608357221E+02 -0.27076524413E+02  0.75436867157E+02  0.82060424961E+02  0.00000000000E+00 0.  1.
</event>
<event>
 8    1  0.7114239E-009  0.1816286E+03  0.7561462E-02  0.1166236E+00
         -2   -1    0    0    0  501 -0.00000000000E+00  0.00000000000E+00  0.74470500749E+03  0.74470500749E+03  0.00000000000E+00 0. -1.
          2   -1    0    0  501    0  0.00000000000E+00 -0.00000000000E+00 -0.53735508058E+02  0.53735508058E+02  0.00000000000E+00 0.  1.
         25    2    1    2    0    0 -0.15062860750E+03 -0.73043621947E+02  0.34849069407E+03  0.40634658578E+03  0.12508971108E+03 0.  0.
         23    2    1    2    0    0  0.15062860750E+03  0.73043621947E+02  0.34247880536E+03  0.39209392976E+03  0.91769109904E+02 0.  0.
          5    1    3    3  502    0 -0.90737729279E+02 -0.93652563048E+01  0.71853121072E+02  0.11619546871E+03  0.41800000000E+01 0.  1.
         -5    1    3    3    0  502 -0.59890878222E+02 -0.63678365642E+02  0.27663757300E+03  0.29015111708E+03  0.41800000000E+01 0.  1.
        -11    1    4    4    0    0  0.10301643030E+03  0.73325206949E+01  0.14009709214E+03  0.17404983768E+03  0.00000000000E+00 0.  1.
         11    1    4    4    0    0  0.47612177200E+02  0.65711101252E+02  0.20238171322E+03  0.21804409208E+03  0.00000000000E+00 0. -1.
</event>
<event>
 8    1  0.7114239E-009  0.1389983E+03  0.7561462E-02  0.1214683E+00
          2   -1    0    0  501    0  0.00000000000E+00  0.00000000000E+00  0.41228637677E+03  0.41228637677E+03  0.00000000000E+00 0.  1.
         -2   -1    0    0    0  501 -0.00000000000E+00 -0.00000000000E+00 -0.58534448430E+02  0.58534448430E+02  0.00000000000E+00 0. -1.
         25    2    1    2    0    0 -0.99901256705E+02 -0.47092667011E+02  0.22241434574E+03  0.27805470591E+03  0.12509315693E+03 0.  0.
         23    2    1    2    0    0  0.99901256705E+02  0.47092667011E+02  0.13133758260E+03  0.19276611929E+03  0.87813642243E+02 0.  0.
          5    1    3    3  502    0 -0.77737824886E+02 -0.89135464519E+02  0.17048835243E+03  0.20753807161E+03  0.41800000000E+01 0.  1.
         -5    1    3    3    0  502 -0.22163431819E+02  0.42042797508E+02  0.51925993308E+02  0.70516634302E+02  0.41800000000E+01 0.  1.
        -11    1    4    4    0    0  0.76930907832E+02  0.27338859703E+02  0.29975072161E+02  0.86972885320E+02  0.00000000000E+00 0. -1.
         11    1    4    4    0    0  0.22970348873E+02  0.19753807308E+02  0.10136251044E+03  0.10579323397E+03  0.00000000000E+00 0.  1.
</event>
<event>
 8    1  0.7114239E-009  0.1264968E+03  0.7561462E-02  0.1232748E+00
         -1   -1    0    0    0  501 -0.00000000000E+00  0.00000000000E+00  0.60952552529E+03  0.60952552529E+03  0.00000000000E+00 0.  1.
          1   -1    0    0  501    0  0.00000000000E+00 -0.00000000000E+00 -0.37514696285E+02  0.37514696285E+02  0.00000000000E+00 0. -1.
         25    2    1    2    0    0 -0.34600847505E+02 -0.61020795947E+02  0.47937873931E+03  0.50037204070E+03  0.12508975668E+03 0.  0.
         23    2    1    2    0    0  0.34600847505E+02  0.61020795947E+02  0.92632089694E+02  0.14666818087E+03  0.89499134376E+02 0.  0.
          5    1    3    3  502    0 -0.80686120000E+02 -0.50926360848E+02  0.29925044065E+03  0.31412106395E+03  0.41800000000E+01 0. -1.
         -5    1    3    3    0  502  0.46085272495E+02 -0.10094435099E+02  0.18012829867E+03  0.18625097675E+03  0.41800000000E+01 0. -1.
        -11    1    4    4    0    0 -0.28331544293E+02  0.14227153852E+02  0.44549905572E+02  0.54678902652E+02  0.00000000000E+00 0.  1.
         11    1    4    4    0    0  0.62932391799E+02  0.46793642095E+02  0.48082184122E+02  0.91989278223E+02  0.00000000000E+00 0. -1.
</event>
<event>
 8    1  0.7114239E-009  0.1496166E+03  0.7561462E-02  0.1200945E+00
         -2   -1    0    0    0  501 -0.00000000000E+00  0.00000000000E+00  0.62281954877E+02  0.62281954877E+02  0.00000000000E+00 0.  1.
          2   -1    0    0  501    0  0.00000000000E+00 -0.00000000000E+00 -0.50443409014E+03  0.50443409014E+03  0.00000000000E+00 0. -1.
         25    2    1    2    0    0  0.11215191595E+03  0.40038272616E+02 -0.34260752741E+03  0.38367721859E+03  0.12508866737E+03 0.  0.
         23    2    1    2    0    0 -0.11215191595E+03 -0.40038272616E+02 -0.99544607856E+02  0.18303882643E+03  0.97020448885E+02 0.  0.
          5    1    3    3  502    0 -0.16591822370E+02 -0.23361417002E+02 -0.64348468368E+02  0.70563745331E+02  0.41800000000E+01 0. -1.
         -5    1    3    3    0  502  0.12874373832E+03  0.63399689618E+02 -0.27825905904E+03  0.31311347326E+03  0.41800000000E+01 0. -1.
        -11    1    4    4    0    0 -0.28064645558E+02  0.88676638791E+01  0.14776176111E+02  0.32933192579E+02  0.00000000000E+00 0.  1.
         11    1    4    4    0    0 -0.84087270387E+02 -0.48905936495E+02 -0.11432078397E+03  0.15010563385E+03  0.00000000000E+00 0. -1.
</event>
<event>
 8    1  0.7114239E-009  0.1132048E+03  0.7561462E-02  0.1254748E+00
         -1   -1    0    0    0  501 -0.00000000000E+00  0.00000000000E+00  0.17757028624E+03  0.17757028624E+03  0.00000000000E+00 0.  1.
          1   -1    0    0  501    0  0.00000000000E+00 -0.00000000000E+00 -0.14145043574E+03  0.14145043574E+03  0.00000000000E+00 0. -1.
         25    2    1    2    0    0 -0.57730595675E+02  0.98053634410E+01 -0.80316773575E+02  0.15977284896E+03  0.12509041658E+03 0.  0.
         23    2    1    2    0    0  0.57730595675E+02 -0.98053634410E+01  0.11643662408E+03  0.15924787302E+03  0.91506452257E+02 0.  0.
          5    1    3    3  502    0 -0.65443082578E+02  0.51814044164E+02 -0.81645701264E+02  0.11683743050E+03  0.41800000000E+01 0. -1.
         -5    1    3    3    0  502  0.77124869030E+01 -0.42008680723E+02  0.13289276898E+01  0.42935418469E+02  0.41800000000E+01 0. -1.
        -11    1    4    4    0    0  0.48912499608E+02 -0.43274202423E+02  0.10333027855E+03  0.12223843781E+03  0.00000000000E+00 0.  1.
         11    1    4    4    0    0  0.88180960665E+01  0.33468838982E+02  0.13106345524E+02  0.37009435203E+02  0.00000000000E+00 0. -1.
</event>
<event>
 8    1  0.7114239E-009  0.1866845E+03  0.7561462E-02  0.1161486E+00
         -1   -1    0    0    0  501 -0.00000000000E+00  0.00000000000E+00  0.12467317424E+03  0.12467317424E+03  0.00000000000E+00 0.  1.
          1   -1    0    0  501    0  0.00000000000E+00 -0.00000000000E+00 -0.30106262756E+03  0.30106262756E+03  0.00000000000E+00 0. -1.
         25    2    1    2    0    0  0.16172540148E+03  0.10248635986E+02 -0.74803530023E+02  0.21795217221E+03  0.12508973277E+03 0.  0.
         23    2    1    2    0    0 -0.16172540148E+03 -0.10248635986E+02 -0.10158592330E+03  0.20778362960E+03  0.81204660534E+02 0.  0.
          5    1    3    3  502    0  0.11525581963E+03 -0.52259520710E+02 -0.49472853196E+02  0.13594115296E+03  0.41800000000E+01 0. -1.
         -5    1    3    3    0  502  0.46469581846E+02  0.62508156696E+02 -0.25330676827E+02  0.82011019253E+02  0.41800000000E+01 0. -1.
        -11    1    4    4    0    0 -0.12752453428E+03 -0.27480674902E+02 -0.42176759025E+02  0.13710059569E+03  0.00000000000E+00 0.  1.
         11    1    4    4    0    0 -0.34200867196E+02  0.17232038916E+02 -0.59409164273E+02  0.70683033903E+02  0.00000000000E+00 0. -1.
</event>
<event>
 8    1  0.7114239E-009  0.1821478E+03  0.7561462E-02  0.1165740E+00
          2   -1    0    0  501    0  0.00000000000E+00  0.00000000000E+00  0.64060030012E+03  0.64060030012E+03  0.00000000000E+00 0.  1.
         -2   -1    0    0    0  501 -0.00000000000E+00 -0.00000000000E+00 -0.59505300328E+02  0.59505300328E+02  0.00000000000E+00 0. -1.
         25    2    1    2    0    0  0.39316170278E+02 -0.14373161198E+03  0.19198121891E+03  0.27332871922E+03  0.12508901955E+03 0.  0.
         23    2    1    2    0    0 -0.39316170278E+02  0.14373161198E+03  0.38911378088E+03  0.42677688122E+03  0.92327863349E+02 0.  0.
          5    1    3    3  502    0 -0.19771807625E+02  0.12162797589E+02  0.45992616329E+02  0.51688017748E+02  0.41800000000E+01 0.  1.
         -5    1    3    3    0  502  0.59087977903E+02 -0.15589440957E+03  0.14598860258E+03  0.22164070148E+03  0.41800000000E+01 0.  1.
        -11    1    4    4    0    0  0.13569994631E+02  0.11082330753E+03  0.27434544111E+03  0.29619481984E+03  0.00000000000E+00 0.  1.
         11    1    4    4    0    0 -0.52886164909E+02  0.32908304449E+02  0.11476833977E+03  0.13058206138E+03  0.00000000000E+00 0. -1.
</event>
<event>
 8    1  0.7114239E-009  0.8760383E+02  0.7561462E-02  0.1308760E+00
          2   -1    0    0  501    0  0.00000000000E+00  0.00000000000E+00  0.19074554382E+03  0.19074554382E+03  0.00000000000E+00 0. -1.
         -2   -1    0    0    0  501 -0.00000000000E+00 -0.00000000000E+00 -0.72804896264E+02  0.72804896264E+02  0.00000000000E+00 0.  1.
         25    2    1    2    0    0  0.20410150870E+02 -0.43166595964E+02  0.89331573417E+02  0.16096061452E+03  0.12509300601E+03 0.  0.
         23    2    1    2    0    0 -0.20410150870E+02  0.43166595964E+02  0.28609074135E+02  0.10258982556E+03  0.86175773389E+02 0.  0.
          5    1    3    3  502    0  0.44185090568E+01  0.15358441169E+02 -0.25868999707E+02  0.30693362202E+02  0.41800000000E+01 0.  1.
         -5    1    3    3    0  502  0.15991641813E+02 -0.58525037133E+02  0.11520057312E+03  0.13026725232E+03  0.41800000000E+01 0.  1.
        -11    1    4    4    0    0  0.26167634950E+02  0.44109073571E+02  0.91259607143E+01  0.52092596875E+02  0.00000000000E+00 0.  1.
         11    1    4    4    0    0 -0.46577785820E+02 -0.94247760689E+00  0.19483113421E+02  0.50497228682E+02  0.00000000000E+00 0. -1.
</event>
<event>
 8    1  0.7114239E-009  0.1129521E+03  0.7561462E-02  0.1255199E+00
          2   -1    0    0  501    0  0.00000000000E+00  0.00000000000E+00  0.28549360633E+03  0.28549360633E+03  0.00000000000E+00 0. -1.
         -2   -1    0    0    0  501 -0.00000000000E+00 -0.00000000000E+00 -0.47451721552E+02  0.47451721552E+02  0.00000000000E+00 0.  1.
         25    2    1    2    0    0 -0.29051647582E+02 -0.26685382838E+02  0.11983850675E+03  0.17766583150E+03  0.12509105522E+03 0.  0.
         23    2    1    2    0    0  0.29051647582E+02  0.26685382838E+02  0.11820337802E+03  0.15527949638E+03  0.92647587857E+02 0.  0.
          5    1    3    3  502    0  0.37137688459E+02  0.25254360679E+02  0.28216656392E+02  0.53203784972E+02  0.41800000000E+01 0.  1.
         -5    1    3    3    0  502 -0.66189336041E+02 -0.51939743517E+02  0.91621850363E+02  0.12446204653E+03  0.41800000000E+01 0.  1.
        -11    1    4    4    0    0  0.45916733876E+02 -0.17598235725E+02  0.38088035736E+02  0.62199218779E+02  0.00000000000E+00 0. -1.
         11    1    4    4    0    0 -0.16865086294E+02  0.44283618563E+02  0.80115342283E+02  0.93080277599E+02  0.00000000000E+00 0.  1.
</event>
<event>
 8    1  0.7114239E-009  0.1320935E+03  0.7561462E-02  0.1224382E+00
         -2   -1    0    0    0  501 -0.00000000000E+00  0.00000000000E+00  0.87448486736E+02  0.87448486736E+02  0.00000000000E+00 0.  1.
          2   -1    0    0  501    0  0.00000000000E+00 -0.00000000000E+00 -0.28394411208E+03  0.28394411208E+03  0.00000000000E+00 0. -1.
         25    2    1    2    0    0 -0.54259248088E+02 -0.96118015093E+02 -0.13831979787E+03  0.21670906094E+03  0.12509081415E+03 0.  0.
         23    2    1    2    0    0  0.54259248088E+02  0.96118015093E+02 -0.58175827478E+02  0.15468353787E+03  0.91432112289E+02 0.  0.
          5    1    3    3  502    0  0.81709909630E+01 -0.26180556715E+02  0.18930740102E+02  0.33586187102E+02  0.41800000000E+01 0.  1.
         -5    1    3    3    0  502 -0.62430239051E+02 -0.69937458377E+02 -0.15725053797E+03  0.18312287384E+03  0.41800000000E+01 0.  1.
        -11    1    4    4    0    0  0.72087750582E+02  0.37348373976E+02 -0.40770925789E+02  0.90850499241E+02  0.00000000000E+00 0. -1.
         11    1    4    4    0    0 -0.17828502494E+02  0.58769641117E+02 -0.17404901689E+02  0.63833038632E+02  0.00000000000E+00 0.  1.
</event>
<event>
 8    1  0.7114239E-009  0.1056298E+03  0.7561462E-02  0.1268884E+00
         -2   -1    0    0    0  501 -0.00000000000E+00  0.00000000000E+00  0.69332232134E+02  0.69332232134E+02  0.00000000000E+00 0. -1.
          2   -1    0    0  501    0  0.00000000000E+00 -0.00000000000E+00 -0.27849698690E+03  0.27849698690E+03  0.00000000000E+00 0.  1.
         25    2    1    2    0    0 -0.53202732566E+02 -0.38504711259E+02 -0.18556294217E+03  0.23322641506E+03  0.12509121325E+03 0.  0.
         23    2    1    2    0    0  0.53202732566E+02  0.38504711259E+02 -0.23601812594E+02  0.11460280397E+03  0.90904420021E+02 0.  0.
          5    1    3    3  502    0 -0.76383777800E+02 -0.68256834842E+02 -0.12383558396E+03  0.16076753798E+03  0.41800000000E+01 0. -1.
         -5    1    3    3    0  502  0.23181045234E+02  0.29752123583E+02 -0.61727358214E+02  0.72458877082E+02  0.41800000000E+01 0. -1.
        -11    1    4    4    0    0  0.34749151107E+02  0.88447810615E+01  0.32579212070E+02  0.48447277672E+02  0.00000000000E+00 0. -1.
         11    1    4    4    0    0  0.18453581459E+02  0.29659930197E+02 -0.56181024665E+02  0.66155526302E+02  0.00000000000E+00 0.  1.
</event>
<event>
 8    1  0.7114239E-009  0.1466038E+03  0.7561462E-02  0.1204709E+00
         -2   -1    0    0    0  501 -0.00000000000E+00  0.00000000000E+00  0.53915355240E+02  0.53915355240E+02  0.00000000000E+00 0. -1.
          2   -1    0    0  501    0  0.00000000000E+00 -0.00000000000E+00 -0.75553577719E+03  0.75553577719E+03  0.00000000000E+00 0.  1.
         25    2    1    2    0    0  0.91110820334E+00  0.13689727797E+03 -0.56757116928E+03  0.59709830541E+03  0.12509060430E+03 0.  0.
         23    2    1    2    0    0 -0.91110820334E+00 -0.13689727797E+03 -0.13404925267E+03  0.21235282702E+03  0.91557775038E+02 0.  0.
          5    1    3    3  502    0  0.37537631072E+02  0.62585417841E+02 -0.43215773865E+03  0.43829646559E+03  0.41800000000E+01 0.  1.
         -5    1    3    3    0  502 -0.36626522868E+02  0.74311860132E+02 -0.13541343063E+03  0.15880183982E+03  0.41800000000E+01 0.  1.
        -11    1    4    4    0    0 -0.46562044625E+01 -0.78533760975E+02 -0.13220270041E+03  0.15384013082E+03  0.00000000000E+00 0.  1.
         11    1    4    4    0    0  0.37450962592E+01 -0.58363516998E+02 -0.18465522543E+01  0.58512696208E+02  0.00000000000E+00 0. -1.
</event>
<event>
 8    1  0.7114239E-009  0.1181618E+03  0.7561462E-02  0.1246161E+00
         -2   -1    0    0    0  501 -0.00000000000E+00  0.00000000000E+00  0.19320804648E+02  0.19320804648E+02  0.00000000000E+00 0.  1.
          2   -1    0    0  501    0  0.00000000000E+00 -0.00000000000E+00 -0.86812729010E+03  0.86812729010E+03  0.00000000000E+00 0. -1.
         25    2    1    2    0    0 -0.59128136112E+02  0.64459994803E+01 -0.40530733290E+03  0.42832103160E+03  0.12508870701E+03 0.  0.
         23    2    1    2    0    0  0.59128136112E+02 -0.64459994803E+01 -0.44349915255E+03  0.45912706314E+03  0.10280308560E+03 0.  0.
          5    1    3    3  502    0 -0.56771577220E+02  0.50165178563E+02 -0.13858054783E+03  0.15799239778E+03  0.41800000000E+01 0.  1.
         -5    1    3    3    0  502 -0.23565588921E+01 -0.43719179083E+02 -0.26672678507E+03  0.27032863382E+03  0.41800000000E+01 0.  1.
        -11    1    4    4    0    0  0.52173771714E+02  0.42337271924E+02 -0.29901622129E+03  0.30647226244E+03  0.00000000000E+00 0.  1.
         11    1    4    4    0    0  0.69543643980E+01 -0.48783271405E+02 -0.14448293126E+03  0.15265480070E+03  0.00000000000E+00 0. -1.
</event>
<event>
 8    1  0.7114239E-009  0.7685667E+02  0.7561462E-02  0.1338216E+00
          4   -1    0    0  501    0  0.00000000000E+00  0.00000000000E+00  0.14633238346E+03  0.14633238346E+03  0.00000000000E+00 0.  1.
         -4   -1    0    0    0  501 -0.00000000000E+00 -0.00000000000E+00 -0.90167051728E+02  0.90167051728E+02  0.00000000000E+00 0. -1.
         25    2    1    2    0    0 -0.66215390290E+01  0.27486592359E+02  0.51100468142E+02  0.13805022706E+03  0.12508896757E+03 0.  0.
         23    2    1    2    0    0  0.66215390290E+01 -0.27486592359E+02  0.50648635909E+01  0.98449208132E+02  0.94166003419E+02 0.  0.
          5    1    3    3  502    0 -0.24853230152E+02 -0.23970404460E+02  0.71589114074E+02  0.79591061011E+02  0.41800000000E+01 0.  1.
         -5    1    3    3    0  502  0.18231691123E+02  0.51456996819E+02 -0.20488645932E+02  0.58459166047E+02  0.41800000000E+01 0.  1.
        -11    1    4    4    0    0  0.27566633261E+02 -0.32527759755E+02  0.39308552584E+02  0.57992557542E+02  0.00000000000E+00 0.  1.
         11    1    4    4    0    0 -0.20945094232E+02  0.50411673959E+01 -0.34243688993E+02  0.40456650590E+02  0.00000000000E+00 0. -1.
</event>
<event>
 8    1  0.7114239E-009  0.1120031E+03  0.7561462E-02  0.1256905E+00
         -3   -1    0    0    0  501 -0.00000000000E+00  0.00000000000E+00  0.20023548238E+02  0.20023548238E+02  0.00000000000E+00 0.  1.
          3   -1    0    0  501    0  0.00000000000E+00 -0.00000000000E+00 -0.86567964710E+03  0.86567964710E+03  0.00000000000E+00 0. -1.
         25    2    1    2    0    0 -0.58060055301E+02 -0.46241755071E+02 -0.52257622728E+03  0.54243975959E+03  0.12508281069E+03 0.  0.
         23    2    1    2    0    0  0.58060055301E+02  0.46241755071E+02 -0.32307987158E+03  0.34326343574E+03  0.89106189272E+02 0.  0.
          5    1    3    3  502    0 -0.94395973587E+02 -0.38798800033E+02 -0.30405115593E+03  0.32074994082E+03  0.41800000000E+01 0. -1.
         -5    1    3    3    0  502  0.36335918285E+02 -0.74429550382E+01 -0.21852507136E+03  0.22168981878E+03  0.41800000000E+01 0. -1.
        -11    1    4    4    0    0  0.10004230975E+01  0.22844861510E+02 -0.11418559766E+02  0.25559187211E+02  0.00000000000E+00 0.  1.
         11    1    4    4    0    0  0.57059632204E+02  0.23396893562E+02 -0.31166131181E+03  0.31770424853E+03  0.00000000000E+00 0. -1.
</event>
<event>
 8    1  0.7114239E-009  0.7657988E+02  0.7561462E-02  0.1339047E+00
         -2   -1    0    0    0  501 -0.00000000000E+00  0.00000000000E+00  0.42497147091E+03  0.42497147091E+03  0.00000000000E+00 0. -1.
          2   -1    0    0  501    0  0.00000000000E+00 -0.00000000000E+00 -0.43255911459E+02  0.43255911459E+02  0.00000000000E+00 0.  1.
         25    2    1    2    0    0 -0.67709545429E+01  0.45837281943E+02  0.31900251467E+03  0.34577042313E+03  0.12509068274E+03 0.  0.
         23    2    1    2    0    0  0.67709545429E+01 -0.45837281943E+02  0.62713044786E+02  0.12245695924E+03  0.94423930433E+02 0.  0.
          5    1    3    3  502    0  0.23917869493E+02  0.64657622903E+01  0.24128813141E+01  0.25242126680E+02  0.41800000000E+01 0. -1.
         -5    1    3    3    0  502 -0.30688824036E+02  0.39371519653E+02  0.31658963335E+03  0.32052829645E+03  0.41800000000E+01 0. -1.
        -11    1    4    4    0    0 -0.22897338251E+02  0.51760654374E+00 -0.14890861894E+02  0.27318378127E+02  0.00000000000E+00 0.  1.
         11    1    4    4    0    0  0.29668292794E+02 -0.46354888487E+02  0.77603906681E+02  0.95138581112E+02  0.00000000000E+00 0. -1.
</event>
<event>
 8    1  0.7114239E-009  0.1444333E+03  0.7561462E-02  0.1207485E+00
         -1   -1    0    0    0  501 -0.00000000000E+00  0.00000000000E+00  0.47228756316E+03  0.47228756316E+03  0.00000000000E+00 0.  1.
          1   -1    0    0  501    0  0.00000000000E+00 -0.00000000000E+00 -0.73301544916E+02  0.73301544916E+02  0.00000000000E+00 0. -1.
         25    2    1    2    0    0  0.96621151064E+02 -0.69981176506E+02  0.34625315040E+03  0.38700332765E+03  0.12508924637E+03 0.  0.
         23    2    1    2    0    0 -0.96621151064E+02  0.69981176506E+02  0.52732867851E+02  0.15858578042E+03  0.90198018288E+02 0.  0.
          5    1    3    3  502    0  0.38595417453E+02 -0.77954354015E+02  0.29961821368E+03  0.31201768207E+03  0.41800000000E+01 0.  1.
         -5    1    3    3    0  502  0.58025733610E+02  0.79731775092E+01  0.46634936719E+02  0.74985645582E+02  0.41800000000E+01 0.  1.
        -11    1    4    4    0    0 -0.48702728344E+02  0.80420737539E+02  0.56003882703E+02  0.10943438972E+03  0.00000000000E+00 0.  1.
         11    1    4    4    0    0 -0.47918422719E+02 -0.10439561033E+02 -0.32710148528E+01  0.49151390709E+02  0.00000000000E+00 0. -1.
</event>
<event>
 8    1  0.7114239E-009  0.9777047E+02  0.7561462E-02  0.1285055E+00
         -1   -1    0    0    0  501 -0.00000000000E+00  0.00000000000E+00  0.22729128362E+03  0.22729128362E+03  0.00000000000E+00 0.  1.
          1   -1    0    0  501    0  0.00000000000E+00 -0.00000000000E+00 -0.68862307959E+02  0.68862307959E+02  0.00000000000E+00 0. -1.
         25    2    1    2    0    0 -0.52432019683E+02 -0.15709309606E+02  0.12337098537E+03  0.18402261559E+03  0.12509206178E+03 0.  0.
         23    2    1    2    0    0  0.52432019683E+02  0.15709309606E+02  0.35057990289E+02  0.11213097599E+03  0.91369546334E+02 0.  0.
          5    1    3    3  502    0 -0.54939834014E+02  0.24836370037E+02  0.12932773427E+03  0.14275281394E+03  0.41800000000E+01 0.  1.
         -5    1    3    3    0  502  0.25078143308E+01 -0.40545679642E+02 -0.59567488963E+01  0.41269801644E+02  0.41800000000E+01 0.  1.
        -11    1    4    4    0    0  0.35188427926E+01 -0.28270020103E+02  0.36544642191E+02  0.46336671914E+02  0.00000000000E+00 0.  1.
         11    1    4    4    0    0  0.48913176890E+02  0.43979329709E+02 -0.14866519018E+01  0.65794304077E+02  0.00000000000E+00 0. -1.
</event>
<event>
 8    1  0.7114239E-009  0.1397043E+03  0.7561462E-02  0.1213727E+00
         -2   -1    0    0    0  501 -0.00000000000E+00  0.00000000000E+00  0.48851963173E+03  0.48851963173E+03  0.00000000000E+00 0.  1.
          2   -1    0    0  501    0  0.00000000000E+00 -0.00000000000E+00 -0.48196513813E+02  0.48196513813E+02  0.00000000000E+00 0. -1.
         25    2    1    2    0    0 -0.10517780739E+03 -0.35309315461E+02  0.22142487811E+03  0.27746451669E+03  0.12509381459E+03 0.  0.
         23    2    1    2    0    0  0.10517780739E+03  0.35309315461E+02  0.21889823980E+03  0.25925162885E+03  0.83581389963E+02 0.  0.
          5    1    3    3  502    0 -0.17373904107E+02  0.43709762647E+02  0.45913498706E+02  0.65862870102E+02  0.41800000000E+01 0.  1.
         -5    1    3    3    0  502 -0.87803903285E+02 -0.79019078108E+02  0.17551137941E+03  0.21160164659E+03  0.41800000000E+01 0.  1.
        -11    1    4    4    0    0  0.65747501515E+02  0.35158173961E+02  0.20383336619E+03  0.21704117657E+03  0.00000000000E+00 0.  1.
         11    1    4    4    0    0  0.39430305878E+02  0.15114149997E+00  0.15064873609E+02  0.42210452286E+02  0.00000000000E+00 0. -1.
</event>
<event>
 8    1  0.7114239E-009  0.6813921E+02  0.7561462E-02  0.1366538E+00
         -2   -1    0    0    0  501 -0.00000000000E+00  0.00000000000E+00  0.92780955439E+03  0.92780955439E+03  0.00000000000E+00 0.  1.
          2   -1    0    0  501    0  0.00000000000E+00 -0.00000000000E+00 -0.20950640971E+02  0.20950640971E+02  0.00000000000E+00 0. -1.
         25    2    1    2    0    0  0.11262028465E+02 -0.47764620205E+02  0.73757255533E+03  0.74971268824E+03  0.12509016069E+03 0.  0.
         23    2    1    2    0    0 -0.11262028465E+02  0.47764620205E+02  0.16928635808E+03  0.19904750712E+03  0.92486468351E+02 0.  0.
          5    1    3    3  502    0  0.99251168975E+01 -0.33802116680E+02  0.73372136879E+03  0.73457852573E+03  0.41800000000E+01 0. -1.
         -5    1    3    3    0  502  0.13369115671E+01 -0.13962503525E+02  0.38511865396E+01  0.15134162513E+02  0.41800000000E+01 0. -1.
        -11    1    4    4    0    0  0.15804390240E+02 -0.12468900247E+02  0.10491377020E+03  0.10682767151E+03  0.00000000000E+00 0.  1.
         11    1    4    4    0    0 -0.27066418704E+02  0.60233520451E+02  0.64372587887E+02  0.92219835604E+02  0.00000000000E+00 0. -1.
</event>
<event>
 8    1  0.7114239E-009  0.9979478E+02  0.7561462E-02  0.1280728E+00
         -1   -1    0    0    0  501 -0.00000000000E+00  0.00000000000E+00  0.33885078331E+03  0.33885078331E+03  0.00000000000E+00 0.  1.
          1   -1    0    0  501    0  0.00000000000E+00 -0.00000000000E+00 -0.52686927523E+02  0.52686927523E+02  0.00000000000E+00 0. -1.
         25    2    1    2    0    0  0.34617755315E+01 -0.16103190086E+01  0.27311349630E+03  0.30041817398E+03  0.12508205459E+03 0.  0.
         23    2    1    2    0    0 -0.34617755315E+01  0.16103190086E+01  0.13050359492E+02  0.91119536855E+02  0.90099284662E+02 0.  0.
          5    1    3    3  502    0  0.39447993089E+01 -0.62124419459E+02  0.11107483196E+03  0.12739739256E+03  0.41800000000E+01 0.  1.
         -5    1    3    3    0  502 -0.48302377734E+00  0.60514100451E+02  0.16203866433E+03  0.17302078142E+03  0.41800000000E+01 0.  1.
        -11    1    4    4    0    0  0.34640506813E+02 -0.11096467126E+02  0.30363447808E+02  0.47381803023E+02  0.00000000000E+00 0.  1.
         11    1    4    4    0    0 -0.38102282344E+02  0.12706786134E+02 -0.17313088316E+02  0.43737733832E+02  0.00000000000E+00 0. -1.
</event>
<event>
 8    1  0.7114239E-009  0.1409576E+03  0.7561462E-02  0.1212046E+00
          1   -1    0    0  501    0  0.00000000000E+00  0.00000000000E+00  0.46024662135E+03  0.46024662135E+03  0.00000000000E+00 0. -1.
         -1   -1    0    0    0  501 -0.00000000000E+00 -0.00000000000E+00 -0.61149001507E+02  0.61149001507E+02  0.00000000000E+00 0.  1.
         25    2    1    2    0    0  0.18406575337E+02  0.92509432664E+02  0.80417067614E+02  0.17609936925E+03  0.12508911199E+03 0.  0.
         23    2    1    2    0    0 -0.18406575337E+02 -0.92509432664E+02  0.31868055222E+03  0.34529625361E+03  0.93677164991E+02 0.  0.
          5    1    3    3  502    0  0.66013596276E+02  0.36621503298E+02  0.67671127520E+02  0.10146813932E+03  0.41800000000E+01 0. -1.
         -5    1    3    3    0  502 -0.47607020939E+02  0.55887929366E+02  0.12745940094E+02  0.74631229927E+02  0.41800000000E+01 0. -1.
        -11    1    4    4    0    0  0.35729138460E+02 -0.59393737662E+02  0.15779544189E+03  0.17234729150E+03  0.00000000000E+00 0.  1.
         11    1    4    4    0    0 -0.54135713797E+02 -0.33115695002E+02  0.16088511034E+03  0.17294896210E+03  0.00000000000E+00 0. -1.
</event>
<event>
 8    1  0.7114239E-009  0.2177540E+03  0.7561462E-02  0.1135569E+00
          1   -1    0    0  501    0  0.00000000000E+00  0.00000000000E+00  0.15378568725E+04  0.15378568725E+04  0.00000000000E+00 0. -1.
         -1   -1    0    0    0  501 -0.00000000000E+00 -0.00000000000E+00 -0.31608608586E+02  0.31608608586E+02  0.00000000000E+00 0.  1.
         25    2    1    2    0    0 -0.14537618002E+03  0.12246587958E+03  0.86498681816E+03  0.89441580782E+03  0.12508123880E+03 0.  0.
         23    2    1    2    0    0  0.14537618002E+03 -0.12246587958E+03  0.64126144572E+03  0.67504967324E+03  0.91343824059E+02 0.  0.
          5    1    3    3  502    0 -0.15533977877E+03  0.68832102818E+02  0.70989704470E+03  0.72995862329E+03  0.41800000000E+01 0. -1.
         -5    1    3    3    0  502  0.99635987432E+01  0.53633776757E+02  0.15508977346E+03  0.16445718453E+03  0.41800000000E+01 0. -1.
        -11    1    4    4    0    0  0.15191383380E+02  0.15113251520E+02  0.69939603063E+02  0.73148729155E+02  0.00000000000E+00 0.  1.
         11    1    4    4    0    0  0.13018479664E+03 -0.13757913110E+03  0.57132184265E+03  0.60190094408E+03  0.00000000000E+00 0. -1.
</event>
<event>
 8    1  0.7114239E-009  0.8069769E+02  0.7561462E-02  0.1327083E+00
          2   -1    0    0  501    0  0.00000000000E+00  0.00000000000E+00  0.27010180762E+03  0.27010180762E+03  0.00000000000E+00 0. -1.
         -2   -1    0    0    0  501 -0.00000000000E+00 -0.00000000000E+00 -0.51172281297E+02  0.51172281297E+02  0.00000000000E+00 0.  1.
         25    2    1    2    0    0  0.17727582066E+02 -0.11772539692E+02  0.66388497438E+02  0.14320483567E+03  0.12508929815E+03 0.  0.
         23    2    1    2    0    0 -0.17727582066E+02  0.11772539692E+02  0.15254102889E+03  0.17806925325E+03  0.89370205333E+02 0.  0.
          5    1    3    3  502    0 -0.46733581889E+02 -0.24172085004E+02  0.46359729629E+01  0.52983790115E+02  0.41800000000E+01 0.  1.
         -5    1    3    3    0  502  0.64461163955E+02  0.12399545312E+02  0.61752524475E+02  0.90221045557E+02  0.41800000000E+01 0.  1.
        -11    1    4    4    0    0  0.10766337237E+02  0.93195084207E+01 -0.70826309947E+01  0.15903801952E+02  0.00000000000E+00 0.  1.
         11    1    4    4    0    0 -0.28493919303E+02  0.24530312713E+01  0.15962365988E+03  0.16216545130E+03  0.00000000000E+00 0. -1.
</event>
<event>
 8    1  0.7114239E-009  0.3730346E+03  0.7561462E-02  0.1053539E+00
         -1   -1    0    0    0  501 -0.00000000000E+00  0.00000000000E+00  0.54068829110E+02  0.54068829110E+02  0.00000000000E+00 0.  1.
          1   -1    0    0  501    0  0.00000000000E+00 -0.00000000000E+00 -0.27138056222E+04  0.27138056222E+04  0.00000000000E+00 0. -1.
         25    2    1    2    0    0 -0.35915509326E+03 -0.59537368252E+02 -0.15204736649E+04  0.15684460310E+04  0.12508280097E+03 0.  0.
         23    2    1    2    0    0  0.35915509326E+03  0.59537368252E+02 -0.11392631282E+04  0.11994284203E+04  0.90393479278E+02 0.  0.
          5    1    3    3  502    0 -0.54134244889E+02  0.24579437601E+02 -0.38970992900E+03  0.39424100038E+03  0.41800000000E+01 0.  1.
         -5    1    3    3    0  502 -0.30502084837E+03 -0.84116805852E+02 -0.11307637359E+04  0.11742050306E+04  0.41800000000E+01 0.  1.
        -11    1    4    4    0    0  0.21980868823E+03  0.68954621081E+02 -0.61010485123E+03  0.65214916138E+03  0.00000000000E+00 0.  1.
         11    1    4    4    0    0  0.13934640503E+03 -0.94172528290E+01 -0.52915827693E+03  0.54727925896E+03  0.00000000000E+00 0. -1.
</event>
<event>
 8    1  0.7114239E-009  0.8512634E+02  0.7561462E-02  0.1315102E+00
          1   -1    0    0  501    0  0.00000000000E+00  0.00000000000E+00  0.13596288634E+04  0.13596288634E+04  0.00000000000E+00 0. -1.
         -1   -1    0    0    0  501 -0.00000000000E+00 -0.00000000000E+00 -0.23029369888E+02  0.23029369888E+02  0.00000000000E+00 0.  1.
         25    2    1    2    0    0  0.35207740047E+02 -0.31812985302E+02  0.12194973350E+04  0.12268141399E+04  0.12509009879E+03 0.  0.
         23    2    1    2    0    0 -0.35207740047E+02  0.31812985302E+02  0.11710215853E+03  0.15584409340E+03  0.91229463013E+02 0.  0.
          5    1    3    3  502    0  0.61863206593E+02  0.18994491910E+02  0.39274204580E+03  0.39805983720E+03  0.41800000000E+01 0. -1.
         -5    1    3    3    0  502 -0.26655466546E+02 -0.50807477212E+02  0.82675528919E+03  0.82875430270E+03  0.41800000000E+01 0. -1.
        -11    1    4    4    0    0 -0.22156291086E+02  0.15769198972E+02  0.12910052948E+03  0.13193375452E+03  0.00000000000E+00 0. -1.
         11    1    4    4    0    0 -0.13051448961E+02  0.16043786330E+02 -0.11998370947E+02  0.23910338876E+02  0.00000000000E+00 0.  1.
</event>
<event>
 8    1  0.7114239E-009  0.1025661E+03  0.7561462E-02  0.1274990E+00
         -1   -1    0    0    0  501 -0.00000000000E+00  0.00000000000E+00  0.34963348963E+02  0.34963348963E+02  0.00000000000E+00 0.  1.
          1   -1    0    0  501    0  0.00000000000E+00 -0.00000000000E+00 -0.70397606029E+03  0.70397606029E+03  0.00000000000E+00 0. -1.
         25    2    1    2    0    0  0.48167539948E+02 -0.36401311908E+02 -0.58692485166E+03  0.60313630054E+03  0.12508976025E+03 0.  0.
         23    2    1    2    0    0 -0.48167539948E+02  0.36401311908E+02 -0.82087859667E+02  0.13580310871E+03  0.89771377499E+02 0.  0.
          5    1    3    3  502    0  0.88690713084E+01  0.46146960207E+02 -0.18457764774E+03  0.19051137186E+03  0.41800000000E+01 0.  1.
         -5    1    3    3    0  502  0.39298468639E+02 -0.82548272115E+02 -0.40234720392E+03  0.41262492868E+03  0.41800000000E+01 0.  1.
        -11    1    4    4    0    0 -0.29833224933E+02  0.37674296841E+02 -0.99493040184E+02  0.11049090007E+03  0.00000000000E+00 0. -1.
         11    1    4    4    0    0 -0.18334315014E+02 -0.12729849331E+01  0.17405180518E+02  0.25312208646E+02  0.00000000000E+00 0.  1.
</event>
<event>
 8    1  0.7114239E-009  0.1108510E+03  0.7561462E-02  0.1259002E+00
         -1   -1    0    0    0  501 -0.00000000000E+00  0.00000000000E+00  0.44134304707E+03  0.44134304707E+03  0.00000000000E+00 0.  1.
          1   -1    0    0  501    0  0.00000000000E+00 -0.00000000000E+00 -0.36802521262E+02  0.36802521262E+02  0.00000000000E+00 0. -1.
         25    2    1    2    0    0  0.33763403717E+02  0.56177067625E+02  0.24784810224E+03  0.28525850601E+03  0.12509157888E+03 0.  0.
         23    2    1    2    0    0 -0.33763403717E+02 -0.56177067625E+02  0.15669242356E+03  0.19288706233E+03  0.91417027147E+02 0.  0.
          5    1    3    3  502    0  0.55686476710E+02  0.75060210775E+02  0.23572210839E+03  0.25360876112E+03  0.41800000000E+01 0. -1.
         -5    1    3    3    0  502 -0.21923072994E+02 -0.18883143150E+02  0.12125993852E+02  0.31649744890E+02  0.41800000000E+01 0. -1.
        -11    1    4    4    0    0 -0.10411864594E+02  0.18193470105E+02  0.83038815262E+02  0.85643762872E+02  0.00000000000E+00 0.  1.
         11    1    4    4    0    0 -0.23351539122E+02 -0.74370537730E+02  0.73653608303E+02  0.10724329945E+03  0.00000000000E+00 0. -1.
</event>
<event>
 8    1  0.7114239E-009  0.8804025E+02  0.7561462E-02  0.1307668E+00
          2   -1    0    0  501    0  0.00000000000E+00  0.00000000000E+00  0.92794465135E+02  0.92794465135E+02  0.00000000000E+00 0. -1.
         -2   -1    0    0    0  501 -0.00000000000E+00 -0.00000000000E+00 -0.17172449939E+03  0.17172449939E+03  0.00000000000E+00 0.  1.
         25    2    1    2    0    0  0.23870544817E+02  0.42434608713E+01  0.17028451318E+02  0.12855173410E+03  0.12509104811E+03 0.  0.
         23    2    1    2    0    0 -0.23870544817E+02 -0.42434608713E+01 -0.95958485577E+02  0.13596723043E+03  0.93226857322E+02 0.  0.
          5    1    3    3  502    0  0.47430416773E+02 -0.26085483137E+02  0.52923086815E+02  0.75818351233E+02  0.41800000000E+01 0.  1.
         -5    1    3    3    0  502 -0.23559871955E+02  0.30328944009E+02 -0.35894635497E+02  0.52733382868E+02  0.41800000000E+01 0.  1.
        -11    1    4    4    0    0 -0.46525817219E+02 -0.24662659337E+02 -0.90900489103E+02  0.10505140338E+03  0.00000000000E+00 0.  1.
         11    1    4    4    0    0  0.22655272402E+02  0.20419198466E+02 -0.50579964738E+01  0.30915827046E+02  0.00000000000E+00 0. -1.
</event>
<event>
 8    1  0.7114239E-009  0.1371410E+03  0.7561462E-02  0.1217229E+00
         -1   -1    0    0    0  501 -0.00000000000E+00  0.00000000000E+00  0.48551285616E+02  0.48551285616E+02  0.00000000000E+00 0.  1.
          1   -1    0    0  501    0  0.00000000000E+00 -0.00000000000E+00 -0.48725990085E+03  0.48725990085E+03  0.00000000000E+00 0. -1.
         25    2    1    2    0    0  0.39882483120E+02  0.10039645597E+03 -0.21153190690E+03  0.26844066382E+03  0.12507830158E+03 0.  0.
         23    2    1    2    0    0 -0.39882483120E+02 -0.10039645597E+03 -0.22717670833E+03  0.26737052265E+03  0.90596240208E+02 0.  0.
          5    1    3    3  502    0 -0.13956101274E+02 -0.21956197026E+02 -0.64544242879E+02  0.69715701527E+02  0.41800000000E+01 0. -1.
         -5    1    3    3    0  502  0.53838584393E+02  0.12235265299E+03 -0.14698766403E+03  0.19872496230E+03  0.41800000000E+01 0. -1.
        -11    1    4    4    0    0  0.13601219649E+01 -0.45547285397E+02 -0.17589458791E+03  0.18170115903E+03  0.00000000000E+00 0. -1.
         11    1    4    4    0    0 -0.41242605085E+02 -0.54849170571E+02 -0.51282120428E+02  0.85669363614E+02  0.00000000000E+00 0.  1.
</event>
<event>
 8    1  0.7114239E-009  0.1518192E+03  0.7561462E-02  0.1198255E+00
         -3   -1    0    0    0  501 -0.00000000000E+00  0.00000000000E+00  0.57046249072E+03  0.57046249072E+03  0.00000000000E+00 0.  1.
          3   -1    0    0  501    0  0.00000000000E+00 -0.00000000000E+00 -0.56951654103E+02  0.56951654103E+02  0.00000000000E+00 0. -1.
         25    2    1    2    0    0  0.57160017605E+02 -0.99814121951E+02  0.12218071207E+03  0.20929876001E+03  0.12509083894E+03 0.  0.
         23    2    1    2    0    0 -0.57160017605E+02  0.99814121951E+02  0.39133012455E+03  0.41811538482E+03  0.91929767133E+02 0.  0.
          5    1    3    3  502    0  0.56932703009E+02 -0.12217670179E+03  0.12787717511E+03  0.18584542890E+03  0.41800000000E+01 0. -1.
         -5    1    3    3    0  502  0.22731459569E+00  0.22362579836E+02 -0.56964630367E+01  0.23453331106E+02  0.41800000000E+01 0. -1.
        -11    1    4    4    0    0  0.71265956430E+01 -0.13776996449E+02  0.27370762218E+02  0.31460334089E+02  0.00000000000E+00 0. -1.
         11    1    4    4    0    0 -0.64286613248E+02  0.11359111840E+03  0.36395936233E+03  0.38665505073E+03  0.00000000000E+00 0.  1.
</event>
<event>
 8    1  0.7114239E-009  0.9515546E+02  0.7561462E-02  0.1290826E+00
          1   -1    0    0  501    0  0.00000000000E+00  0.00000000000E+00  0.16686705842E+03  0.16686705842E+03  0.00000000000E+00 0. -1.
         -1   -1    0    0    0  501 -0.00000000000E+00 -0.00000000000E+00 -0.22924552947E+03  0.22924552947E+03  0.00000000000E+00 0.  1.
         25    2    1    2    0    0  0.20731382605E+02  0.27446856464E+02  0.12802680892E+03  0.18226763808E+03  0.12508999934E+03 0.  0.
         23    2    1    2    0    0 -0.20731382605E+02 -0.27446856464E+02 -0.19040527997E+03  0.21384494980E+03  0.91062460775E+02 0.  0.
          5    1    3    3  502    0  0.22335691114E+02  0.58086732636E+02  0.13657529758E+03  0.15014405055E+03  0.41800000000E+01 0.  1.
         -5    1    3    3    0  502 -0.16043085096E+01 -0.30639876172E+02 -0.85484886606E+01  0.32123587533E+02  0.41800000000E+01 0.  1.
        -11    1    4    4    0    0 -0.31150642066E+02 -0.57373065888E+02 -0.11919702987E+03  0.13590424246E+03  0.00000000000E+00 0. -1.
         11    1    4    4    0    0  0.10419259461E+02  0.29926209424E+02 -0.71208250103E+02  0.77940707342E+02  0.00000000000E+00 0.  1.
</event>
<event>
 8    1  0.7114239E-009  0.1168707E+03  0.7561462E-02  0.1248351E+00
          2   -1    0    0  501    0  0.00000000000E+00  0.00000000000E+00  0.46049258109E+03  0.46049258109E+03  0.00000000000E+00 0. -1.
         -2   -1    0    0    0  501 -0.00000000000E+00 -0.00000000000E+00 -0.32458212729E+02  0.32458212729E+02  0.00000000000E+00 0.  1.
         25    2    1    2    0    0 -0.63353276646E+01  0.54021284371E+02  0.27731257799E+03  0.30904469955E+03  0.12509166585E+03 0.  0.
         23    2    1    2    0    0  0.63353276646E+01 -0.54021284371E+02  0.15072179037E+03  0.18390609427E+03  0.90254960396E+02 0.  0.
          5    1    3    3  502    0  0.47325415244E+02 -0.84670118348E+01  0.14801840637E+03  0.15568656410E+03  0.41800000000E+01 0. -1.
         -5    1    3    3    0  502 -0.53660742909E+02  0.62488296206E+02  0.12929417162E+03  0.15335813545E+03  0.41800000000E+01 0. -1.
        -11    1    4    4    0    0  0.46150549169E+02 -0.18732031329E+02  0.92356380725E+02  0.10493075453E+03  0.00000000000E+00 0.  1.
         11    1    4    4    0    0 -0.39815221505E+02 -0.35289253042E+02  0.58365409649E+02  0.78975339742E+02  0.00000000000E+00 0. -1.
</event>
<event>
 8    1  0.7114239E-009  0.1113338E+03  0.7561462E-02  0.1258120E+00
          1   -1    0    0  501    0  0.00000000000E+00  0.00000000000E+00  0.33593856865E+02  0.33593856865E+02  0.00000000000E+00 0. -1.
         -1   -1    0    0    0  501 -0.00000000000E+00 -0.00000000000E+00 -0.50675166999E+03  0.50675166999E+03  0.00000000000E+00 0.  1.
         25    2    1    2    0    0 -0.54365682657E+02  0.44189525788E+02 -0.27947731656E+03  0.31411137222E+03  0.12510012809E+03 0.  0.
         23    2    1    2    0    0  0.54365682657E+02 -0.44189525788E+02 -0.19368049657E+03  0.22623415464E+03  0.93602437642E+02 0.  0.
          5    1    3    3  502    0  0.11120734054E+02  0.41715072258E+02 -0.22471921379E+02  0.48849540734E+02  0.41800000000E+01 0. -1.
         -5    1    3    3    0  502 -0.65486416710E+02  0.24744535296E+01 -0.25700539518E+03  0.26526183149E+03  0.41800000000E+01 0. -1.
        -11    1    4    4    0    0  0.19827823015E+02  0.27587171799E+02 -0.84597636104E+02  0.91164437407E+02  0.00000000000E+00 0.  1.
         11    1    4    4    0    0  0.34537859641E+02 -0.71776697586E+02 -0.10908286047E+03  0.13506971723E+03  0.00000000000E+00 0. -1.
</event>
<event>
 8    1  0.7114239E-009  0.9050532E+02  0.7561462E-02  0.1301633E+00
         -2   -1    0    0    0  501 -0.00000000000E+00  0.00000000000E+00  0.30782781523E+02  0.30782781523E+02  0.00000000000E+00 0.  1.
          2   -1    0    0  501    0  0.00000000000E+00 -0.00000000000E+00 -0.61558903681E+03  0.61558903681E+03  0.00000000000E+00 0. -1.
         25    2    1    2    0    0  0.25130505476E+02  0.28326163093E+02 -0.49692868121E+03  0.51382772038E+03  0.12508756211E+03 0.  0.
         23    2    1    2    0    0 -0.25130505476E+02 -0.28326163093E+02 -0.87877574077E+02  0.13254409796E+03  0.91714535693E+02 0.  0.
          5    1    3    3  502    0 -0.40642672201E+02  0.42818946991E+02 -0.17000689841E+03  0.18001418536E+03  0.41800000000E+01 0. -1.
         -5    1    3    3    0  502  0.65773177677E+02 -0.14492783898E+02 -0.32692178280E+03  0.33381353501E+03  0.41800000000E+01 0. -1.
        -11    1    4    4    0    0 -0.18170291789E+02  0.61433641920E+01 -0.94785555745E+02  0.96706783656E+02  0.00000000000E+00 0. -1.
         11    1    4    4    0    0 -0.69602136876E+01 -0.34469527285E+02  0.69079816673E+01  0.35837314304E+02  0.00000000000E+00 0.  1.
</event>
<event>
 8    1  0.7114239E-009  0.1264393E+03  0.7561462E-02  0.1232837E+00
         -1   -1    0    0    0  501 -0.00000000000E+00  0.00000000000E+00  0.32995451557E+02  0.32995451557E+02  0.00000000000E+00 0.  1.
          1   -1    0    0  501    0  0.00000000000E+00 -0.00000000000E+00 -0.63590437370E+03  0.63590437370E+03  0.00000000000E+00 0. -1.
         25    2    1    2    0    0 -0.42322392647E+02  0.72281861314E+02 -0.42791672261E+03  0.45362560667E+03  0.12509043586E+03 0.  0.
         23    2    1    2    0    0  0.42322392647E+02 -0.72281861314E+02 -0.17499219953E+03  0.21527421859E+03  0.93299876184E+02 0.  0.
          5    1    3    3  502    0 -0.83124836294E+02  0.27665765098E+02 -0.21363182403E+03  0.23093540570E+03  0.41800000000E+01 0.  1.
         -5    1    3    3    0  502  0.40802443647E+02  0.44616096215E+02 -0.21428489857E+03  0.22269020096E+03  0.41800000000E+01 0.  1.
        -11    1    4    4    0    0  0.49460833464E+02 -0.22608900554E+02 -0.30580383636E+02  0.62391476137E+02  0.00000000000E+00 0.  1.
         11    1    4    4    0    0 -0.71384408169E+01 -0.49672960760E+02 -0.14441181590E+03  0.15288274245E+03  0.00000000000E+00 0. -1.
</event>
<event>
 8    1  0.7114239E-009  0.1987744E+03  0.7561462E-02  0.1150777E+00
          1   -1    0    0  501    0  0.00000000000E+00  0.00000000000E+00  0.35473929227E+03  0.35473929227E+03  0.00000000000E+00 0. -1.
         -1   -1    0    0    0  501 -0.00000000000E+00 -0.00000000000E+00 -0.13484831172E+03  0.13484831172E+03  0.00000000000E+00 0.  1.
         25    2    1    2    0    0  0.18129676569E+03  0.30442936303E+02  0.73386897601E+02  0.23415597959E+03  0.12509235154E+03 0.  0.
         23    2    1    2    0    0 -0.18129676569E+03 -0.30442936303E+02  0.14650408295E+03  0.25543162441E+03  0.99932871493E+02 0.  0.
          5    1    3    3  502    0  0.58560157405E+02  0.60937742026E+02 -0.59121138271E+01  0.84824088138E+02  0.41800000000E+01 0. -1.
         -5    1    3    3    0  502  0.12273660829E+03 -0.30494805722E+02  0.79299011428E+02  0.14933189145E+03  0.41800000000E+01 0. -1.
        -11    1    4    4    0    0 -0.16380834590E+03 -0.17713942514E+02  0.75559359010E+02  0.18126272281E+03  0.00000000000E+00 0.  1.
         11    1    4    4    0    0 -0.17488419794E+02 -0.12728993789E+02  0.70944723938E+02  0.74168901600E+02  0.00000000000E+00 0. -1.
</event>
<event>
 8    1  0.7114239E-009  0.1569592E+03  0.7561462E-02  0.1192173E+00
          2   -1    0    0  501    0  0.00000000000E+00  0.00000000000E+00  0.81325783367E+03  0.81325783367E+03  0.00000000000E+00 0. -1.
         -2   -1    0    0    0  501 -0.00000000000E+00 -0.00000000000E+00 -0.45159826135E+02  0.45159826135E+02  0.00000000000E+00 0.  1.
         25    2    1    2    0    0  0.13411032969E+03  0.80138726875E+02  0.35994269013E+03  0.41184226125E+03  0.12509001519E+03 0.  0.
         23    2    1    2    0    0 -0.13411032969E+03 -0.80138726875E+02  0.40815531740E+03  0.44657539855E+03  0.91820626181E+02 0.  0.
          5    1    3    3  502    0  0.86314034529E+02  0.62170689736E+02  0.97212023032E+02  0.14416295308E+03  0.41800000000E+01 0.  1.
         -5    1    3    3    0  502  0.47796295158E+02  0.17968037140E+02  0.26273066710E+03  0.26767930817E+03  0.41800000000E+01 0.  1.
        -11    1    4    4    0    0 -0.10159386906E+03 -0.60664034995E+02  0.18077646176E+03  0.21605917823E+03  0.00000000000E+00 0.  1.
         11    1    4    4    0    0 -0.32516460625E+02 -0.19474691880E+02  0.22737885564E+03  0.23051622032E+03  0.00000000000E+00 0. -1.
</event>
<event>
 8    1  0.7114239E-009  0.1603669E+03  0.7561462E-02  0.1188283E+00
         -2   -1    0    0    0  501 -0.00000000000E+00  0.00000000000E+00  0.71366741358E+02  0.71366741358E+02  0.00000000000E+00 0. -1.
          2   -1    0    0  501    0  0.00000000000E+00 -0.00000000000E+00 -0.50677742504E+03  0.50677742504E+03  0.00000000000E+00 0.  1.
         25    2    1    2    0    0 -0.14247334413E+03  0.27652618404E+02 -0.31494706478E+03  0.36864809157E+03  0.12508573345E+03 0.  0.
         23    2    1    2    0    0  0.14247334413E+03 -0.27652618404E+02 -0.12046361890E+03  0.20949607483E+03  0.91180046053E+02 0.  0.
          5    1    3    3  502    0 -0.76408991988E+02 -0.34043802228E+02 -0.22904552061E+03  0.24387832506E+03  0.41800000000E+01 0. -1.
         -5    1    3    3    0  502 -0.66064352139E+02  0.61696420632E+02 -0.85901544175E+02  0.12476976651E+03  0.41800000000E+01 0. -1.
        -11    1    4    4    0    0  0.14477670079E+02  0.32019165592E+01  0.14648079695E+02  0.20842779069E+02  0.00000000000E+00 0. -1.
         11    1    4    4    0    0  0.12799567405E+03 -0.30854534963E+02 -0.13511169860E+03  0.18865329576E+03  0.00000000000E+00 0.  1.
</event>
<event>
 8    1  0.7114239E-009  0.1682605E+03  0.7561462E-02  0.1179674E+00
          1   -1    0    0  501    0  0.00000000000E+00  0.00000000000E+00  0.12759841915E+04  0.12759841915E+04  0.00000000000E+00 0. -1.
         -1   -1    0    0    0  501 -0.00000000000E+00 -0.00000000000E+00 -0.26657730415E+02  0.26657730415E+02  0.00000000000E+00 0.  1.
         25    2    1    2    0    0  0.87917997832E+02  0.11752097125E+03  0.57937017986E+03  0.61062062137E+03  0.12508790871E+03 0.  0.
         23    2    1    2    0    0 -0.87917997832E+02 -0.11752097125E+03  0.66995628121E+03  0.69202130053E+03  0.92256753851E+02 0.  0.
          5    1    3    3  502    0  0.42343023506E+02 -0.59346703097E+01  0.28403042853E+03  0.28726104623E+03  0.41800000000E+01 0.  1.
         -5    1    3    3    0  502  0.45574974326E+02  0.12345564156E+03  0.29533975133E+03  0.32335957514E+03  0.41800000000E+01 0.  1.
        -11    1    4    4    0    0 -0.31659482410E+02 -0.96957863795E+02  0.53096277382E+03  0.54067052570E+03  0.00000000000E+00 0. -1.
         11    1    4    4    0    0 -0.56258515422E+02 -0.20563107453E+02  0.13899350739E+03  0.15135077483E+03  0.00000000000E+00 0.  1.
</event>
<event>
 8    1  0.7114239E-009  0.1186214E+03  0.7561462E-02  0.1245389E+00
         -1   -1    0    0    0  501 -0.00000000000E+00  0.00000000000E+00  0.57875678043E+03  0.57875678043E+03  0.00000000000E+00 0. -1.
          1   -1    0    0  501    0  0.00000000000E+00 -0.00000000000E+00 -0.31949187346E+02  0.31949187346E+02  0.00000000000E+00 0.  1.
         25    2    1    2    0    0  0.49021563468E+02 -0.42351196355E+02  0.17639184144E+03  0.22573937262E+03  0.12508974820E+03 0.  0.
         23    2    1    2    0    0 -0.49021563468E+02  0.42351196355E+02  0.37041575164E+03  0.38496659516E+03  0.82430047974E+02 0.  0.
          5    1    3    3  502    0  0.58412628925E+02 -0.76782617729E+02  0.15849605994E+03  0.18559654905E+03  0.41800000000E+01 0. -1.
         -5    1    3    3    0  502 -0.93910654574E+01  0.34431421374E+02  0.17895781509E+02  0.40142823569E+02  0.41800000000E+01 0. -1.
        -11    1    4    4    0    0  0.22668061081E+02  0.27259845977E+01  0.74101485334E+02  0.77539036065E+02  0.00000000000E+00 0.  1.
         11    1    4    4    0    0 -0.71689624549E+02  0.39625211758E+02  0.29631426630E+03  0.30742755909E+03  0.00000000000E+00 0. -1.
</event>
<event>
 8    1  0.7114239E-009  0.1240722E+03  0.7561462E-02  0.1236526E+00
         -1   -1    0    0    0  501 -0.00000000000E+00  0.00000000000E+00  0.16130901339E+02  0.16130901339E+02  0.00000000000E+00 0.  1.
          1   -1    0    0  501    0  0.00000000000E+00 -0.00000000000E+00 -0.99714424608E+03  0.99714424608E+03  0.00000000000E+00 0. -1.
         25    2    1    2    0    0  0.99248361852E+01 -0.64520511727E+02 -0.54905214546E+03  0.56689219195E+03  0.12508836895E+03 0.  0.
         23    2    1    2    0    0 -0.99248361852E+01  0.64520511727E+02 -0.43196119928E+03  0.44638295547E+03  0.91683512400E+02 0.  0.
          5    1    3    3  502    0  0.57254817492E+02 -0.72701162832E+02 -0.37681556106E+03  0.38803480856E+03  0.41800000000E+01 0. -1.
         -5    1    3    3    0  502 -0.47329981307E+02  0.81806511044E+01 -0.17223658441E+03  0.17885738338E+03  0.41800000000E+01 0. -1.
        -11    1    4    4    0    0 -0.46481485058E+02  0.22626758448E+02 -0.27617859779E+03  0.28097529522E+03  0.00000000000E+00 0. -1.
         11    1    4    4    0    0  0.36556648873E+02  0.41893753279E+02 -0.15578260149E+03  0.16540766025E+03  0.00000000000E+00 0.  1.
</event>
<event>
 8    1  0.7114239E-009  0.1361668E+03  0.7561462E-02  0.1218582E+00
          1   -1    0    0  501    0  0.00000000000E+00  0.00000000000E+00  0.24803290520E+03  0.24803290520E+03  0.00000000000E+00 0. -1.
         -1   -1    0    0    0  501 -0.00000000000E+00 -0.00000000000E+00 -0.97834297767E+02  0.97834297767E+02  0.00000000000E+00 0.  1.
         25    2    1    2    0    0 -0.10001076822E+03 -0.45544557341E+02  0.10244336856E+03  0.19549458707E+03  0.12508808636E+03 0.  0.
         23    2    1    2    0    0  0.10001076822E+03  0.45544557341E+02  0.47755238875E+02  0.15037261590E+03  0.90856481931E+02 0.  0.
          5    1    3    3  502    0 -0.38823445492E+02  0.21758588431E+02  0.93952259952E+02  0.10404420042E+03  0.41800000000E+01 0.  1.
         -5    1    3    3    0  502 -0.61187322731E+02 -0.67303145772E+02  0.84911086097E+01  0.91450386654E+02  0.41800000000E+01 0.  1.
        -11    1    4    4    0    0  0.48135049428E+02  0.65251284273E+02  0.67334870287E+01  0.81363707698E+02  0.00000000000E+00 0.  1.
         11    1    4    4    0    0  0.51875718794E+02 -0.19706726932E+02  0.41021751846E+02  0.69008908203E+02  0.00000000000E+00 0. -1.
</event>
<event>
 8    1  0.7114239E-009  0.3593140E+03  0.7561462E-02  0.1058856E+00
          2   -1    0    0  501    0  0.00000000000E+00  0.00000000000E+00  0.80118513356E+03  0.80118513356E+03  0.00000000000E+00 0. -1.
         -2   -1    0    0    0  501 -0.00000000000E+00 -0.00000000000E+00 -0.17532820889E+03  0.17532820889E+03  0.00000000000E+00 0.  1.
         25    2    1    2    0    0  0.33644579831E+03  0.86905728741E+02  0.20219734210E+03  0.42104067131E+03  0.12507238248E+03 0.  0.
         23    2    1    2    0    0 -0.33644579831E+03 -0.86905728741E+02  0.42365958256E+03  0.55547267114E+03  0.91181498096E+02 0.  0.
          5    1    3    3  502    0  0.30389628796E+03  0.11610525155E+03  0.18008956149E+03  0.37186436483E+03  0.41800000000E+01 0.  1.
         -5    1    3    3    0  502  0.32549510350E+02 -0.29199522804E+02  0.22107780615E+02  0.49176306487E+02  0.41800000000E+01 0.  1.
        -11    1    4    4    0    0 -0.13185885193E+03 -0.52343583440E+02  0.23786311855E+03  0.27695752513E+03  0.00000000000E+00 0. -1.
         11    1    4    4    0    0 -0.20458694638E+03 -0.34562145301E+02  0.18579646402E+03  0.27851514601E+03  0.00000000000E+00 0.  1.
</event>
<event>
 8    1  0.7114239E-009  0.9625343E+02  0.7561462E-02  0.1288378E+00
          1   -1    0    0  501    0  0.00000000000E+00  0.00000000000E+00  0.35818404976E+03  0.35818404976E+03  0.00000000000E+00 0. -1.
         -1   -1    0    0    0  501 -0.00000000000E+00 -0.00000000000E+00 -0.37897188352E+02  0.37897188352E+02  0.00000000000E+00 0.  1.
         25    2    1    2    0    0  0.36494901111E+02 -0.18145330281E+02  0.16647651295E+03  0.21218680825E+03  0.12509069276E+03 0.  0.
         23    2    1    2    0    0 -0.36494901111E+02  0.18145330281E+02  0.15381034846E+03  0.18389442986E+03  0.92186806112E+02 0.  0.
          5    1    3    3  502    0  0.59126984684E+02  0.28124522004E+02  0.43299652360E+02  0.78608659512E+02  0.41800000000E+01 0.  1.
         -5    1    3    3    0  502 -0.22632083573E+02 -0.46269852285E+02  0.12317686059E+03  0.13357814874E+03  0.41800000000E+01 0.  1.
        -11    1    4    4    0    0 -0.32568262756E+02  0.40813367210E+02  0.15211409063E+03  0.16082636367E+03  0.00000000000E+00 0. -1.
         11    1    4    4    0    0 -0.39266383554E+01 -0.22668036929E+02  0.16962578249E+01  0.23068066187E+02  0.00000000000E+00 0.  1.
</event>
<event>
 8    1  0.7114239E-009  0.1275513E+03  0.7561462E-02  0.1231135E+00
          2   -1    0    0  501    0  0.00000000000E+00  0.00000000000E+00  0.10968970764E+03  0.10968970764E+03  0.00000000000E+00 0. -1.
         -2   -1    0    0    0  501 -0.00000000000E+00 -0.00000000000E+00 -0.18525982230E+03  0.18525982230E+03  0.00000000000E+00 0.  1.
         25    2    1    2    0    0 -0.88541351639E+02  0.15814123127E+02 -0.36555776507E+02  0.15834964110E+03  0.12509447070E+03 0.  0.
         23    2    1    2    0    0  0.88541351639E+02 -0.15814123127E+02 -0.39014338149E+02  0.13659988884E+03  0.95119680461E+02 0.  0.
          5    1    3    3  502    0 -0.11809506075E+03 -0.17379343992E+01 -0.19604163869E+02  0.11979674216E+03  0.41800000000E+01 0.  1.
         -5    1    3    3    0  502  0.29553709113E+02  0.17552057526E+02 -0.16951612639E+02  0.38552898942E+02  0.41800000000E+01 0.  1.
        -11    1    4    4    0    0  0.44430526674E+02  0.16732046788E+02  0.23900739862E+02  0.53153348495E+02  0.00000000000E+00 0. -1.
         11    1    4    4    0    0  0.44110824965E+02 -0.32546169915E+02 -0.62915078011E+02  0.83446540350E+02  0.00000000000E+00 0.  1.
</event>
<event>
 8    1  0.7114239E-009  0.1115044E+03  0.7561462E-02  0.1257809E+00
         -4   -1    0    0    0  501 -0.00000000000E+00  0.00000000000E+00  0.82614524428E+02  0.82614524428E+02  0.00000000000E+00 0.  1.
          4   -1    0    0  501    0  0.00000000000E+00 -0.00000000000E+00 -0.18566178575E+03  0.18566178575E+03  0.00000000000E+00 0. -1.
         25    2    1    2    0    0 -0.17665362827E+02  0.33125633690E+02 -0.91566288966E+01  0.13092152468E+03  0.12508888489E+03 0.  0.
         23    2    1    2    0    0  0.17665362827E+02 -0.33125633690E+02 -0.93890632428E+02  0.13735478550E+03  0.92959741768E+02 0.  0.
          5    1    3    3  502    0  0.35301036410E+02  0.55330603255E+02  0.16616804235E+02  0.67832362565E+02  0.41800000000E+01 0. -1.
         -5    1    3    3    0  502 -0.52966399237E+02 -0.22204969565E+02 -0.25773433132E+02  0.63089162120E+02  0.41800000000E+01 0. -1.
        -11    1    4    4    0    0  0.15478804218E+02  0.31446465527E+02 -0.26044348702E+02  0.43666711274E+02  0.00000000000E+00 0. -1.
         11    1    4    4    0    0  0.21865586098E+01 -0.64572099218E+02 -0.67846283725E+02  0.93688074221E+02  0.00000000000E+00 0.  1.
</event>
<event>
 8    1  0.7114239E-009  0.1284983E+03  0.7561462E-02  0.1229701E+00
          2   -1    0    0  501    0  0.00000000000E+00  0.00000000000E+00  0.10682634556E+04  0.10682634556E+04  0.00000000000E+00 0. -1.
         -2   -1    0    0    0  501 -0.00000000000E+00 -0.00000000000E+00 -0.17094172596E+02  0.17094172596E+02  0.00000000000E+00 0.  1.
         25    2    1    2    0    0  0.63755366473E+02 -0.38688869744E+02  0.59651372515E+03  0.61403298645E+03  0.12508520600E+03 0.  0.
         23    2    1    2    0    0 -0.63755366473E+02  0.38688869744E+02  0.45465555783E+03  0.47132464172E+03  0.99366323428E+02 0.  0.
          5    1    3    3  502    0  0.87290024475E+02 -0.55544229226E+02  0.32863455133E+03  0.34456182392E+03  0.41800000000E+01 0. -1.
         -5    1    3    3    0  502 -0.23534658001E+02  0.16855359482E+02  0.26787917382E+03  0.26947116254E+03  0.41800000000E+01 0. -1.
        -11    1    4    4    0    0 -0.56993664294E+02 -0.23497509702E+02  0.21982300842E+03  0.22830367006E+03  0.00000000000E+00 0.  1.
         11    1    4    4    0    0 -0.67617021795E+01  0.62186379446E+02  0.23483254941E+03  0.24302097166E+03  0.00000000000E+00 0. -1.
</event>
<event>
 8    1  0.7114239E-009  0.1063478E+03  0.7561462E-02  0.1267487E+00
         -2   -1    0    0    0  501 -0.00000000000E+00  0.00000000000E+00  0.74499646052E+02  0.74499646052E+02  0.00000000000E+00 0.  1.
          2   -1    0    0  501    0  0.00000000000E+00 -0.00000000000E+00 -0.17168257788E+03  0.17168257788E+03  0.00000000000E+00 0. -1.
         25    2    1    2    0    0  0.64928548045E+01  0.27796465480E+02 -0.64467079177E+02  0.14359012600E+03  0.12508924546E+03 0.  0.
         23    2    1    2    0    0 -0.64928548045E+01 -0.27796465480E+02 -0.32715852654E+02  0.10259209794E+03  0.92951658878E+02 0.  0.
          5    1    3    3  502    0 -0.52284982391E+02  0.32458957296E+02 -0.86421319512E+01  0.62285328425E+02  0.41800000000E+01 0.  1.
         -5    1    3    3    0  502  0.58777837195E+02 -0.46624918161E+01 -0.55824947226E+02  0.81304797571E+02  0.41800000000E+01 0.  1.
        -11    1    4    4    0    0 -0.57561292340E+01  0.31792196544E+02 -0.28101990437E+02  0.42820540064E+02  0.00000000000E+00 0. -1.
         11    1    4    4    0    0 -0.73672557056E+00 -0.59588662024E+02 -0.46138622168E+01  0.59771557876E+02  0.00000000000E+00 0.  1.
</event>
<event>
 8    1  0.7114239E-009  0.1375938E+03  0.7561462E-02  0.1216604E+00
         -2   -1    0    0    0  501 -0.00000000000E+00  0.00000000000E+00  0.17684640367E+04  0.17684640367E+04  0.00000000000E+00 0.  1.
          2   -1    0    0  501    0  0.00000000000E+00 -0.00000000000E+00 -0.15820225643E+02  0.15820225643E+02  0.00000000000E+00 0. -1.
         25    2    1    2    0    0  0.43655469275E+02  0.72080035695E+02  0.14325627671E+04  0.14404805355E+04  0.12508700949E+03 0.  0.
         23    2    1    2    0    0 -0.43655469275E+02 -0.72080035695E+02  0.32008104397E+03  0.34380372686E+03  0.92993528510E+02 0.  0.
          5    1    3    3  502    0  0.39241636303E+02  0.10711098100E+03  0.11615588032E+04  0.11671542289E+04  0.41800000000E+01 0. -1.
         -5    1    3    3    0  502  0.44138329721E+01 -0.35030945308E+02  0.27100396388E+03  0.27332630662E+03  0.41800000000E+01 0. -1.
        -11    1    4    4    0    0 -0.66526986740E+01 -0.85771421852E+02  0.21722494552E+03  0.23364004828E+03  0.00000000000E+00 0.  1.
         11    1    4    4    0    0 -0.37002770601E+02  0.13691386157E+02  0.10285609845E+03  0.11016367857E+03  0.00000000000E+00 0. -1.
</event>
<event>
 8    1  0.7114239E-009  0.9959760E+02  0.7561462E-02  0.1281144E+00
          3   -1    0    0  501    0  0.00000000000E+00  0.00000000000E+00  0.26413926845E+03  0.26413926845E+03  0.00000000000E+00 0. -1.
         -3   -1    0    0    0  501 -0.00000000000E+00 -0.00000000000E+00 -0.66915603593E+02  0.66915603593E+02  0.00000000000E+00 0.  1.
         25    2    1    2    0    0 -0.82918386314E+02 -0.74235563757E+01  0.10586074484E+03  0.18380603458E+03  0.12509033965E+03 0.  0.
         23    2    1    2    0    0  0.82918386314E+02  0.74235563757E+01  0.91362920025E+02  0.14724883746E+03  0.80027926382E+02 0.  0.
          5    1    3    3  502    0 -0.33300179312E+02 -0.26559102546E+02  0.12100728586E+03  0.12835312034E+03  0.41800000000E+01 0. -1.
         -5    1    3    3    0  502 -0.49618207002E+02  0.19135546170E+02 -0.15146541021E+02  0.55452914245E+02  0.41800000000E+01 0. -1.
        -11    1    4    4    0    0  0.25871410523E+02  0.31817370109E+02  0.70922514583E+02  0.81924831387E+02  0.00000000000E+00 0. -1.
         11    1    4    4    0    0  0.57046975791E+02 -0.24393813733E+02  0.20440405443E+02  0.65324006078E+02  0.00000000000E+00 0.  1.
</event>
<event>
 8    1  0.7114239E-009  0.1836117E+03  0.7561462E-02  0.1164353E+00
         -2   -1    0    0    0  501 -0.00000000000E+00  0.00000000000E+00  0.18913877123E+03  0.18913877123E+03  0.00000000000E+00 0.  1.
          2   -1    0    0  501    0  0.00000000000E+00 -0.00000000000E+00 -0.23753704864E+03  0.23753704864E+03  0.00000000000E+00 0. -1.
         25    2    1    2    0    0  0.16962263465E+03  0.19101207565E+02 -0.88387155294E+02  0.22933699432E+03  0.12508586421E+03 0.  0.
         23    2    1    2    0    0 -0.16962263465E+03 -0.19101207565E+02  0.39988877892E+02  0.19733882555E+03  0.90591431153E+02 0.  0.
          5    1    3    3  502    0  0.76038148396E+02 -0.33512763910E+02 -0.89081386138E+02  0.12189286736E+03  0.41800000000E+01 0.  1.
         -5    1    3    3    0  502  0.93584486255E+02  0.52613971474E+02  0.69423084349E+00  0.10744412696E+03  0.41800000000E+01 0.  1.
        -11    1    4    4    0    0 -0.29349468943E+02  0.13904795963E+02  0.42160086386E+02  0.53218488912E+02  0.00000000000E+00 0.  1.
         11    1    4    4    0    0 -0.14027316571E+03 -0.33006003528E+02 -0.21712084943E+01  0.14412033664E+03  0.00000000000E+00 0. -1.
</event>
<event>
 8    1  0.7114239E-009  0.5638338E+02  0.7561462E-02  0.1413668E+00
         -2   -1    0    0    0  501 -0.00000000000E+00  0.00000000000E+00  0.32544186221E+02  0.32544186221E+02  0.00000000000E+00 0.  1.
          2   -1    0    0  501    0  0.00000000000E+00 -0.00000000000E+00 -0.40829270416E+03  0.40829270416E+03  0.00000000000E+00 0. -1.
         25    2    1    2    0    0 -0.18211961042E+01 -0.93635124574E+01 -0.13998451360E+03  0.18797476687E+03  0.12509139384E+03 0.  0.
         23    2    1    2    0    0  0.18211961042E+01  0.93635124574E+01 -0.23576400435E+03  0.25286212352E+03  0.90904321363E+02 0.  0.
          5    1    3    3  502    0 -0.46896811063E+01 -0.13465108849E+02  0.21622847051E+02  0.26235894873E+02  0.41800000000E+01 0. -1.
         -5    1    3    3    0  502  0.28684850021E+01  0.41015963912E+01 -0.16160736065E+03  0.16173887200E+03  0.41800000000E+01 0. -1.
        -11    1    4    4    0    0 -0.41131781594E+02  0.21957958043E+02 -0.12266431322E+03  0.13122693746E+03  0.00000000000E+00 0.  1.
         11    1    4    4    0    0  0.42952977699E+02 -0.12594445586E+02 -0.11309969113E+03  0.12163518605E+03  0.00000000000E+00 0. -1.
</event>
<event>
 8    1  0.7114239E-009  0.9320562E+02  0.7561462E-02  0.1295269E+00
         -2   -1    0    0    0  501 -0.00000000000E+00  0.00000000000E+00  0.12585880690E+02  0.12585880690E+02  0.00000000000E+00 0. -1.
          2   -1    0    0  501    0  0.00000000000E+00 -0.00000000000E+00 -0.11918842380E+04  0.11918842380E+04  0.00000000000E+00 0.  1.
         25    2    1    2    0    0 -0.28305472676E+02 -0.35568532997E+02 -0.82588129608E+03  0.83653658521E+03  0.12508885983E+03 0.  0.
         23    2    1    2    0    0  0.28305472676E+02  0.35568532997E+02 -0.35341706121E+03  0.36793353346E+03  0.91679580975E+02 0.  0.
          5    1    3    3  502    0  0.19725010002E+02  0.54116610881E+01 -0.22599127039E+02  0.30766134600E+02  0.41800000000E+01 0. -1.
         -5    1    3    3    0  502 -0.48030482678E+02 -0.40980194085E+02 -0.80328216904E+03  0.80577045061E+03  0.41800000000E+01 0. -1.
        -11    1    4    4    0    0  0.39881705890E+02  0.61820311067E+02 -0.24799427318E+03  0.25867636316E+03  0.00000000000E+00 0.  1.
         11    1    4    4    0    0 -0.11576233214E+02 -0.26251778069E+02 -0.10542278803E+03  0.10925717031E+03  0.00000000000E+00 0. -1.
</event>
<event>
 8    1  0.7114239E-009  0.1861186E+03  0.7561462E-02  0.1162009E+00
         -2   -1    0    0    0  501 -0.00000000000E+00  0.00000000000E+00  0.58461626545E+02  0.58461626545E+02  0.00000000000E+00 0.  1.
          2   -1    0    0  501    0  0.00000000000E+00 -0.00000000000E+00 -0.79897455742E+03  0.79897455742E+03  0.00000000000E+00 0. -1.
         25    2    1    2    0    0 -0.15227194995E+03  0.80882218290E+02 -0.52734669261E+03  0.56874482030E+03  0.12508979348E+03 0.  0.
         23    2    1    2    0    0  0.15227194995E+03 -0.80882218290E+02 -0.21316623826E+03  0.28869136366E+03  0.90411162690E+02 0.  0.
          5    1    3    3  502    0 -0.11936042029E+02  0.22072946612E+02 -0.67053821136E+01  0.26308147421E+02  0.41800000000E+01 0.  1.
         -5    1    3    3    0  502 -0.14033590793E+03  0.58809271678E+02 -0.52064131050E+03  0.54243667288E+03  0.41800000000E+01 0.  1.
        -11    1    4    4    0    0  0.38412344074E+02  0.19239581413E+02 -0.43176007073E+02  0.60908433381E+02  0.00000000000E+00 0.  1.
         11    1    4    4    0    0  0.11385960588E+03 -0.10012179970E+03 -0.16999023119E+03  0.22778293028E+03  0.00000000000E+00 0. -1.
</event>
<event>
 8    1  0.7114239E-009  0.1282824E+03  0.7561462E-02  0.1230027E+00
         -2   -1    0    0    0  501 -0.00000000000E+00  0.00000000000E+00  0.36353413821E+02  0.36353413821E+02  0.00000000000E+00 0.  1.
          2   -1    0    0  501    0  0.00000000000E+00 -0.00000000000E+00 -0.53153630149E+03  0.53153630149E+03  0.00000000000E+00 0. -1.
         25    2    1    2    0    0 -0.27037780963E+02 -0.80472515367E+02 -0.23001720010E+03  0.27525540987E+03  0.12510300153E+03 0.  0.
         23    2    1    2    0    0  0.27037780963E+02  0.80472515367E+02 -0.26516568756E+03  0.29263430544E+03  0.90084002620E+02 0.  0.
          5    1    3    3  502    0  0.21241305717E+02  0.25151766886E+02 -0.70254434613E+02  0.77697892049E+02  0.41800000000E+01 0.  1.
         -5    1    3    3    0  502 -0.48279086680E+02 -0.10562428225E+03 -0.15976276549E+03  0.19755751783E+03  0.41800000000E+01 0.  1.
        -11    1    4    4    0    0  0.48856780969E+02  0.58229913387E+02 -0.24242031847E+03  0.25405770736E+03  0.00000000000E+00 0. -1.
         11    1    4    4    0    0 -0.21819000007E+02  0.22242601979E+02 -0.22745369089E+02  0.38576598076E+02  0.00000000000E+00 0.  1.
</event>
<event>
 8    1  0.7114239E-009  0.1067262E+03  0.7561462E-02  0.1266755E+00
         -2   -1    0    0    0  501 -0.00000000000E+00  0.00000000000E+00  0.60757293364E+03  0.60757293364E+03  0.00000000000E+00 0. -1.
          2   -1    0    0  501    0  0.00000000000E+00 -0.00000000000E+00 -0.21826670667E+02  0.21826670667E+02  0.00000000000E+00 0.  1.
         25    2    1    2    0    0  0.43359598345E+02  0.71908788170E+01  0.34631475030E+03  0.37082905718E+03  0.12509404407E+03 0.  0.
         23    2    1    2    0    0 -0.43359598345E+02 -0.71908788170E+01  0.23943151267E+03  0.25857054713E+03  0.87175197609E+02 0.  0.
          5    1    3    3  502    0 -0.31182595605E+02 -0.21056475000E+02  0.43485393463E+02  0.57655713097E+02  0.41800000000E+01 0.  1.
         -5    1    3    3    0  502  0.74542193951E+02  0.28247353817E+02  0.30282935684E+03  0.31317334408E+03  0.41800000000E+01 0.  1.
        -11    1    4    4    0    0 -0.52685137770E+02  0.27791843931E+02  0.12344484106E+03  0.13706472601E+03  0.00000000000E+00 0.  1.
         11    1    4    4    0    0  0.93255394249E+01 -0.34982722748E+02  0.11598667160E+03  0.12150582112E+03  0.00000000000E+00 0. -1.
</event>
<event>
 8    1  0.7114239E-009  0.8207848E+02  0.7561462E-02  0.1323254E+00
         -2   -1    0    0    0  501 -0.00000000000E+00  0.00000000000E+00  0.49090620018E+02  0.49090620018E+02  0.00000000000E+00 0. -1.
          2   -1    0    0  501    0  0.00000000000E+00 -0.00000000000E+00 -0.33648731109E+03  0.33648731109E+03  0.00000000000E+00 0.  1.
         25    2    1    2    0    0 -0.10594929860E+02 -0.41906743037E+02 -0.24165386020E+03  0.27552237799E+03  0.12509022732E+03 0.  0.
         23    2    1    2    0    0  0.10594929860E+02  0.41906743037E+02 -0.45742830871E+02  0.11005555312E+03  0.90285051621E+02 0.  0.
          5    1    3    3  502    0 -0.25373812517E+02 -0.69501970074E+01  0.39840126916E+01  0.26934742568E+02  0.41800000000E+01 0. -1.
         -5    1    3    3    0  502  0.14778882657E+02 -0.34956546029E+02 -0.24563787290E+03  0.24858763542E+03  0.41800000000E+01 0. -1.
        -11    1    4    4    0    0 -0.29838259265E+02  0.49881354591E+02 -0.33387177940E+02  0.67031148749E+02  0.00000000000E+00 0. -1.
         11    1    4    4    0    0  0.40433189125E+02 -0.79746115545E+01 -0.12355652930E+02  0.43024404372E+02  0.00000000000E+00 0.  1.
</event>
<event>
 8    1  0.7114239E-009  0.1001623E+03  0.7561462E-02  0.1279955E+00
         -3   -1    0    0    0  501 -0.00000000000E+00  0.00000000000E+00  0.55125746606E+02  0.55125746606E+02  0.00000000000E+00 0.  1.
          3   -1    0    0  501    0  0.00000000000E+00 -0.00000000000E+00 -0.21435290172E+03  0.21435290172E+03  0.00000000000E+00 0. -1.
         25    2    1    2    0    0 -0.19013310481E+01  0.10621038225E+02 -0.78870219919E+02  0.14828690636E+03  0.12510824711E+03 0.  0.
         23    2    1    2    0    0  0.19013310481E+01 -0.10621038225E+02 -0.80356935197E+02  0.12119174197E+03  0.90076521771E+02 0.  0.
          5    1    3    3  502    0  0.20065023872E+02  0.55702075156E+02 -0.58975190976E+01  0.59645448202E+02  0.41800000000E+01 0. -1.
         -5    1    3    3    0  502 -0.21966354921E+02 -0.45081036930E+02 -0.72972700822E+02  0.88641458158E+02  0.41800000000E+01 0. -1.
        -11    1    4    4    0    0  0.45118342828E+02  0.33182608893E+01 -0.37709218078E+02  0.58895338041E+02  0.00000000000E+00 0. -1.
         11    1    4    4    0    0 -0.43217011779E+02 -0.13939299115E+02 -0.42647717118E+02  0.62296403928E+02  0.00000000000E+00 0.  1.
</event>
<event>
 8    1  0.7114239E-009  0.1207504E+03  0.7561462E-02  0.1241864E+00
          1   -1    0    0  501    0  0.00000000000E+00  0.00000000000E+00  0.53401792455E+02  0.53401792455E+02  0.00000000000E+00 0. -1.
         -1   -1    0    0    0  501 -0.00000000000E+00 -0.00000000000E+00 -0.39869153641E+03  0.39869153641E+03  0.00000000000E+00 0.  1.
         25    2    1    2    0    0 -0.74625263047E+02 -0.56080741701E+02 -0.22981933672E+03  0.27780990692E+03  0.12508971732E+03 0.  0.
         23    2    1    2    0    0  0.74625263047E+02  0.56080741701E+02 -0.11547040724E+03  0.17428342194E+03  0.91254132741E+02 0.  0.
          5    1    3    3  502    0  0.13266361361E+02  0.67701375931E+01 -0.12914118881E+03  0.13006440772E+03  0.41800000000E+01 0.  1.
         -5    1    3    3    0  502 -0.87891624408E+02 -0.62850879294E+02 -0.10067814790E+03  0.14774549920E+03  0.41800000000E+01 0.  1.
        -11    1    4    4    0    0  0.61960369851E+02  0.16165851503E+01 -0.22784947820E+02  0.66036767234E+02  0.00000000000E+00 0. -1.
         11    1    4    4    0    0  0.12664893196E+02  0.54464156551E+02 -0.92685459416E+02  0.10824665471E+03  0.00000000000E+00 0.  1.
</event>
<event>
 8    1  0.7114239E-009  0.1705111E+03  0.7561462E-02  0.1177316E+00
          2   -1    0    0  501    0  0.00000000000E+00  0.00000000000E+00  0.17015166646E+04  0.17015166646E+04  0.00000000000E+00 0.  1.
         -2   -1    0    0    0  501 -0.00000000000E+00 -0.00000000000E+00 -0.33416075325E+02  0.33416075325E+02  0.00000000000E+00 0. -1.
         25    2    1    2    0    0  0.29898502062E+02  0.13945420400E+03  0.14348961824E+04  0.14473819795E+04  0.12508455113E+03 0.  0.
         23    2    1    2    0    0 -0.29898502062E+02 -0.13945420400E+03  0.23320440696E+03  0.28755076050E+03  0.89217425405E+02 0.  0.
          5    1    3    3  502    0  0.73947136795E+02  0.99299195992E+02  0.11231772086E+04  0.11299880635E+04  0.41800000000E+01 0. -1.
         -5    1    3    3    0  502 -0.44048634733E+02  0.40155008006E+02  0.31171897375E+03  0.31739391596E+03  0.41800000000E+01 0. -1.
        -11    1    4    4    0    0 -0.51409032383E+02 -0.95564177008E+02  0.10780280499E+03  0.15296027361E+03  0.00000000000E+00 0. -1.
         11    1    4    4    0    0  0.21510530321E+02 -0.43890026990E+02  0.12540160197E+03  0.13459048689E+03  0.00000000000E+00 0.  1.
</event>
<event>
 8    1  0.7114239E-009  0.1012024E+03  0.7561462E-02  0.1277788E+00
          1   -1    0    0  501    0  0.00000000000E+00  0.00000000000E+00  0.38232592923E+03  0.38232592923E+03  0.00000000000E+00 0. -1.
         -1   -1    0    0    0  501 -0.00000000000E+00 -0.00000000000E+00 -0.38056409321E+02  0.38056409321E+02  0.00000000000E+00 0.  1.
         25    2    1    2    0    0 -0.44540469233E+00 -0.36346089790E+02  0.12906537997E+03  0.18338319716E+03  0.12510111136E+03 0.  0.
         23    2    1    2    0    0  0.44540469233E+00  0.36346089790E+02  0.21520413994E+03  0.23699914139E+03  0.92382544601E+02 0.  0.
          5    1    3    3  502    0  0.91769731828E+01  0.33876055177E+02  0.10105228242E+03  0.10705531343E+03  0.41800000000E+01 0. -1.
         -5    1    3    3    0  502 -0.96223778752E+01 -0.70222144967E+02  0.28013097549E+02  0.76327883726E+02  0.41800000000E+01 0. -1.
        -11    1    4    4    0    0  0.10871772970E+02 -0.28435540015E+02  0.98700688746E+02  0.10328892168E+03  0.00000000000E+00 0. -1.
         11    1    4    4    0    0 -0.10426368278E+02  0.64781629806E+02  0.11650345119E+03  0.13371021971E+03  0.00000000000E+00 0.  1.
</event>
<event>
 8    1  0.7114239E-009  0.1118637E+03  0.7561462E-02  0.1257157E+00
         -1   -1    0    0    0  501 -0.00000000000E+00  0.00000000000E+00  0.69176812346E+02  0.69176812346E+02  0.00000000000E+00 0.  1.
          1   -1    0    0  501    0  0.00000000000E+00 -0.00000000000E+00 -0.23767413073E+03  0.23767413073E+03  0.00000000000E+00 0. -1.
         25    2    1    2    0    0  0.12935173436E+02 -0.59399008254E+02 -0.13036267763E+03  0.19062778607E+03  0.12509582012E+03 0.  0.
         23    2    1    2    0    0 -0.12935173436E+02  0.59399008254E+02 -0.38134640763E+02  0.11622315701E+03  0.91422155446E+02 0.  0.
          5    1    3    3  502    0 -0.73916098818E+01  0.29935359907E+02 -0.80349866120E+02  0.86164581209E+02  0.41800000000E+01 0. -1.
         -5    1    3    3    0  502  0.20326783318E+02 -0.89334368161E+02 -0.50012811505E+02  0.10446320486E+03  0.41800000000E+01 0. -1.
        -11    1    4    4    0    0 -0.41963278855E+02  0.92763949730E+01 -0.39377079103E+02  0.58288271845E+02  0.00000000000E+00 0.  1.
         11    1    4    4    0    0  0.29028105419E+02  0.50122613281E+02  0.12424383406E+01  0.57934885167E+02  0.00000000000E+00 0. -1.
</event>
<event>
 8    1  0.7114239E-009  0.1144882E+03  0.7561462E-02  0.1252477E+00
         -2   -1    0    0    0  501 -0.00000000000E+00  0.00000000000E+00  0.10155282740E+03  0.10155282740E+03  0.00000000000E+00 0.  1.
          2   -1    0    0  501    0  0.00000000000E+00 -0.00000000000E+00 -0.13573465777E+03  0.13573465777E+03  0.00000000000E+00 0. -1.
         25    2    1    2    0    0 -0.27360065749E+01 -0.43930323012E+02 -0.24211252705E+02  0.13480358742E+03  0.12509381844E+03 0.  0.
         23    2    1    2    0    0  0.27360065749E+01  0.43930323012E+02 -0.99705776646E+01  0.10248389774E+03  0.92011835463E+02 0.  0.
          5    1    3    3  502    0  0.35993591425E+02  0.27751864465E+02 -0.27261460057E+02  0.53163560917E+02  0.41800000000E+01 0. -1.
         -5    1    3    3    0  502 -0.38729598000E+02 -0.71682187477E+02  0.30502073522E+01  0.81640026504E+02  0.41800000000E+01 0. -1.
        -11    1    4    4    0    0  0.36415156180E+02 -0.10362747037E+02 -0.27652304583E+00  0.37861941191E+02  0.00000000000E+00 0.  1.
         11    1    4    4    0    0 -0.33679149605E+02  0.54293070049E+02 -0.96940546188E+01  0.64621956550E+02  0.00000000000E+00 0. -1.
</event>
<event>
 8    1  0.7114239E-009  0.1556141E+03  0.7561462E-02  0.1193739E+00
          3   -1    0    0  501    0  0.00000000000E+00  0.00000000000E+00  0.24580426616E+03  0.24580426616E+03  0.00000000000E+00 0. -1.
         -3   -1    0    0    0  501 -0.00000000000E+00 -0.00000000000E+00 -0.11593057531E+03  0.11593057531E+03  0.00000000000E+00 0.  1.
         25    2    1    2    0    0 -0.11986668192E+03 -0.52703048422E+02  0.69534637337E+02  0.19397331138E+03  0.12507976251E+03 0.  0.
         23    2    1    2    0    0  0.11986668192E+03  0.52703048422E+02  0.60339053514E+02  0.16776153009E+03  0.85775852372E+02 0.  0.
          5    1    3    3  502    0 -0.19397926049E+02 -0.50390416199E+02 -0.21541619283E+02  0.58283679885E+02  0.41800000000E+01 0.  1.
         -5    1    3    3    0  502 -0.10046875588E+03 -0.23126322234E+01  0.91076256620E+02  0.13568963149E+03  0.41800000000E+01 0.  1.
        -11    1    4    4    0    0  0.45274137276E+02 -0.22508729620E+02  0.21391669140E+02  0.54899853586E+02  0.00000000000E+00 0.  1.
         11    1    4    4    0    0  0.74592544648E+02  0.75211778042E+02  0.38947384374E+02  0.11286167650E+03  0.00000000000E+00 0. -1.
</event>
<event>
 8    1  0.7114239E-009  0.1087919E+03  0.7561462E-02  0.1262824E+00
          1   -1    0    0  501    0  0.00000000000E+00  0.00000000000E+00  0.31290979507E+03  0.31290979507E+03  0.00000000000E+00 0. -1.
         -1   -1    0    0    0  501 -0.00000000000E+00 -0.00000000000E+00 -0.55522883865E+02  0.55522883865E+02  0.00000000000E+00 0.  1.
         25    2    1    2    0    0  0.75487432804E+02  0.16497955065E+01  0.12985064453E+03  0.19546786030E+03  0.12508165408E+03 0.  0.
         23    2    1    2    0    0 -0.75487432804E+02 -0.16497955065E+01  0.12753626667E+03  0.17296481864E+03  0.89164201520E+02 0.  0.
          5    1    3    3  502    0 -0.20925337889E+02  0.10874271587E+02  0.85628350174E+02  0.88914601173E+02  0.41800000000E+01 0. -1.
         -5    1    3    3    0  502  0.96412770693E+02 -0.92244760802E+01  0.44222294358E+02  0.10655325912E+03  0.41800000000E+01 0. -1.
        -11    1    4    4    0    0 -0.33852658007E+01 -0.21612536908E+02  0.83138190520E+02  0.85968136534E+02  0.00000000000E+00 0. -1.
         11    1    4    4    0    0 -0.72102167003E+02  0.19962741402E+02  0.44398076152E+02  0.86996682103E+02  0.00000000000E+00 0.  1.
</event>
<event>
 8    1  0.7114239E-009  0.1069321E+03  0.7561462E-02  0.1266359E+00
         -3   -1    0    0    0  501 -0.00000000000E+00  0.00000000000E+00  0.21246592052E+02  0.21246592052E+02  0.00000000000E+00 0. -1.
          3   -1    0    0  501    0  0.00000000000E+00 -0.00000000000E+00 -0.66279908982E+03  0.66279908982E+03  0.00000000000E+00 0.  1.
         25    2    1    2    0    0 -0.79633278109E+01  0.49541097376E+02 -0.39529067975E+03  0.41763599664E+03  0.12508944510E+03 0.  0.
         23    2    1    2    0    0  0.79633278109E+01 -0.49541097376E+02 -0.24626181802E+03  0.26640968523E+03  0.88382704483E+02 0.  0.
          5    1    3    3  502    0 -0.58001678967E+02  0.35261417346E+02 -0.12454177922E+03  0.14190028008E+03  0.41800000000E+01 0.  1.
         -5    1    3    3    0  502  0.50038351156E+02  0.14279680030E+02 -0.27074890053E+03  0.27573571656E+03  0.41800000000E+01 0.  1.
        -11    1    4    4    0    0 -0.21666441393E+01 -0.70416397087E+02 -0.22168537035E+03  0.23261033243E+03  0.00000000000E+00 0.  1.
         11    1    4    4    0    0  0.10129971950E+02  0.20875299711E+02 -0.24576447666E+02  0.33799352799E+02  0.00000000000E+00 0. -1.
</event>
<event>
 8    1  0.7114239E-009  0.9480206E+02  0.7561462E-02  0.1291623E+00
          3   -1    0    0  501    0  0.00000000000E+00  0.00000000000E+00  0.35971295292E+03  0.35971295292E+03  0.00000000000E+00 0. -1.
         -3   -1    0    0    0  501 -0.00000000000E+00 -0.00000000000E+00 -0.49170637668E+02  0.49170637668E+02  0.00000000000E+00 0.  1.
         25    2    1    2    0    0 -0.76636304768E+02 -0.44511828115E+01  0.15640211005E+03  0.21448229304E+03  0.12509235693E+03 0.  0.
         23    2    1    2    0    0  0.76636304768E+02  0.44511828115E+01  0.15414020520E+03  0.19440129755E+03  0.90220426689E+02 0.  0.
          5    1    3    3  502    0 -0.34625519283E+02  0.10200410802E+02  0.16501748812E+03  0.16897105891E+03  0.41800000000E+01 0.  1.
         -5    1    3    3    0  502 -0.42010785484E+02 -0.14651593614E+02 -0.86153780673E+01  0.45511234126E+02  0.41800000000E+01 0.  1.
        -11    1    4    4    0    0  0.39447080372E+02 -0.36159050402E+02  0.37281549720E+02  0.65218578836E+02  0.00000000000E+00 0. -1.
         11    1    4    4    0    0  0.37189224396E+02  0.40610233214E+02  0.11685865548E+03  0.12918271871E+03  0.00000000000E+00 0.  1.
</event>
<event>
 8    1  0.7114239E-009  0.1043593E+03  0.7561462E-02  0.1271387E+00
         -2   -1    0    0    0  501 -0.00000000000E+00  0.00000000000E+00  0.38086762593E+02  0.38086762593E+02  0.00000000000E+00 0.  1.
          2   -1    0    0  501    0  0.00000000000E+00 -0.00000000000E+00 -0.40466662820E+03  0.40466662820E+03  0.00000000000E+00 0. -1.
         25    2    1    2    0    0 -0.20795246895E+02  0.14799321132E+02 -0.30412378806E+03  0.32983143640E+03  0.12508411480E+03 0.  0.
         23    2    1    2    0    0  0.20795246895E+02 -0.14799321132E+02 -0.62456077542E+02  0.11292195439E+03  0.90549124573E+02 0.  0.
          5    1    3    3  502    0 -0.71762087835E+02 -0.30456780667E+01 -0.19837154811E+03  0.21101615318E+03  0.41800000000E+01 0.  1.
         -5    1    3    3    0  502  0.50966840940E+02  0.17844999199E+02 -0.10575223995E+03  0.11881528322E+03  0.41800000000E+01 0.  1.
        -11    1    4    4    0    0  0.41094311751E+02  0.17333880272E+02 -0.61993655462E+01  0.45029301535E+02  0.00000000000E+00 0.  1.
         11    1    4    4    0    0 -0.20299064856E+02 -0.32133201404E+02 -0.56256711996E+02  0.67892652851E+02  0.00000000000E+00 0. -1.
</event>
<event>
 8    1  0.7114239E-009  0.1076270E+03  0.7561462E-02  0.1265028E+00
         -2   -1    0    0    0  501 -0.00000000000E+00  0.00000000000E+00  0.60016832045E+02  0.60016832045E+02  0.00000000000E+00 0.  1.
          2   -1    0    0  501    0  0.00000000000E+00 -0.00000000000E+00 -0.24105449625E+03  0.24105449625E+03  0.00000000000E+00 0. -1.
         25    2    1    2    0    0  0.23949151342E+02 -0.52898624637E+01 -0.16046518083E+03  0.20493534898E+03  0.12509148056E+03 0.  0.
         23    2    1    2    0    0 -0.23949151342E+02  0.52898624637E+01 -0.20572483380E+02  0.96135979320E+02  0.90649627426E+02 0.  0.
          5    1    3    3  502    0  0.53942847402E+02  0.43320317330E+02 -0.75717000451E+02  0.10264997436E+03  0.41800000000E+01 0. -1.
         -5    1    3    3    0  502 -0.29993696059E+02 -0.48610179794E+02 -0.84748180377E+02  0.10228537461E+03  0.41800000000E+01 0. -1.
        -11    1    4    4    0    0 -0.29725540921E+01 -0.39290551212E+02  0.64745595349E+01  0.39931233559E+02  0.00000000000E+00 0.  1.
         11    1    4    4    0    0 -0.20976597250E+02  0.44580413675E+02 -0.27047042914E+02  0.56204745761E+02  0.00000000000E+00 0. -1.
</event>
<event>
 8    1  0.7114239E-009  0.1528863E+03  0.7561462E-02  0.1196971E+00
          2   -1    0    0  501    0  0.00000000000E+00  0.00000000000E+00  0.17263439281E+04  0.17263439281E+04  0.00000000000E+00 0. -1.
         -2   -1    0    0    0  501 -0.00000000000E+00 -0.00000000000E+00 -0.18678232589E+02  0.18678232589E+02  0.00000000000E+00 0.  1.
         25    2    1    2    0    0 -0.63396046401E+02  0.88954981366E+02  0.13536589676E+04  0.13638081839E+04  0.12509242372E+03 0.  0.
         23    2    1    2    0    0  0.63396046401E+02 -0.88954981366E+02  0.35400672788E+03  0.38121397676E+03  0.89840332198E+02 0.  0.
          5    1    3    3  502    0 -0.28081364974E+02 -0.30274014068E+02  0.31411677857E+03  0.31684681152E+03  0.41800000000E+01 0.  1.
         -5    1    3    3    0  502 -0.35314681428E+02  0.11922899543E+03  0.10395421890E+04  0.10469613724E+04  0.41800000000E+01 0.  1.
        -11    1    4    4    0    0 -0.21513348125E+02 -0.28075784373E+02  0.11629842833E+03  0.12155820930E+03  0.00000000000E+00 0.  1.
         11    1    4    4    0    0  0.84909394526E+02 -0.60879196992E+02  0.23770829955E+03  0.25965576747E+03  0.00000000000E+00 0. -1.
</event>
<event>
 8    1  0.7114239E-009  0.1212863E+03  0.7561462E-02  0.1240990E+00
         -1   -1    0    0    0  501 -0.00000000000E+00  0.00000000000E+00  0.34540930808E+02  0.34540930808E+02  0.00000000000E+00 0.  1.
          1   -1    0    0  501    0  0.00000000000E+00 -0.00000000000E+00 -0.74523111146E+03  0.74523111146E+03  0.00000000000E+00 0. -1.
         25    2    1    2    0    0 -0.43857837140E+02  0.75917414754E+02 -0.56739976475E+03  0.58760292251E+03  0.12509091802E+03 0.  0.
         23    2    1    2    0    0  0.43857837140E+02 -0.75917414754E+02 -0.14329041590E+03  0.19216911975E+03  0.93326649754E+02 0.  0.
          5    1    3    3  502    0  0.30777761111E+02  0.70406252594E+02 -0.31830922452E+03  0.32747907688E+03  0.41800000000E+01 0. -1.
         -5    1    3    3    0  502 -0.74635598251E+02  0.55111621599E+01 -0.24909054023E+03  0.26012384563E+03  0.41800000000E+01 0. -1.
        -11    1    4    4    0    0  0.21429035070E+02 -0.58392672215E+02 -0.19554889216E+02  0.65202004606E+02  0.00000000000E+00 0.  1.
         11    1    4    4    0    0  0.22428802071E+02 -0.17524742538E+02 -0.12373552669E+03  0.12696711514E+03  0.00000000000E+00 0. -1.
</event>
<event>
 8    1  0.7114239E-009  0.1673884E+03  0.7561462E-02  0.1180599E+00
          2   -1    0    0  501    0  0.00000000000E+00  0.00000000000E+00  0.13062772152E+03  0.13062772152E+03  0.00000000000E+00 0. -1.
         -2   -1    0    0    0  501 -0.00000000000E+00 -0.00000000000E+00 -0.25704092368E+03  0.25704092368E+03  0.00000000000E+00 0.  1.
         25    2    1    2    0    0  0.47396202389E+02 -0.13207291422E+03 -0.10376431698E+03  0.21471923310E+03  0.12509061080E+03 0.  0.
         23    2    1    2    0    0 -0.47396202389E+02  0.13207291422E+03 -0.22648885182E+02  0.17294941210E+03  0.98533610897E+02 0.  0.
          5    1    3    3  502    0  0.73301827684E+02 -0.52465000004E+02 -0.13000438414E+02  0.91171365934E+02  0.41800000000E+01 0.  1.
         -5    1    3    3    0  502 -0.25905625295E+02 -0.79607914214E+02 -0.90763878569E+02  0.12354786716E+03  0.41800000000E+01 0.  1.
        -11    1    4    4    0    0  0.11656170216E+00  0.10698737053E+03 -0.43260959731E+02  0.11540286685E+03  0.00000000000E+00 0.  1.
         11    1    4    4    0    0 -0.47512764091E+02  0.25085543684E+02  0.20612074548E+02  0.57546545254E+02  0.00000000000E+00 0. -1.
</event>
<event>
 8    1  0.7114239E-009  0.1161377E+03  0.7561462E-02  0.1249608E+00
          2   -1    0    0  501    0  0.00000000000E+00  0.00000000000E+00  0.70556292394E+02  0.70556292394E+02  0.00000000000E+00 0. -1.
         -2   -1    0    0    0  501 -0.00000000000E+00 -0.00000000000E+00 -0.31346344824E+03  0.31346344824E+03  0.00000000000E+00 0.  1.
         25    2    1    2    0    0  0.16340925558E+02 -0.10105139847E+03 -0.13331608115E+03  0.20952075038E+03  0.12508939349E+03 0.  0.
         23    2    1    2    0    0 -0.16340925558E+02  0.10105139847E+03 -0.10959107469E+03  0.17449899025E+03  0.89226021798E+02 0.  0.
          5    1    3    3  502    0  0.19824656478E+02 -0.11365921394E+03 -0.51252108636E+02  0.12631581436E+03  0.41800000000E+01 0.  1.
         -5    1    3    3    0  502 -0.34837309202E+01  0.12607815472E+02 -0.82063972517E+02  0.83204936016E+02  0.41800000000E+01 0.  1.
        -11    1    4    4    0    0 -0.18103405051E+02  0.82784068946E+02 -0.25594977008E+02  0.88521399637E+02  0.00000000000E+00 0. -1.
         11    1    4    4    0    0  0.17624794928E+01  0.18267329526E+02 -0.83996097682E+02  0.85977590614E+02  0.00000000000E+00 0.  1.
</event>
<event>
 8    1  0.7114239E-009  0.1032222E+03  0.7561462E-02  0.1273662E+00
          2   -1    0    0  501    0  0.00000000000E+00  0.00000000000E+00  0.37361578226E+02  0.37361578226E+02  0.00000000000E+00 0. -1.
         -2   -1    0    0    0  501 -0.00000000000E+00 -0.00000000000E+00 -0.36850090612E+03  0.36850090612E+03  0.00000000000E+00 0.  1.
         25    2    1    2    0    0 -0.18436572322E+02  0.21108241930E+02 -0.12656175975E+03  0.18013847440E+03  0.12508607377E+03 0.  0.
         23    2    1    2    0    0  0.18436572322E+02 -0.21108241930E+02 -0.20457756814E+03  0.22572400994E+03  0.91180492448E+02 0.  0.
          5    1    3    3  502    0  0.40865753266E+02 -0.26670829826E+02 -0.31377551180E+02  0.58166709307E+02  0.41800000000E+01 0. -1.
         -5    1    3    3    0  502 -0.59302325588E+02  0.47779071756E+02 -0.95184208575E+02  0.12197176509E+03  0.41800000000E+01 0. -1.
        -11    1    4    4    0    0  0.37808732517E+02 -0.39362437811E+02 -0.18444287092E+03  0.19234883519E+03  0.00000000000E+00 0.  1.
         11    1    4    4    0    0 -0.19372160195E+02  0.18254195882E+02 -0.20134697219E+02  0.33375174756E+02  0.00000000000E+00 0. -1.
</event>
<event>
 8    1  0.7114239E-009  0.8034583E+02  0.7561462E-02  0.1328073E+00
          2   -1    0    0  501    0  0.00000000000E+00  0.00000000000E+00  0.54783094397E+03  0.54783094397E+03  0.00000000000E+00 0. -1.
         -2   -1    0    0    0  501 -0.00000000000E+00 -0.00000000000E+00 -0.30177228673E+02  0.30177228673E+02  0.00000000000E+00 0.  1.
         25    2    1    2    0    0  0.20143364740E+02 -0.30621497080E+02  0.41849471003E+03  0.43832193665E+03  0.12507944114E+03 0.  0.
         23    2    1    2    0    0 -0.20143364740E+02  0.30621497080E+02  0.99159005268E+02  0.13968623600E+03  0.91303367818E+02 0.  0.
          5    1    3    3  502    0  0.31600978505E+02  0.19393387705E+02  0.35323959173E+03  0.35520473941E+03  0.41800000000E+01 0. -1.
         -5    1    3    3    0  502 -0.11457613765E+02 -0.50014884785E+02  0.65255118298E+02  0.83117197242E+02  0.41800000000E+01 0. -1.
        -11    1    4    4    0    0  0.22211165912E+02  0.64323812952E+01 -0.58933648354E+01  0.23863008389E+02  0.00000000000E+00 0.  1.
         11    1    4    4    0    0 -0.42354530652E+02  0.24189115785E+02  0.10505237010E+03  0.11582322761E+03  0.00000000000E+00 0. -1.
</event>
<event>
 8    1  0.7114239E-009  0.6234007E+03  0.7561462E-02  0.9858012E-01
         -1   -1    0    0    0  501 -0.00000000000E+00  0.00000000000E+00  0.39978830356E+03  0.39978830356E+03  0.00000000000E+00 0.  1.
          1   -1    0    0  501    0  0.00000000000E+00 -0.00000000000E+00 -0.10067395619E+04  0.10067395619E+04  0.00000000000E+00 0. -1.
         25    2    1    2    0    0  0.58944913888E+03  0.17301227950E+03 -0.43196386613E+03  0.76133247097E+03  0.12510321146E+03 0.  0.
         23    2    1    2    0    0 -0.58944913888E+03 -0.17301227950E+03 -0.17498739225E+03  0.64519539454E+03  0.90955887692E+02 0.  0.
          5    1    3    3  502    0  0.41470718479E+03  0.60788401482E+02 -0.29324438379E+03  0.51155353571E+03  0.41800000000E+01 0. -1.
         -5    1    3    3    0  502  0.17474195409E+03  0.11222387802E+03 -0.13871948235E+03  0.24977893526E+03  0.41800000000E+01 0. -1.
        -11    1    4    4    0    0 -0.35590233095E+02  0.93820473763E+01 -0.15840318170E+01  0.36840150129E+02  0.00000000000E+00 0.  1.
         11    1    4    4    0    0 -0.55385890579E+03 -0.18239432687E+03 -0.17340336043E+03  0.60835524441E+03  0.00000000000E+00 0. -1.
</event>
<event>
 8    1  0.7114239E-009  0.1253747E+03  0.7561462E-02  0.1234485E+00
         -1   -1    0    0    0  501 -0.00000000000E+00  0.00000000000E+00  0.63325270831E+02  0.63325270831E+02  0.00000000000E+00 0.  1.
          1   -1    0    0  501    0  0.00000000000E+00 -0.00000000000E+00 -0.39351444901E+03  0.39351444901E+03  0.00000000000E+00 0. -1.
         25    2    1    2    0    0 -0.57962893149E+02  0.82427008910E+02 -0.25385332178E+03  0.30040460286E+03  0.12508999825E+03 0.  0.
         23    2    1    2    0    0  0.57962893149E+02 -0.82427008910E+02 -0.76335856403E+02  0.15643511698E+03  0.92145938992E+02 0.  0.
          5    1    3    3  502    0  0.32411059641E+02  0.33748091149E+02 -0.13690151530E+03  0.14473737504E+03  0.41800000000E+01 0. -1.
         -5    1    3    3    0  502 -0.90373952790E+02  0.48678917761E+02 -0.11695180648E+03  0.15566722782E+03  0.41800000000E+01 0. -1.
        -11    1    4    4    0    0  0.30235537064E+02 -0.49342957982E+02 -0.93517494219E+02  0.10997471041E+03  0.00000000000E+00 0. -1.
         11    1    4    4    0    0  0.27727356085E+02 -0.33084050928E+02  0.17181637815E+02  0.46460406577E+02  0.00000000000E+00 0.  1.
</event>
<event>
 8    1  0.7114239E-009  0.1291695E+03  0.7561462E-02  0.1228693E+00
         -2   -1    0    0    0  501 -0.00000000000E+00  0.00000000000E+00  0.22832500724E+02  0.22832500724E+02  0.00000000000E+00 0.  1.
          2   -1    0    0  501    0  0.00000000000E+00 -0.00000000000E+00 -0.76507733531E+03  0.76507733531E+03  0.00000000000E+00 0. -1.
         25    2    1    2    0    0  0.29990048390E+01 -0.74229180238E+02 -0.46420583801E+03  0.48647123156E+03  0.12509290093E+03 0.  0.
         23    2    1    2    0    0 -0.29990048390E+01  0.74229180238E+02 -0.27803899658E+03  0.30143860448E+03  0.89669300333E+02 0.  0.
          5    1    3    3  502    0  0.45971588574E+02  0.10116670724E+02 -0.20811525654E+03  0.21341313546E+03  0.41800000000E+01 0. -1.
         -5    1    3    3    0  502 -0.42972583735E+02 -0.84345850962E+02 -0.25609058147E+03  0.27305809610E+03  0.41800000000E+01 0. -1.
        -11    1    4    4    0    0  0.41911154249E+01  0.94616913712E+02 -0.22092650787E+03  0.24037147853E+03  0.00000000000E+00 0.  1.
         11    1    4    4    0    0 -0.71901202639E+01 -0.20387733473E+02 -0.57112488708E+02  0.61067125952E+02  0.00000000000E+00 0. -1.
</event>
<event>
 8    1  0.7114239E-009  0.1366608E+03  0.7561462E-02  0.1217894E+00
          2   -1    0    0  501    0  0.00000000000E+00  0.00000000000E+00  0.28920343845E+03  0.28920343845E+03  0.00000000000E+00 0. -1.
         -2   -1    0    0    0  501 -0.00000000000E+00 -0.00000000000E+00 -0.76630315459E+02  0.76630315459E+02  0.00000000000E+00 0.  1.
         25    2    1    2    0    0  0.82650091682E+02 -0.53700841958E+02  0.14526446963E+03  0.21555578975E+03  0.12509082410E+03 0.  0.
         23    2    1    2    0    0 -0.82650091682E+02  0.53700841958E+02  0.67308653364E+02  0.15027796416E+03  0.91313709888E+02 0.  0.
          5    1    3    3  502    0  0.88009437001E+02 -0.82773817090E+02  0.83413734799E+02  0.14687576161E+03  0.41800000000E+01 0.  1.
         -5    1    3    3    0  502 -0.53593453190E+01  0.29072975131E+02  0.61850734829E+02  0.68680028131E+02  0.41800000000E+01 0.  1.
        -11    1    4    4    0    0 -0.92548681280E+02  0.60496383380E+02  0.77092344099E+02  0.13478983763E+03  0.00000000000E+00 0. -1.
         11    1    4    4    0    0  0.98985895984E+01 -0.67955414215E+01 -0.97836907343E+01  0.15488126537E+02  0.00000000000E+00 0.  1.
</event>
<event>
 8    1  0.7114239E-009  0.9811030E+02  0.7561462E-02  0.1284321E+00
         -2   -1    0    0    0  501 -0.00000000000E+00  0.00000000000E+00  0.46326923261E+02  0.46326923261E+02  0.00000000000E+00 0. -1.
          2   -1    0    0  501    0  0.00000000000E+00 -0.00000000000E+00 -0.27827516915E+03  0.27827516915E+03  0.00000000000E+00 0.  1.
         25    2    1    2    0    0 -0.23927164740E+02  0.21706987913E+02 -0.15793642259E+03  0.20404651529E+03  0.12508942516E+03 0.  0.
         23    2    1    2    0    0  0.23927164740E+02 -0.21706987913E+02 -0.74011823300E+02  0.12055557712E+03  0.89510863303E+02 0.  0.
          5    1    3    3  502    0  0.24788481868E+02 -0.24887326704E+02 -0.35731956309E+01  0.35554015115E+02  0.41800000000E+01 0.  1.
         -5    1    3    3    0  502 -0.48715646608E+02  0.46594314618E+02 -0.15436322696E+03  0.16849250018E+03  0.41800000000E+01 0.  1.
        -11    1    4    4    0    0  0.35127408539E+02 -0.51010267754E+02 -0.37439503757E+02  0.72371946834E+02  0.00000000000E+00 0.  1.
         11    1    4    4    0    0 -0.11200243798E+02  0.29303279841E+02 -0.36572319544E+02  0.48183630284E+02  0.00000000000E+00 0. -1.
</event>
<event>
 8    1  0.7114239E-009  0.1984224E+03  0.7561462E-02  0.1151077E+00
         -3   -1    0    0    0  501 -0.00000000000E+00  0.00000000000E+00  0.15431980634E+03  0.15431980634E+03  0.00000000000E+00 0. -1.
          3   -1    0    0  501    0  0.00000000000E+00 -0.00000000000E+00 -0.30560749507E+03  0.30560749507E+03  0.00000000000E+00 0.  1.
         25    2    1    2    0    0 -0.33481780531E+02 -0.18131308052E+03 -0.47524890244E+02  0.22781961586E+03  0.12509076459E+03 0.  0.
         23    2    1    2    0    0  0.33481780531E+02  0.18131308052E+03 -0.10376279849E+03  0.23210768554E+03  0.95455730803E+02 0.  0.
          5    1    3    3  502    0 -0.23228433779E+02 -0.18354968768E+03 -0.73788911525E+02  0.19922932477E+03  0.41800000000E+01 0. -1.
         -5    1    3    3    0  502 -0.10253346752E+02  0.22366071579E+01  0.26264021282E+02  0.28590291098E+02  0.41800000000E+01 0. -1.
        -11    1    4    4    0    0 -0.19341593661E+02  0.11029746112E+03 -0.87515091917E+02  0.14212149200E+03  0.00000000000E+00 0.  1.
         11    1    4    4    0    0  0.52823374192E+02  0.71015619396E+02 -0.16247706571E+02  0.89986193541E+02  0.00000000000E+00 0. -1.
</event>
<event>
 8    1  0.7114239E-009  0.9005812E+02  0.7561462E-02  0.1302711E+00
          1   -1    0    0  501    0  0.00000000000E+00  0.00000000000E+00  0.29837549093E+02  0.29837549093E+02  0.00000000000E+00 0. -1.
         -1   -1    0    0    0  501 -0.00000000000E+00 -0.00000000000E+00 -0.67977327301E+03  0.67977327301E+03  0.00000000000E+00 0.  1.
         25    2    1    2    0    0  0.50658363209E+02 -0.21965365631E+02 -0.53723286734E+03  0.55435711015E+03  0.12507559624E+03 0.  0.
         23    2    1    2    0    0 -0.50658363209E+02  0.21965365631E+02 -0.11270285658E+03  0.15525371196E+03  0.91394935001E+02 0.  0.
          5    1    3    3  502    0  0.22523267350E+02 -0.43551351585E+02 -0.50126568337E+03  0.50367526793E+03  0.41800000000E+01 0. -1.
         -5    1    3    3    0  502  0.28135095859E+02  0.21585985954E+02 -0.35967183969E+02  0.50681842224E+02  0.41800000000E+01 0. -1.
        -11    1    4    4    0    0 -0.41345737236E+02 -0.24333002490E+02 -0.21547716120E+02  0.52591530380E+02  0.00000000000E+00 0.  1.
         11    1    4    4    0    0 -0.93126259734E+01  0.46298368121E+02 -0.91155140463E+02  0.10266218158E+03  0.00000000000E+00 0. -1.
</event>
<event>
 8    1  0.7114239E-009  0.1129217E+03  0.7561462E-02  0.1255253E+00
          2   -1    0    0  501    0  0.00000000000E+00  0.00000000000E+00  0.36404765143E+03  0.36404765143E+03  0.00000000000E+00 0. -1.
         -2   -1    0    0    0  501 -0.00000000000E+00 -0.00000000000E+00 -0.51685629641E+02  0.51685629641E+02  0.00000000000E+00 0.  1.
         25    2    1    2    0    0  0.10598963758E+02  0.78181515170E+02  0.11278439753E+03  0.18599421399E+03  0.12509532352E+03 0.  0.
         23    2    1    2    0    0 -0.10598963758E+02 -0.78181515170E+02  0.19957762427E+03  0.22973906708E+03  0.82000752979E+02 0.  0.
          5    1    3    3  502    0  0.66723962631E+02  0.45914754553E+02  0.47654393985E+02  0.94067345774E+02  0.41800000000E+01 0. -1.
         -5    1    3    3    0  502 -0.56124998874E+02  0.32266760617E+02  0.65130003541E+02  0.91926868219E+02  0.41800000000E+01 0. -1.
        -11    1    4    4    0    0 -0.82942701330E+01 -0.20167012844E+02 -0.84794917947E-01  0.21806203573E+02  0.00000000000E+00 0.  1.
         11    1    4    4    0    0 -0.23046936246E+01 -0.58014502327E+02  0.19966241918E+03  0.20793286351E+03  0.00000000000E+00 0. -1.
</event>
<event>
 8    1  0.7114239E-009  0.1285324E+03  0.7561462E-02  0.1229650E+00
          1   -1    0    0  501    0  0.00000000000E+00  0.00000000000E+00  0.46885702396E+03  0.46885702396E+03  0.00000000000E+00 0. -1.
         -1   -1    0    0    0  501 -0.00000000000E+00 -0.00000000000E+00 -0.35664902171E+02  0.35664902171E+02  0.00000000000E+00 0.  1.
         25    2    1    2    0    0  0.49629737925E+02 -0.51707382475E+02  0.22744149588E+03  0.26928364528E+03  0.12508910136E+03 0.  0.
         23    2    1    2    0    0 -0.49629737925E+02  0.51707382475E+02  0.20575062591E+03  0.23523828085E+03  0.88695909859E+02 0.  0.
          5    1    3    3  502    0  0.22122576876E+02 -0.92270292132E+02  0.14928349445E+03  0.17693572090E+03  0.41800000000E+01 0. -1.
         -5    1    3    3    0  502  0.27507161049E+02  0.40562909657E+02  0.78158001432E+02  0.92347924376E+02  0.41800000000E+01 0. -1.
        -11    1    4    4    0    0 -0.19346981082E+02 -0.24311935122E+02  0.42719828679E+02  0.52823854732E+02  0.00000000000E+00 0. -1.
         11    1    4    4    0    0 -0.30282756844E+02  0.76019317597E+02  0.16303079723E+03  0.18241442611E+03  0.00000000000E+00 0.  1.
</event>
<event>
 8    1  0.7114239E-009  0.1449276E+03  0.7561462E-02  0.1206848E+00
         -2   -1    0    0    0  501 -0.00000000000E+00  0.00000000000E+00  0.63740878607E+02  0.63740878607E+02  0.00000000000E+00 0.  1.
          2   -1    0    0  501    0  0.00000000000E+00 -0.00000000000E+00 -0.37367156818E+03  0.37367156818E+03  0.00000000000E+00 0. -1.
         25    2    1    2    0    0 -0.58367853595E+02 -0.92100255422E+02 -0.16740258325E+03  0.23571249413E+03  0.12508993417E+03 0.  0.
         23    2    1    2    0    0  0.58367853595E+02  0.92100255422E+02 -0.14252810633E+03  0.20169995265E+03  0.92083366714E+02 0.  0.
          5    1    3    3  502    0  0.78721935505E+01 -0.80389306782E+02 -0.14251518144E+03  0.16386720666E+03  0.41800000000E+01 0. -1.
         -5    1    3    3    0  502 -0.66240047145E+02 -0.11710948640E+02 -0.24887401805E+02  0.71845287476E+02  0.41800000000E+01 0. -1.
        -11    1    4    4    0    0  0.55195627454E+02  0.11017359461E+03 -0.13185064412E+03  0.18046986063E+03  0.00000000000E+00 0.  1.
         11    1    4    4    0    0  0.31722261403E+01 -0.18073339191E+02 -0.10677462201E+02  0.21230092022E+02  0.00000000000E+00 0. -1.
</event>
<event>
 8    1  0.7114239E-009  0.1156286E+03  0.7561462E-02  0.1250488E+00
         -1   -1    0    0    0  501 -0.00000000000E+00  0.00000000000E+00  0.45018861223E+02  0.45018861223E+02  0.00000000000E+00 0.  1.
          1   -1    0    0  501    0  0.00000000000E+00 -0.00000000000E+00 -0.43285927670E+03  0.43285927670E+03  0.00000000000E+00 0. -1.
         25    2    1    2    0    0  0.31621141442E+02 -0.48773202509E+02 -0.98759824841E+02  0.16964542433E+03  0.12508934856E+03 0.  0.
         23    2    1    2    0    0 -0.31621141442E+02  0.48773202509E+02 -0.28908059063E+03  0.30823271359E+03  0.89783606411E+02 0.  0.
          5    1    3    3  502    0  0.69147166585E+02 -0.59696904730E+02 -0.42065173404E+02  0.10065784766E+03  0.41800000000E+01 0. -1.
         -5    1    3    3    0  502 -0.37526025144E+02  0.10923702221E+02 -0.56694651436E+02  0.68987576670E+02  0.41800000000E+01 0. -1.
        -11    1    4    4    0    0 -0.59723120904E+02  0.34754628397E+02 -0.14306794876E+03  0.15888100367E+03  0.00000000000E+00 0.  1.
         11    1    4    4    0    0  0.28101979463E+02  0.14018574111E+02 -0.14601264188E+03  0.14935170992E+03  0.00000000000E+00 0. -1.
</event>
<event>
 8    1  0.7114239E-009  0.1058238E+03  0.7561462E-02  0.1268505E+00
         -2   -1    0    0    0  501 -0.00000000000E+00  0.00000000000E+00  0.28390806918E+02  0.28390806918E+02  0.00000000000E+00 0.  1.
          2   -1    0    0  501    0  0.00000000000E+00 -0.00000000000E+00 -0.46735986741E+03  0.46735986741E+03  0.00000000000E+00 0. -1.
         25    2    1    2    0    0  0.39614719514E+02 -0.61184015934E+01 -0.25747970163E+03  0.28905672780E+03  0.12510489317E+03 0.  0.
         23    2    1    2    0    0 -0.39614719514E+02  0.61184015934E+01 -0.18148935886E+03  0.20669394653E+03  0.90428089173E+02 0.  0.
          5    1    3    3  502    0 -0.34261245785E+01 -0.59899414364E+02 -0.93817453457E+02  0.11143996206E+03  0.41800000000E+01 0.  1.
         -5    1    3    3    0  502  0.43040844092E+02  0.53781012771E+02 -0.16366224817E+03  0.17761676574E+03  0.41800000000E+01 0.  1.
        -11    1    4    4    0    0 -0.39473557873E+01  0.35846403037E+02 -0.26103151225E+02  0.44518768315E+02  0.00000000000E+00 0.  1.
         11    1    4    4    0    0 -0.35667363726E+02 -0.29728001444E+02 -0.15538620764E+03  0.16217517821E+03  0.00000000000E+00 0. -1.
</event>
<event>
 8    1  0.7114239E-009  0.1164406E+03  0.7561462E-02  0.1249087E+00
          1   -1    0    0  501    0  0.00000000000E+00  0.00000000000E+00  0.36362198145E+03  0.36362198145E+03  0.00000000000E+00 0. -1.
         -1   -1    0    0    0  501 -0.00000000000E+00 -0.00000000000E+00 -0.55186761283E+02  0.55186761283E+02  0.00000000000E+00 0.  1.
         25    2    1    2    0    0 -0.58740025034E+02  0.54303019611E+02  0.23045876755E+03  0.27414713138E+03  0.12508476176E+03 0.  0.
         23    2    1    2    0    0  0.58740025034E+02 -0.54303019611E+02  0.77976452610E+02  0.14466161134E+03  0.91909989421E+02 0.  0.
          5    1    3    3  502    0 -0.11307608010E+02 -0.21986894809E+02 -0.17463028131E+01  0.25135781582E+02  0.41800000000E+01 0.  1.
         -5    1    3    3    0  502 -0.47432417024E+02  0.76289914420E+02  0.23220507037E+03  0.24901134980E+03  0.41800000000E+01 0.  1.
        -11    1    4    4    0    0  0.80679729459E+02 -0.51601875324E+02  0.76380371672E+02  0.12249870799E+03  0.00000000000E+00 0. -1.
         11    1    4    4    0    0 -0.21939704425E+02 -0.27011442872E+01  0.15960809377E+01  0.22162903354E+02  0.00000000000E+00 0.  1.
</event>
<event>
 8    1  0.7114239E-009  0.1154892E+03  0.7561462E-02  0.1250730E+00
          2   -1    0    0  501    0  0.00000000000E+00  0.00000000000E+00  0.29988332102E+03  0.29988332102E+03  0.00000000000E+00 0. -1.
         -2   -1    0    0    0  501 -0.00000000000E+00 -0.00000000000E+00 -0.52713843606E+02  0.52713843606E+02  0.00000000000E+00 0.  1.
         25    2    1    2    0    0 -0.33428249868E+02  0.27506047527E+02  0.72770600992E+02  0.15106217539E+03  0.12510071912E+03 0.  0.
         23    2    1    2    0    0  0.33428249868E+02 -0.27506047527E+02  0.17439887642E+03  0.20153498924E+03  0.91254332780E+02 0.  0.
          5    1    3    3  502    0  0.43795750063E+02  0.32571483202E+02  0.26756386842E+02  0.60929023284E+02  0.41800000000E+01 0. -1.
         -5    1    3    3    0  502 -0.77223999931E+02 -0.50654356744E+01  0.46014214150E+02  0.90133152102E+02  0.41800000000E+01 0. -1.
        -11    1    4    4    0    0  0.30618522948E+02 -0.59342387162E+02  0.96658892091E+02  0.11748171893E+03  0.00000000000E+00 0.  1.
         11    1    4    4    0    0  0.28097269201E+01  0.31836339635E+02  0.77739984329E+02  0.84053270313E+02  0.00000000000E+00 0. -1.
</event>
<event>
 8    1  0.7114239E-009  0.1055100E+03  0.7561462E-02  0.1269118E+00
         -3   -1    0    0    0  501 -0.00000000000E+00  0.00000000000E+00  0.84854494740E+03  0.84854494740E+03  0.00000000000E+00 0.  1.
          3   -1    0    0  501    0  0.00000000000E+00 -0.00000000000E+00 -0.20720875074E+02  0.20720875074E+02  0.00000000000E+00 0. -1.
         25    2    1    2    0    0 -0.80337258630E+00 -0.46552906815E+02  0.65283061525E+03  0.66633499037E+03  0.12508672446E+03 0.  0.
         23    2    1    2    0    0  0.80337258630E+00  0.46552906815E+02  0.17499345708E+03  0.20293083211E+03  0.91599094214E+02 0.  0.
          5    1    3    3  502    0 -0.42466377793E+02 -0.68973324130E+02  0.49189810599E+03  0.49853979957E+03  0.41800000000E+01 0.  1.
         -5    1    3    3    0  502  0.41663005206E+02  0.22420417315E+02  0.16093250926E+03  0.16779519079E+03  0.41800000000E+01 0.  1.
        -11    1    4    4    0    0 -0.24729714706E+02 -0.46852134756E+01  0.12315469255E+03  0.12570039106E+03  0.00000000000E+00 0.  1.
         11    1    4    4    0    0  0.25533087293E+02  0.51238120291E+02  0.51838764527E+02  0.77230441054E+02  0.00000000000E+00 0. -1.
</event>
<event>
 8    1  0.7114239E-009  0.8877873E+02  0.7561462E-02  0.1305836E+00
          1   -1    0    0  501    0  0.00000000000E+00  0.00000000000E+00  0.76119498172E+02  0.76119498172E+02  0.00000000000E+00 0. -1.
         -1   -1    0    0    0  501 -0.00000000000E+00 -0.00000000000E+00 -0.24344263754E+03  0.24344263754E+03  0.00000000000E+00 0.  1.
         25    2    1    2    0    0  0.13345681396E+02 -0.39721094349E+02 -0.17100091345E+03  0.21596716307E+03  0.12507849765E+03 0.  0.
         23    2    1    2    0    0 -0.13345681396E+02  0.39721094349E+02  0.36777740783E+01  0.10359497265E+03  0.94670585650E+02 0.  0.
          5    1    3    3  502    0 -0.19073904228E+02 -0.67246694829E+02 -0.45795106797E+02  0.83669564325E+02  0.41800000000E+01 0. -1.
         -5    1    3    3    0  502  0.32419585624E+02  0.27525600480E+02 -0.12520580665E+03  0.13229759874E+03  0.41800000000E+01 0. -1.
        -11    1    4    4    0    0  0.12187045402E+02 -0.51039710564E+01 -0.36107114505E+02  0.38448645153E+02  0.00000000000E+00 0.  1.
         11    1    4    4    0    0 -0.25532726798E+02  0.44825065405E+02  0.39784888584E+02  0.65146327494E+02  0.00000000000E+00 0. -1.
</event>
<event>
 8    1  0.7114239E-009  0.9486785E+02  0.7561462E-02  0.1291474E+00
         -4   -1    0    0    0  501 -0.00000000000E+00  0.00000000000E+00  0.56228521890E+02  0.56228521890E+02  0.00000000000E+00 0.  1.
          4   -1    0    0  501    0  0.00000000000E+00 -0.00000000000E+00 -0.30374992535E+03  0.30374992535E+03  0.00000000000E+00 0. -1.
         25    2    1    2    0    0 -0.41851267072E+02  0.31856227575E+02 -0.66274760415E+02  0.15102028027E+03  0.12509369846E+03 0.  0.
         23    2    1    2    0    0  0.41851267072E+02 -0.31856227575E+02 -0.18124664305E+03  0.20895816697E+03  0.89704080944E+02 0.  0.
          5    1    3    3  502    0 -0.56088103805E+02  0.23134058922E+01  0.19119811629E+02  0.59449700016E+02  0.41800000000E+01 0.  1.
         -5    1    3    3    0  502  0.14236836734E+02  0.29542821683E+02 -0.85394572045E+02  0.91570580253E+02  0.41800000000E+01 0.  1.
        -11    1    4    4    0    0  0.39204791755E+02  0.23007577338E+02 -0.55510426378E+02  0.71747973826E+02  0.00000000000E+00 0.  1.
         11    1    4    4    0    0  0.26464753166E+01 -0.54863804913E+02 -0.12573621667E+03  0.13721019315E+03  0.00000000000E+00 0. -1.
</event>
<event>
 8    1  0.7114239E-009  0.8144616E+02  0.7561462E-02  0.1324997E+00
          1   -1    0    0  501    0  0.00000000000E+00  0.00000000000E+00  0.17452452282E+03  0.17452452282E+03  0.00000000000E+00 0. -1.
         -1   -1    0    0    0  501 -0.00000000000E+00 -0.00000000000E+00 -0.72400169337E+02  0.72400169337E+02  0.00000000000E+00 0.  1.
         25    2    1    2    0    0  0.14196866084E+02 -0.30635241392E+01  0.60443070709E+02  0.13968985679E+03  0.12509578373E+03 0.  0.
         23    2    1    2    0    0 -0.14196866084E+02  0.30635241392E+01  0.41681282778E+02  0.10723483537E+03  0.97729444872E+02 0.  0.
          5    1    3    3  502    0  0.14108579141E+01 -0.63646831311E+02  0.33092530256E+02  0.71871396359E+02  0.41800000000E+01 0. -1.
         -5    1    3    3    0  502  0.12786008170E+02  0.60583307171E+02  0.27350540453E+02  0.67818460435E+02  0.41800000000E+01 0. -1.
        -11    1    4    4    0    0 -0.10576172215E+02 -0.15143154313E+02  0.70541725551E+02  0.72919857274E+02  0.00000000000E+00 0. -1.
         11    1    4    4    0    0 -0.36206938692E+01  0.18206678452E+02 -0.28860442773E+02  0.34314978091E+02  0.00000000000E+00 0.  1.
</event>
<event>
 8    1  0.7114239E-009  0.1061335E+03  0.7561462E-02  0.1267902E+00
         -1   -1    0    0    0  501 -0.00000000000E+00  0.00000000000E+00  0.36576507785E+02  0.36576507785E+02  0.00000000000E+00 0.  1.
          1   -1    0    0  501    0  0.00000000000E+00 -0.00000000000E+00 -0.58017857023E+03  0.58017857023E+03  0.00000000000E+00 0. -1.
         25    2    1    2    0    0  0.90841176574E+02  0.37823744688E+02 -0.27956829657E+03  0.32169691229E+03  0.12509083063E+03 0.  0.
         23    2    1    2    0    0 -0.90841176574E+02 -0.37823744688E+02 -0.26403376587E+03  0.29505816572E+03  0.87537058514E+02 0.  0.
          5    1    3    3  502    0  0.33835976649E+01  0.11839439460E+02  0.11050460274E+02  0.17064762880E+02  0.41800000000E+01 0.  1.
         -5    1    3    3    0  502  0.87457578909E+02  0.25984305228E+02 -0.29061875684E+03  0.30463214941E+03  0.41800000000E+01 0.  1.
        -11    1    4    4    0    0 -0.45683097415E+02  0.46733590635E+01 -0.34890508000E+02  0.57672638425E+02  0.00000000000E+00 0.  1.
         11    1    4    4    0    0 -0.45158079159E+02 -0.42497103751E+02 -0.22914325787E+03  0.23738552729E+03  0.00000000000E+00 0. -1.
</event>
<event>
 8    1  0.7114239E-009  0.1151097E+03  0.7561462E-02  0.1251390E+00
          2   -1    0    0  501    0  0.00000000000E+00  0.00000000000E+00  0.33420919376E+03  0.33420919376E+03  0.00000000000E+00 0. -1.
         -2   -1    0    0    0  501 -0.00000000000E+00 -0.00000000000E+00 -0.41860171061E+02  0.41860171061E+02  0.00000000000E+00 0.  1.
         25    2    1    2    0    0 -0.23412486083E+02  0.27158245570E+02  0.12556207999E+03  0.18082888225E+03  0.12509010320E+03 0.  0.
         23    2    1    2    0    0  0.23412486083E+02 -0.27158245570E+02  0.16678694271E+03  0.19524048257E+03  0.94948654381E+02 0.  0.
          5    1    3    3  502    0 -0.72252352728E+02  0.32693909014E+02  0.64352465250E+02  0.10221548975E+03  0.41800000000E+01 0.  1.
         -5    1    3    3    0  502  0.48839866646E+02 -0.55356634447E+01  0.61209614742E+02  0.78613392502E+02  0.41800000000E+01 0.  1.
        -11    1    4    4    0    0 -0.36235802049E+02 -0.20025284068E+02  0.69928027380E+02  0.81264840893E+02  0.00000000000E+00 0.  1.
         11    1    4    4    0    0  0.59648288131E+02 -0.71329615015E+01  0.96858915325E+02  0.11397564167E+03  0.00000000000E+00 0. -1.
</event>
<event>
 8    1  0.7114239E-009  0.1344367E+03  0.7561462E-02  0.1221017E+00
         -2   -1    0    0    0  501 -0.00000000000E+00  0.00000000000E+00  0.20114988691E+02  0.20114988691E+02  0.00000000000E+00 0.  1.
          2   -1    0    0  501    0  0.00000000000E+00 -0.00000000000E+00 -0.16035640747E+04  0.16035640747E+04  0.00000000000E+00 0. -1.
         25    2    1    2    0    0 -0.40332163018E+02 -0.94285036871E+02 -0.12648357612E+04  0.12751368506E+04  0.12509249961E+03 0.  0.
         23    2    1    2    0    0  0.40332163018E+02  0.94285036871E+02 -0.31861332488E+03  0.34854221284E+03  0.97215594360E+02 0.  0.
          5    1    3    3  502    0  0.18962251852E+01 -0.83910311804E+02 -0.37812439380E+03  0.38735005574E+03  0.41800000000E+01 0. -1.
         -5    1    3    3    0  502 -0.42228388203E+02 -0.10374725067E+02 -0.88671136738E+03  0.88778679486E+03  0.41800000000E+01 0. -1.
        -11    1    4    4    0    0  0.63759515224E+02  0.25817214811E+02 -0.16336706744E+03  0.17725857691E+03  0.00000000000E+00 0. -1.
         11    1    4    4    0    0 -0.23427352207E+02  0.68467822061E+02 -0.15524625744E+03  0.17128363593E+03  0.00000000000E+00 0.  1.
</event>
<event>
 8    1  0.7114239E-009  0.1298876E+03  0.7561462E-02  0.1227623E+00
         -2   -1    0    0    0  501 -0.00000000000E+00  0.00000000000E+00  0.11451197663E+03  0.11451197663E+03  0.00000000000E+00 0. -1.
          2   -1    0    0  501    0  0.00000000000E+00 -0.00000000000E+00 -0.19242080331E+03  0.19242080331E+03  0.00000000000E+00 0.  1.
         25    2    1    2    0    0 -0.75453433891E+02  0.64583378468E+02 -0.25759719018E+02  0.16178558725E+03  0.12508708829E+03 0.  0.
         23    2    1    2    0    0  0.75453433891E+02 -0.64583378468E+02 -0.52149107655E+02  0.14514719269E+03  0.92108331095E+02 0.  0.
          5    1    3    3  502    0 -0.37135974684E+01 -0.33824172075E+02  0.82772061491E+01  0.35268257178E+02  0.41800000000E+01 0.  1.
         -5    1    3    3    0  502 -0.71739836422E+02  0.98407550543E+02 -0.34036925167E+02  0.12651733007E+03  0.41800000000E+01 0.  1.
        -11    1    4    4    0    0  0.52405270628E+02 -0.25533519372E+02  0.18533686142E+02  0.61170013268E+02  0.00000000000E+00 0. -1.
         11    1    4    4    0    0  0.23048163262E+02 -0.39049859096E+02 -0.70682793797E+02  0.83977179425E+02  0.00000000000E+00 0.  1.
</event>
<event>
 8    1  0.7114239E-009  0.1559999E+03  0.7561462E-02  0.1193288E+00
          1   -1    0    0  501    0  0.00000000000E+00  0.00000000000E+00  0.43519471281E+03  0.43519471281E+03  0.00000000000E+00 0. -1.
         -1   -1    0    0    0  501 -0.00000000000E+00 -0.00000000000E+00 -0.74858157058E+02  0.74858157058E+02  0.00000000000E+00 0.  1.
         25    2    1    2    0    0  0.93192139398E+02  0.10914192727E+03  0.18120357929E+03  0.26282859186E+03  0.12508955358E+03 0.  0.
         23    2    1    2    0    0 -0.93192139398E+02 -0.10914192727E+03  0.17913297645E+03  0.24722427801E+03  0.91839453661E+02 0.  0.
          5    1    3    3  502    0  0.31478565416E+02  0.99082932154E+02  0.45909282975E+02  0.11372538058E+03  0.41800000000E+01 0. -1.
         -5    1    3    3    0  502  0.61713573982E+02  0.10058995118E+02  0.13529429632E+03  0.14910321128E+03  0.41800000000E+01 0. -1.
        -11    1    4    4    0    0 -0.78640083869E+02 -0.77275127076E+02  0.65338397318E+02  0.12815933138E+03  0.00000000000E+00 0.  1.
         11    1    4    4    0    0 -0.14552055529E+02 -0.31866800195E+02  0.11379457913E+03  0.11906494663E+03  0.00000000000E+00 0. -1.
</event>
<event>
 8    1  0.7114239E-009  0.1276633E+03  0.7561462E-02  0.1230965E+00
         -2   -1    0    0    0  501 -0.00000000000E+00  0.00000000000E+00  0.53762204381E+02  0.53762204381E+02  0.00000000000E+00 0. -1.
          2   -1    0    0  501    0  0.00000000000E+00 -0.00000000000E+00 -0.78771177564E+03  0.78771177564E+03  0.00000000000E+00 0.  1.
         25    2    1    2    0    0  0.76020988224E+02 -0.85078511003E+02 -0.64523859498E+03  0.66708243558E+03  0.12509431531E+03 0.  0.
         23    2    1    2    0    0 -0.76020988224E+02  0.85078511003E+02 -0.88710976283E+02  0.17439154445E+03  0.97597283651E+02 0.  0.
          5    1    3    3  502    0  0.33770821839E+02 -0.89829315021E+02 -0.22459228119E+03  0.24427226494E+03  0.41800000000E+01 0.  1.
         -5    1    3    3    0  502  0.42250166385E+02  0.47508040180E+01 -0.42064631378E+03  0.42281017064E+03  0.41800000000E+01 0.  1.
        -11    1    4    4    0    0 -0.58803760304E+02  0.48896866386E+02 -0.10603536483E+03  0.13073746350E+03  0.00000000000E+00 0.  1.
         11    1    4    4    0    0 -0.17217227921E+02  0.36181644617E+02  0.17324388548E+02  0.43654080943E+02  0.00000000000E+00 0. -1.
</event>
<event>
 8    1  0.7114239E-009  0.9977235E+02  0.7561462E-02  0.1280775E+00
         -4   -1    0    0    0  501 -0.00000000000E+00  0.00000000000E+00  0.10274678657E+03  0.10274678657E+03  0.00000000000E+00 0. -1.
          4   -1    0    0  501    0  0.00000000000E+00 -0.00000000000E+00 -0.14073871266E+03  0.14073871266E+03  0.00000000000E+00 0.  1.
         25    2    1    2    0    0  0.40321229850E+02 -0.98869898259E+01 -0.47067744542E+02  0.13995866223E+03  0.12509796326E+03 0.  0.
         23    2    1    2    0    0 -0.40321229850E+02  0.98869898259E+01  0.90758184537E+01  0.10352683700E+03  0.94402761373E+02 0.  0.
          5    1    3    3  502    0  0.51415048383E+02  0.44211109887E+02 -0.50223924145E+02  0.84486948070E+02  0.41800000000E+01 0.  1.
         -5    1    3    3    0  502 -0.11093818532E+02 -0.54098099713E+02  0.31561796026E+01  0.55471714160E+02  0.41800000000E+01 0.  1.
        -11    1    4    4    0    0 -0.44185685424E+02  0.31502844544E+02  0.38699799793E+02  0.66651920563E+02  0.00000000000E+00 0. -1.
         11    1    4    4    0    0  0.38644555736E+01 -0.21615854718E+02 -0.29623981339E+02  0.36874916440E+02  0.00000000000E+00 0.  1.
</event>
<event>
 8    1  0.7114239E-009  0.1083193E+03  0.7561462E-02  0.1263714E+00
          1   -1    0    0  501    0  0.00000000000E+00  0.00000000000E+00  0.52899988544E+03  0.52899988544E+03  0.00000000000E+00 0. -1.
         -1   -1    0    0    0  501 -0.00000000000E+00 -0.00000000000E+00 -0.35960631442E+02  0.35960631442E+02  0.00000000000E+00 0.  1.
         25    2    1    2    0    0  0.54846221880E+02 -0.50216080516E+02  0.34374347350E+03  0.37327863170E+03  0.12509036139E+03 0.  0.
         23    2    1    2    0    0 -0.54846221880E+02  0.50216080516E+02  0.14929578049E+03  0.19168188518E+03  0.94461379596E+02 0.  0.
          5    1    3    3  502    0 -0.96680539084E+01 -0.36848825718E+02  0.20698236768E+02  0.43556820688E+02  0.41800000000E+01 0. -1.
         -5    1    3    3    0  502  0.64514275788E+02 -0.13367254798E+02  0.32304523674E+03  0.32972181102E+03  0.41800000000E+01 0. -1.
        -11    1    4    4    0    0 -0.73227271832E+02  0.18320918486E+02  0.12947577408E+03  0.14987283098E+03  0.00000000000E+00 0. -1.
         11    1    4    4    0    0  0.18381049953E+02  0.31895162030E+02  0.19820006417E+02  0.41809054194E+02  0.00000000000E+00 0.  1.
</event>
<event>
 8    1  0.7114239E-009  0.1361171E+03  0.7561462E-02  0.1218651E+00
          2   -1    0    0  501    0  0.00000000000E+00  0.00000000000E+00  0.84571615431E+03  0.84571615431E+03  0.00000000000E+00 0. -1.
         -2   -1    0    0    0  501 -0.00000000000E+00 -0.00000000000E+00 -0.23050218104E+02  0.23050218104E+02  0.00000000000E+00 0.  1.
         25    2    1    2    0    0 -0.62654157239E+02  0.60402167487E+02  0.45830028958E+03  0.48297046610E+03  0.12508936980E+03 0.  0.
         23    2    1    2    0    0  0.62654157239E+02 -0.60402167487E+02  0.36436564662E+03  0.38579590631E+03  0.92207329603E+02 0.  0.
          5    1    3    3  502    0  0.11954974765E+02  0.69421966426E+02  0.15238428147E+03  0.16793085626E+03  0.41800000000E+01 0.  1.
         -5    1    3    3    0  502 -0.74609132004E+02 -0.90197989396E+01  0.30591600811E+03  0.31503960984E+03  0.41800000000E+01 0.  1.
        -11    1    4    4    0    0 -0.86493482873E+01 -0.54132744746E+02  0.14311876612E+03  0.15325843042E+03  0.00000000000E+00 0. -1.
         11    1    4    4    0    0  0.71303505526E+02 -0.62694227410E+01  0.22124688050E+03  0.23253747589E+03  0.00000000000E+00 0.  1.
</event>
<event>
 8    1  0.7114239E-009  0.9770129E+02  0.7561462E-02  0.1285205E+00
          1   -1    0    0  501    0  0.00000000000E+00  0.00000000000E+00  0.18414036538E+03  0.18414036538E+03  0.00000000000E+00 0. -1.
         -1   -1    0    0    0  501 -0.00000000000E+00 -0.00000000000E+00 -0.11777791740E+03  0.11777791740E+03  0.00000000000E+00 0.  1.
         25    2    1    2    0    0  0.52012157716E+02 -0.42434817401E+02  0.11202434433E+03  0.18083582763E+03  0.12508462956E+03 0.  0.
         23    2    1    2    0    0 -0.52012157716E+02  0.42434817401E+02 -0.45661896358E+02  0.12108245516E+03  0.89833033400E+02 0.  0.
          5    1    3    3  502    0 -0.10668521207E+02 -0.50922128991E+02  0.86935831295E-01  0.52195407112E+02  0.41800000000E+01 0.  1.
         -5    1    3    3    0  502  0.62680678923E+02  0.84873115905E+01  0.11193740850E+03  0.12864042052E+03  0.41800000000E+01 0.  1.
        -11    1    4    4    0    0 -0.40282106111E+02  0.51219314984E+02  0.78197180039E+01  0.65629370634E+02  0.00000000000E+00 0. -1.
         11    1    4    4    0    0 -0.11730051604E+02 -0.87844975828E+01 -0.53481614361E+02  0.55453084523E+02  0.00000000000E+00 0.  1.
</event>
<event>
 8    1  0.7114239E-009  0.1328782E+03  0.7561462E-02  0.1223246E+00
          2   -1    0    0  501    0  0.00000000000E+00  0.00000000000E+00  0.43742924284E+02  0.43742924284E+02  0.00000000000E+00 0. -1.
         -2   -1    0    0    0  501 -0.00000000000E+00 -0.00000000000E+00 -0.58684338922E+03  0.58684338922E+03  0.00000000000E+00 0.  1.
         25    2    1    2    0    0  0.11014090442E+03 -0.24221234345E+02 -0.35432467423E+03  0.39231464366E+03  0.12508844009E+03 0.  0.
         23    2    1    2    0    0 -0.11014090442E+03  0.24221234345E+02 -0.18877579070E+03  0.23827166984E+03  0.91757302005E+02 0.  0.
          5    1    3    3  502    0  0.53053568994E+02 -0.41955347515E+02 -0.31118190127E+03  0.31847540007E+03  0.41800000000E+01 0.  1.
         -5    1    3    3    0  502  0.57087335429E+02  0.17734113170E+02 -0.43142772957E+02  0.73839243596E+02  0.41800000000E+01 0.  1.
        -11    1    4    4    0    0  0.12404273048E+02  0.72019355325E+01 -0.23609989692E+01  0.14536443217E+02  0.00000000000E+00 0. -1.
         11    1    4    4    0    0 -0.12254517747E+03  0.17019298813E+02 -0.18641479173E+03  0.22373522662E+03  0.00000000000E+00 0.  1.
</event>
<event>
 8    1  0.7114239E-009  0.1064746E+03  0.7561462E-02  0.1267241E+00
          1   -1    0    0  501    0  0.00000000000E+00  0.00000000000E+00  0.21188986148E+03  0.21188986148E+03  0.00000000000E+00 0. -1.
         -1   -1    0    0    0  501 -0.00000000000E+00 -0.00000000000E+00 -0.89688710218E+02  0.89688710218E+02  0.00000000000E+00 0.  1.
         25    2    1    2    0    0  0.49663746299E+02 -0.27861522066E+02 -0.10362511282E+01  0.13744259912E+03  0.12508653855E+03 0.  0.
         23    2    1    2    0    0 -0.49663746299E+02  0.27861522066E+02  0.12323740239E+03  0.16413597258E+03  0.92251872821E+02 0.  0.
          5    1    3    3  502    0  0.79206919523E+02 -0.19253115904E+02  0.35916842880E+02  0.89173485829E+02  0.41800000000E+01 0.  1.
         -5    1    3    3    0  502 -0.29543173225E+02 -0.86084061624E+01 -0.36953094008E+02  0.48269113288E+02  0.41800000000E+01 0.  1.
        -11    1    4    4    0    0 -0.18079623809E+02 -0.29611556796E+02  0.15479286273E+02  0.37991122601E+02  0.00000000000E+00 0.  1.
         11    1    4    4    0    0 -0.31584122489E+02  0.57473078862E+02  0.10775811612E+03  0.12614484998E+03  0.00000000000E+00 0. -1.
</event>
<event>
 8    1  0.7114239E-009  0.1091214E+03  0.7561462E-02  0.1262206E+00
         -1   -1    0    0    0  501 -0.00000000000E+00  0.00000000000E+00  0.54837154534E+03  0.54837154534E+03  0.00000000000E+00 0.  1.
          1   -1    0    0  501    0  0.00000000000E+00 -0.00000000000E+00 -0.26944334959E+02  0.26944334959E+02  0.00000000000E+00 0. -1.
         25    2    1    2    0    0 -0.38674891432E+02  0.15803429467E+02  0.26880630795E+03  0.29941623529E+03  0.12509098751E+03 0.  0.
         23    2    1    2    0    0  0.38674891432E+02 -0.15803429467E+02  0.25262090243E+03  0.27589964500E+03  0.10275114674E+03 0.  0.
          5    1    3    3  502    0  0.18007888816E+02 -0.40427444834E+02  0.14813805868E+03  0.15466421430E+03  0.41800000000E+01 0. -1.
         -5    1    3    3    0  502 -0.56682780249E+02  0.56230874301E+02  0.12066824927E+03  0.14475202100E+03  0.41800000000E+01 0. -1.
        -11    1    4    4    0    0  0.96695792549E+01  0.34467651605E+02  0.17694646346E+03  0.18053135656E+03  0.00000000000E+00 0.  1.
         11    1    4    4    0    0  0.29005312177E+02 -0.50271081072E+02  0.75674438973E+02  0.95368288443E+02  0.00000000000E+00 0. -1.
</event>
<event>
 8    1  0.7114239E-009  0.1235428E+03  0.7561462E-02  0.1237364E+00
          2   -1    0    0  501    0  0.00000000000E+00  0.00000000000E+00  0.37523889408E+03  0.37523889408E+03  0.00000000000E+00 0. -1.
         -2   -1    0    0    0  501 -0.00000000000E+00 -0.00000000000E+00 -0.55873752346E+02  0.55873752346E+02  0.00000000000E+00 0.  1.
         25    2    1    2    0    0  0.91809828537E+02  0.30375337343E+02  0.15326291413E+03  0.22020457988E+03  0.12509528536E+03 0.  0.
         23    2    1    2    0    0 -0.91809828537E+02 -0.30375337343E+02  0.16610222761E+03  0.21090806655E+03  0.86836379379E+02 0.  0.
          5    1    3    3  502    0  0.10114588313E+03  0.19184199343E+02  0.16926649681E+03  0.19815938666E+03  0.41800000000E+01 0. -1.
         -5    1    3    3    0  502 -0.93360545962E+01  0.11191138000E+02 -0.16003582686E+02  0.22045193217E+02  0.41800000000E+01 0. -1.
        -11    1    4    4    0    0 -0.11995509728E+02 -0.46019240496E+02  0.74749611211E+02  0.88595525427E+02  0.00000000000E+00 0.  1.
         11    1    4    4    0    0 -0.79814318809E+02  0.15643903153E+02  0.91352616399E+02  0.12231254112E+03  0.00000000000E+00 0. -1.
</event>
<event>
 8    1  0.7114239E-009  0.1362266E+03  0.7561462E-02  0.1218499E+00
         -2   -1    0    0    0  501 -0.00000000000E+00  0.00000000000E+00  0.32787183854E+03  0.32787183854E+03  0.00000000000E+00 0. -1.
          2   -1    0    0  501    0  0.00000000000E+00 -0.00000000000E+00 -0.62892693796E+02  0.62892693796E+02  0.00000000000E+00 0.  1.
         25    2    1    2    0    0 -0.60202019013E+02 -0.68350126537E+02  0.11708099778E+03  0.19404127891E+03  0.12509210601E+03 0.  0.
         23    2    1    2    0    0  0.60202019013E+02  0.68350126537E+02  0.14789814697E+03  0.19672325343E+03  0.92358831059E+02 0.  0.
          5    1    3    3  502    0 -0.85311926063E+02 -0.81091559431E+02  0.11636445432E+03  0.16556607252E+03  0.41800000000E+01 0. -1.
         -5    1    3    3    0  502  0.25109907050E+02  0.12741432894E+02  0.71654345868E+00  0.28475206387E+02  0.41800000000E+01 0. -1.
        -11    1    4    4    0    0 -0.21989752249E+02  0.52978339688E+01  0.11290739066E+02  0.25280368617E+02  0.00000000000E+00 0.  1.
         11    1    4    4    0    0  0.82191771262E+02  0.63052292568E+02  0.13660740790E+03  0.17144288482E+03  0.00000000000E+00 0. -1.
</event>
<event>
 8    1  0.7114239E-009  0.9435632E+02  0.7561462E-02  0.1292632E+00
          1   -1    0    0  501    0  0.00000000000E+00  0.00000000000E+00  0.61557649545E+02  0.61557649545E+02  0.00000000000E+00 0. -1.
         -1   -1    0    0    0  501 -0.00000000000E+00 -0.00000000000E+00 -0.22499668543E+03  0.22499668543E+03  0.00000000000E+00 0.  1.
         25    2    1    2    0    0  0.33462734739E+02 -0.27289491899E+02 -0.76754360870E+02  0.15297971179E+03  0.12508832609E+03 0.  0.
         23    2    1    2    0    0 -0.33462734739E+02  0.27289491899E+02 -0.86684675011E+02  0.13357462318E+03  0.91997152626E+02 0.  0.
          5    1    3    3  502    0  0.13262892281E+02  0.46043722893E+02 -0.50496767485E+01  0.48362179073E+02  0.41800000000E+01 0.  1.
         -5    1    3    3    0  502  0.20199842459E+02 -0.73333214791E+02 -0.71704684122E+02  0.10461753272E+03  0.41800000000E+01 0.  1.
        -11    1    4    4    0    0 -0.16747461682E+02 -0.12749108869E+02 -0.87684612773E+02  0.90175432169E+02  0.00000000000E+00 0.  1.
         11    1    4    4    0    0 -0.16715273057E+02  0.40038600768E+02  0.99993776181E+00  0.43399191010E+02  0.00000000000E+00 0. -1.
</event>
<event>
 8    1  0.7114239E-009  0.2156467E+03  0.7561462E-02  0.1137171E+00
          2   -1    0    0  501    0  0.00000000000E+00  0.00000000000E+00  0.25358445924E+03  0.25358445924E+03  0.00000000000E+00 0. -1.
         -2   -1    0    0    0  501 -0.00000000000E+00 -0.00000000000E+00 -0.29814247750E+03  0.29814247750E+03  0.00000000000E+00 0.  1.
         25    2    1    2    0    0  0.10940710355E+03  0.18056884061E+03 -0.16167064216E+03  0.29387327493E+03  0.12509630160E+03 0.  0.
         23    2    1    2    0    0 -0.10940710355E+03 -0.18056884061E+03  0.11711262389E+03  0.25785366180E+03  0.90543490783E+02 0.  0.
          5    1    3    3  502    0  0.68277257697E+02  0.59147685163E+02 -0.38634671735E+01  0.90513155714E+02  0.41800000000E+01 0. -1.
         -5    1    3    3    0  502  0.41129845856E+02  0.12142115545E+03 -0.15780717498E+03  0.20336011921E+03  0.41800000000E+01 0. -1.
        -11    1    4    4    0    0 -0.67581903374E+02 -0.87490886114E+02  0.10937900531E+03  0.15551763765E+03  0.00000000000E+00 0. -1.
         11    1    4    4    0    0 -0.41825200178E+02 -0.93077954498E+02  0.77336185791E+01  0.10233602415E+03  0.00000000000E+00 0.  1.
</event>
<event>
 8    1  0.7114239E-009  0.1018162E+03  0.7561462E-02  0.1276522E+00
          2   -1    0    0  501    0  0.00000000000E+00  0.00000000000E+00  0.91962961017E+03  0.91962961017E+03  0.00000000000E+00 0.  1.
         -2   -1    0    0    0  501 -0.00000000000E+00 -0.00000000000E+00 -0.22818406818E+02  0.22818406818E+02  0.00000000000E+00 0. -1.
         25    2    1    2    0    0 -0.33239811507E+02  0.15244907450E+02  0.77473406354E+03  0.78561737565E+03  0.12507797343E+03 0.  0.
         23    2    1    2    0    0  0.33239811507E+02 -0.15244907450E+02  0.12207713981E+03  0.15683064134E+03  0.91409680703E+02 0.  0.
          5    1    3    3  502    0 -0.75958695820E+02 -0.14731894639E+02  0.42899872434E+03  0.43594051209E+03  0.41800000000E+01 0.  1.
         -5    1    3    3    0  502  0.42718884313E+02  0.29976802089E+02  0.34573533919E+03  0.34967686356E+03  0.41800000000E+01 0.  1.
        -11    1    4    4    0    0 -0.18293394629E+02 -0.12555870245E+02 -0.21698056579E+01  0.22293636340E+02  0.00000000000E+00 0. -1.
         11    1    4    4    0    0  0.51533206136E+02 -0.26890372048E+01  0.12424694547E+03  0.13453700500E+03  0.00000000000E+00 0.  1.
</event>
<event>
 8    1  0.7114239E-009  0.1448403E+03  0.7561462E-02  0.1206961E+00
         -2   -1    0    0    0  501 -0.00000000000E+00  0.00000000000E+00  0.37891712223E+02  0.37891712223E+02  0.00000000000E+00 0.  1.
          2   -1    0    0  501    0  0.00000000000E+00 -0.00000000000E+00 -0.91644267065E+03  0.91644267065E+03  0.00000000000E+00 0. -1.
         25    2    1    2    0    0  0.12675860334E+03  0.14400781249E+02 -0.67147119972E+03  0.69483541628E+03  0.12509019802E+03 0.  0.
         23    2    1    2    0    0 -0.12675860334E+03 -0.14400781249E+02 -0.20707975870E+03  0.25949896659E+03  0.90457510345E+02 0.  0.
          5    1    3    3  502    0  0.28712728280E+02  0.49879624184E+02 -0.39745285261E+03  0.40162001957E+03  0.41800000000E+01 0. -1.
         -5    1    3    3    0  502  0.98045875056E+02 -0.35478842935E+02 -0.27401834711E+03  0.29321539671E+03  0.41800000000E+01 0. -1.
        -11    1    4    4    0    0 -0.36493055892E+02 -0.57778939879E+01 -0.14493626742E+03  0.14957155077E+03  0.00000000000E+00 0. -1.
         11    1    4    4    0    0 -0.90265547444E+02 -0.86228872610E+01 -0.62143491288E+02  0.10992741582E+03  0.00000000000E+00 0.  1.
</event>
<event>
 8    1  0.7114239E-009  0.9906764E+02  0.7561462E-02  0.1282269E+00
         -2   -1    0    0    0  501 -0.00000000000E+00  0.00000000000E+00  0.21316590005E+02  0.21316590005E+02  0.00000000000E+00 0.  1.
          2   -1    0    0  501    0  0.00000000000E+00 -0.00000000000E+00 -0.69492130743E+03  0.69492130743E+03  0.00000000000E+00 0. -1.
         25    2    1    2    0    0  0.24252687713E+02 -0.44238534361E+02 -0.48175199052E+03  0.50027767055E+03  0.12509007351E+03 0.  0.
         23    2    1    2    0    0 -0.24252687713E+02  0.44238534361E+02 -0.19185272690E+03  0.21596022688E+03  0.85358713636E+02 0.  0.
          5    1    3    3  502    0  0.17253763283E+02  0.33917825962E+02 -0.59330455140E+02  0.70609394365E+02  0.41800000000E+01 0.  1.
         -5    1    3    3    0  502  0.69989244299E+01 -0.78156360323E+02 -0.42242153538E+03  0.42966827618E+03  0.41800000000E+01 0.  1.
        -11    1    4    4    0    0  0.13996607847E+02  0.40488236657E+02 -0.37625506489E+02  0.57016498291E+02  0.00000000000E+00 0.  1.
         11    1    4    4    0    0 -0.38249295560E+02  0.37502977035E+01 -0.15422722041E+03  0.15894372859E+03  0.00000000000E+00 0. -1.
</event>
<event>
 8    1  0.7114239E-009  0.1327883E+03  0.7561462E-02  0.1223376E+00
          1   -1    0    0  501    0  0.00000000000E+00  0.00000000000E+00  0.39120661410E+03  0.39120661410E+03  0.00000000000E+00 0. -1.
         -1   -1    0    0    0  501 -0.00000000000E+00 -0.00000000000E+00 -0.55803148992E+02  0.55803148992E+02  0.00000000000E+00 0.  1.
         25    2    1    2    0    0 -0.45922746843E+02 -0.87711155078E+02  0.16396168448E+03  0.22876517762E+03  0.12509167483E+03 0.  0.
         23    2    1    2    0    0  0.45922746843E+02  0.87711155078E+02  0.17144178063E+03  0.21824458547E+03  0.91849167333E+02 0.  0.
          5    1    3    3  502    0 -0.63016804306E+02  0.38607461005E+01  0.88589201926E+02  0.10886478808E+03  0.41800000000E+01 0. -1.
         -5    1    3    3    0  502  0.17094057463E+02 -0.91571901179E+02  0.75372482554E+02  0.11990038954E+03  0.41800000000E+01 0. -1.
        -11    1    4    4    0    0  0.18227342908E+02  0.77377644823E+02  0.51513301252E+02  0.94726744659E+02  0.00000000000E+00 0.  1.
         11    1    4    4    0    0  0.27695403935E+02  0.10333510255E+02  0.11992847938E+03  0.12351784081E+03  0.00000000000E+00 0. -1.
</event>
<event>
 8    1  0.7114239E-009  0.2123287E+03  0.7561462E-02  0.1139735E+00
         -2   -1    0    0    0  501 -0.00000000000E+00  0.00000000000E+00  0.56754978809E+02  0.56754978809E+02  0.00000000000E+00 0.  1.
          2   -1    0    0  501    0  0.00000000000E+00 -0.00000000000E+00 -0.88422914268E+03  0.88422914268E+03  0.00000000000E+00 0. -1.
         25    2    1    2    0    0  0.16352000831E+03  0.10206265620E+03 -0.49538790264E+03  0.54608970497E+03  0.12509681407E+03 0.  0.
         23    2    1    2    0    0 -0.16352000831E+03 -0.10206265620E+03 -0.33208626123E+03  0.39489441651E+03  0.92221127660E+02 0.  0.
          5    1    3    3  502    0  0.65124100854E+02  0.10508633354E+03 -0.20488105542E+03  0.23932823753E+03  0.41800000000E+01 0.  1.
         -5    1    3    3    0  502  0.98395907451E+02 -0.30236773395E+01 -0.29050684722E+03  0.30676146745E+03  0.41800000000E+01 0.  1.
        -11    1    4    4    0    0 -0.60910927785E+02 -0.48901434716E+01 -0.48382329942E+02  0.77941673560E+02  0.00000000000E+00 0.  1.
         11    1    4    4    0    0 -0.10260908052E+03 -0.97172512730E+02 -0.28370393129E+03  0.31695274295E+03  0.00000000000E+00 0. -1.
</event>
<event>
 8    1  0.7114239E-009  0.1131844E+03  0.7561462E-02  0.1254784E+00
          2   -1    0    0  501    0  0.00000000000E+00  0.00000000000E+00  0.10658511309E+03  0.10658511309E+03  0.00000000000E+00 0. -1.
         -2   -1    0    0    0  501 -0.00000000000E+00 -0.00000000000E+00 -0.12399353073E+03  0.12399353073E+03  0.00000000000E+00 0.  1.
         25    2    1    2    0    0  0.30979007063E+02  0.29571715460E+02  0.34098756869E+01  0.13226249227E+03  0.12509018497E+03 0.  0.
         23    2    1    2    0    0 -0.30979007063E+02 -0.29571715460E+02 -0.20818293325E+02  0.98316151544E+02  0.86014412069E+02 0.  0.
          5    1    3    3  502    0  0.37976294744E+02 -0.43516478464E+02  0.85770794499E+01  0.58539914180E+02  0.41800000000E+01 0.  1.
         -5    1    3    3    0  502 -0.69972876812E+01  0.73088193923E+02 -0.51672037630E+01  0.73722578093E+02  0.41800000000E+01 0.  1.
        -11    1    4    4    0    0  0.29596622197E+02 -0.86994200368E+01  0.31430032486E+00  0.30850263194E+02  0.00000000000E+00 0. -1.
         11    1    4    4    0    0 -0.60575629260E+02 -0.20872295423E+02 -0.21132593650E+02  0.67465888350E+02  0.00000000000E+00 0.  1.
</event>
<event>
 8    1  0.7114239E-009  0.3302653E+03  0.7561462E-02  0.1071020E+00
         -2   -1    0    0    0  501 -0.00000000000E+00  0.00000000000E+00  0.12445850569E+03  0.12445850569E+03  0.00000000000E+00 0.  1.
          2   -1    0    0  501    0  0.00000000000E+00 -0.00000000000E+00 -0.96455019167E+03  0.96455019167E+03  0.00000000000E+00 0. -1.
         25    2    1    2    0    0  0.88413138031E+01 -0.32210508196E+03 -0.32259544718E+03  0.47280389533E+03  0.12508336521E+03 0.  0.
         23    2    1    2    0    0 -0.88413138031E+01  0.32210508196E+03 -0.51749623880E+03  0.61620480202E+03  0.89867392335E+02 0.  0.
          5    1    3    3  502    0 -0.13815953822E+02 -0.27864875468E+03 -0.20775345028E+03  0.34787207069E+03  0.41800000000E+01 0. -1.
         -5    1    3    3    0  502  0.22657267625E+02 -0.43456327279E+02 -0.11484199690E+03  0.12493182465E+03  0.41800000000E+01 0. -1.
        -11    1    4    4    0    0 -0.24536672040E+02  0.25811072050E+02 -0.80184281251E+02  0.87736985787E+02  0.00000000000E+00 0. -1.
         11    1    4    4    0    0  0.15695358237E+02  0.29629400991E+03 -0.43731195755E+03  0.52846781623E+03  0.00000000000E+00 0.  1.
</event>
<event>
 8    1  0.7114239E-009  0.1539767E+03  0.7561462E-02  0.1195670E+00
          2   -1    0    0  501    0  0.00000000000E+00  0.00000000000E+00  0.11079163906E+04  0.11079163906E+04  0.00000000000E+00 0.  1.
         -2   -1    0    0    0  501 -0.00000000000E+00 -0.00000000000E+00 -0.26892960260E+02  0.26892960260E+02  0.00000000000E+00 0. -1.
         25    2    1    2    0    0  0.44780930481E+02 -0.11235134349E+03  0.75480961659E+03  0.77460418060E+03  0.12508366477E+03 0.  0.
         23    2    1    2    0    0 -0.44780930481E+02  0.11235134349E+03  0.32621381371E+03  0.36020517022E+03  0.93296067856E+02 0.  0.
          5    1    3    3  502    0  0.74969267759E+02 -0.67405340809E+02  0.63622844719E+03  0.64418008390E+03  0.41800000000E+01 0. -1.
         -5    1    3    3    0  502 -0.30188337279E+02 -0.44946002681E+02  0.11858116940E+03  0.13042409670E+03  0.41800000000E+01 0. -1.
        -11    1    4    4    0    0 -0.45933058188E+02  0.59246274114E+01  0.99888426301E+02  0.11010288258E+03  0.00000000000E+00 0.  1.
         11    1    4    4    0    0  0.11521277068E+01  0.10642671608E+03  0.22632538741E+03  0.25010228763E+03  0.00000000000E+00 0. -1.
</event>
<event>
 8    1  0.7114239E-009  0.1061394E+03  0.7561462E-02  0.1267891E+00
         -2   -1    0    0    0  501 -0.00000000000E+00  0.00000000000E+00  0.13794123384E+04  0.13794123384E+04  0.00000000000E+00 0.  1.
          2   -1    0    0  501    0  0.00000000000E+00 -0.00000000000E+00 -0.16082371746E+02  0.16082371746E+02  0.00000000000E+00 0. -1.
         25    2    1    2    0    0  0.45941404705E+02  0.97038991794E+01  0.11664959909E+04  0.11741231803E+04  0.12509023693E+03 0.  0.
         23    2    1    2    0    0 -0.45941404705E+02 -0.97038991794E+01  0.19683397578E+03  0.22137152988E+03  0.89760580975E+02 0.  0.
          5    1    3    3  502    0 -0.22876748152E+02  0.36299482416E+02  0.74138125182E+03  0.74263357787E+03  0.41800000000E+01 0. -1.
         -5    1    3    3    0  502  0.68818152857E+02 -0.26595583237E+02  0.42511473909E+03  0.43148960242E+03  0.41800000000E+01 0. -1.
        -11    1    4    4    0    0  0.24207684969E+02 -0.64271480343E+01  0.23470585506E+02  0.34324752401E+02  0.00000000000E+00 0.  1.
         11    1    4    4    0    0 -0.70149089674E+02 -0.32767511452E+01  0.17336339027E+03  0.18704677748E+03  0.00000000000E+00 0. -1.
</event>
<event>
 8    1  0.7114239E-009  0.1131887E+03  0.7561462E-02  0.1254776E+00
         -1   -1    0    0    0  501 -0.00000000000E+00  0.00000000000E+00  0.18549246817E+02  0.18549246817E+02  0.00000000000E+00 0.  1.
          1   -1    0    0  501    0  0.00000000000E+00 -0.00000000000E+00 -0.88177242385E+03  0.88177242385E+03  0.00000000000E+00 0. -1.
         25    2    1    2    0    0  0.43014824508E+02 -0.29524487531E+02 -0.62376128880E+03  0.63831529673E+03  0.12508517951E+03 0.  0.
         23    2    1    2    0    0 -0.43014824508E+02  0.29524487531E+02 -0.23946188823E+03  0.26200637394E+03  0.92646497937E+02 0.  0.
          5    1    3    3  502    0  0.55429511167E+02  0.31785346559E+02 -0.42790588167E+03  0.43267037677E+03  0.41800000000E+01 0. -1.
         -5    1    3    3    0  502 -0.12414686659E+02 -0.61309834090E+02 -0.19585540713E+03  0.20564491995E+03  0.41800000000E+01 0. -1.
        -11    1    4    4    0    0  0.25664942943E+02  0.22850624040E+01 -0.28207241101E+02  0.38204178528E+02  0.00000000000E+00 0.  1.
         11    1    4    4    0    0 -0.68679767451E+02  0.27239425127E+02 -0.21125464713E+03  0.22380219541E+03  0.00000000000E+00 0. -1.
</event>
<event>
 8    1  0.7114239E-009  0.1186996E+03  0.7561462E-02  0.1245258E+00
         -1   -1    0    0    0  501 -0.00000000000E+00  0.00000000000E+00  0.38689481964E+03  0.38689481964E+03  0.00000000000E+00 0.  1.
          1   -1    0    0  501    0  0.00000000000E+00 -0.00000000000E+00 -0.56226246063E+02  0.56226246063E+02  0.00000000000E+00 0. -1.
         25    2    1    2    0    0 -0.88228785996E+02 -0.38621191577E+02  0.21562299383E+03  0.26723894349E+03  0.12508981706E+03 0.  0.
         23    2    1    2    0    0  0.88228785996E+02  0.38621191577E+02  0.11504557975E+03  0.17588212222E+03  0.91777559231E+02 0.  0.
          5    1    3    3  502    0 -0.42921571175E+02 -0.40167998465E+02  0.21369456019E+03  0.22167220581E+03  0.41800000000E+01 0.  1.
         -5    1    3    3    0  502 -0.45307214821E+02  0.15468068885E+01  0.19284336360E+01  0.45566737679E+02  0.41800000000E+01 0.  1.
        -11    1    4    4    0    0  0.44600408186E+02  0.67294208741E+02  0.73149532592E+02  0.10894292569E+03  0.00000000000E+00 0.  1.
         11    1    4    4    0    0  0.43628377810E+02 -0.28673017164E+02  0.41896047162E+02  0.66939196525E+02  0.00000000000E+00 0. -1.
</event>
<event>
 8    1  0.7114239E-009  0.1154670E+03  0.7561462E-02  0.1250768E+00
          2   -1    0    0  501    0  0.00000000000E+00  0.00000000000E+00  0.30395819852E+03  0.30395819852E+03  0.00000000000E+00 0. -1.
         -2   -1    0    0    0  501 -0.00000000000E+00 -0.00000000000E+00 -0.61239012216E+02  0.61239012216E+02  0.00000000000E+00 0.  1.
         25    2    1    2    0    0 -0.71690142169E+02  0.38183789729E+02  0.12316003173E+03  0.19342741034E+03  0.12509313080E+03 0.  0.
         23    2    1    2    0    0  0.71690142169E+02 -0.38183789729E+02  0.11955915457E+03  0.17176980039E+03  0.92806220713E+02 0.  0.
          5    1    3    3  502    0 -0.91857614452E+02  0.55293369474E+02  0.55796616729E+02  0.12093764046E+03  0.41800000000E+01 0. -1.
         -5    1    3    3    0  502  0.20167472282E+02 -0.17109579745E+02  0.67363415001E+02  0.72489769884E+02  0.41800000000E+01 0. -1.
        -11    1    4    4    0    0  0.28163738012E+02  0.11840566931E+02  0.97047632141E+02  0.10174300009E+03  0.00000000000E+00 0. -1.
         11    1    4    4    0    0  0.43526404157E+02 -0.50024356660E+02  0.22511522432E+02  0.70026800300E+02  0.00000000000E+00 0.  1.
</event>
<event>
 8    1  0.7114239E-009  0.1020146E+03  0.7561462E-02  0.1276116E+00
          3   -1    0    0  501    0  0.00000000000E+00  0.00000000000E+00  0.18290549286E+03  0.18290549286E+03  0.00000000000E+00 0. -1.
         -3   -1    0    0    0  501 -0.00000000000E+00 -0.00000000000E+00 -0.75159580616E+02  0.75159580616E+02  0.00000000000E+00 0.  1.
         25    2    1    2    0    0 -0.24945992251E+02 -0.33637233326E+02  0.58108102443E+02  0.14414330704E+03  0.12508787072E+03 0.  0.
         23    2    1    2    0    0  0.24945992251E+02  0.33637233326E+02  0.49637809805E+02  0.11392176644E+03  0.93597493079E+02 0.  0.
          5    1    3    3  502    0 -0.72138566633E+02 -0.39461108690E+01  0.15912958385E+02  0.74096148560E+02  0.41800000000E+01 0.  1.
         -5    1    3    3    0  502  0.47192574382E+02 -0.29691122457E+02  0.42195144057E+02  0.70047158483E+02  0.41800000000E+01 0.  1.
        -11    1    4    4    0    0  0.40809357993E+02  0.25983412472E+01 -0.12426683293E+02  0.42738478386E+02  0.00000000000E+00 0.  1.
         11    1    4    4    0    0 -0.15863365742E+02  0.31038892079E+02  0.62064493098E+02  0.71183288051E+02  0.00000000000E+00 0. -1.
</event>
<event>
 8    1  0.7114239E-009  0.8269047E+02  0.7561462E-02  0.1321585E+00
         -1   -1    0    0    0  501 -0.00000000000E+00  0.00000000000E+00  0.10329741925E+03  0.10329741925E+03  0.00000000000E+00 0.  1.
          1   -1    0    0  501    0  0.00000000000E+00 -0.00000000000E+00 -0.11827767602E+03  0.11827767602E+03  0.00000000000E+00 0. -1.
         25    2    1    2    0    0 -0.10047867571E+02  0.20660859788E+02 -0.10529757718E+01  0.12718884590E+03  0.12509221795E+03 0.  0.
         23    2    1    2    0    0  0.10047867571E+02 -0.20660859788E+02 -0.13927280997E+02  0.94386249377E+02  0.90481844287E+02 0.  0.
          5    1    3    3  502    0  0.12999564164E+02  0.50996315179E+02 -0.44648535788E+02  0.69141716628E+02  0.41800000000E+01 0. -1.
         -5    1    3    3    0  502 -0.23047431735E+02 -0.30335455390E+02  0.43595560016E+02  0.58047129269E+02  0.41800000000E+01 0. -1.
        -11    1    4    4    0    0 -0.28251632482E+02 -0.22201632328E+02  0.21766422727E+02  0.42010050872E+02  0.00000000000E+00 0.  1.
         11    1    4    4    0    0  0.38299500053E+02  0.15407725400E+01 -0.35693703724E+02  0.52376198505E+02  0.00000000000E+00 0. -1.
</event>
<event>
 8    1  0.7114239E-009  0.1324928E+03  0.7561462E-02  0.1223803E+00
         -2   -1    0    0    0  501 -0.00000000000E+00  0.00000000000E+00  0.45850522342E+02  0.45850522342E+02  0.00000000000E+00 0.  1.
          2   -1    0    0  501    0  0.00000000000E+00 -0.00000000000E+00 -0.42495362391E+03  0.42495362391E+03  0.00000000000E+00 0. -1.
         25    2    1    2    0    0 -0.78359962288E+02 -0.24576897488E+02 -0.15130578199E+03  0.21281221425E+03  0.12510512095E+03 0.  0.
         23    2    1    2    0    0  0.78359962288E+02  0.24576897488E+02 -0.22779731958E+03  0.25799193201E+03  0.89016350153E+02 0.  0.
          5    1    3    3  502    0 -0.47303286297E+02 -0.75300900805E+02 -0.78349010513E+02  0.11859117339E+03  0.41800000000E+01 0.  1.
         -5    1    3    3    0  502 -0.31056675991E+02  0.50724003317E+02 -0.72956771480E+02  0.94221040861E+02  0.41800000000E+01 0.  1.
        -11    1    4    4    0    0  0.93908574431E+02  0.90156685231E+01 -0.15048982727E+03  0.17761557010E+03  0.00000000000E+00 0.  1.
         11    1    4    4    0    0 -0.15548612143E+02  0.15561228965E+02 -0.77307492310E+02  0.80376361909E+02  0.00000000000E+00 0. -1.
</event>
<event>
 8    1  0.7114239E-009  0.1898676E+03  0.7561462E-02  0.1158581E+00
          2   -1    0    0  501    0  0.00000000000E+00  0.00000000000E+00  0.48466134821E+03  0.48466134821E+03  0.00000000000E+00 0. -1.
         -2   -1    0    0    0  501 -0.00000000000E+00 -0.00000000000E+00 -0.90062706942E+02  0.90062706942E+02  0.00000000000E+00 0.  1.
         25    2    1    2    0    0  0.15331583230E+03 -0.89639794979E+02  0.21576839975E+03  0.30617771189E+03  0.12509097349E+03 0.  0.
         23    2    1    2    0    0 -0.15331583230E+03  0.89639794979E+02  0.17883024152E+03  0.26854634327E+03  0.92713784971E+02 0.  0.
          5    1    3    3  502    0  0.27223867793E+02  0.14212793135E+02 -0.51227943970E+01  0.31414294337E+02  0.41800000000E+01 0. -1.
         -5    1    3    3    0  502  0.12609196451E+03 -0.10385258811E+03  0.22089119415E+03  0.27476341755E+03  0.41800000000E+01 0. -1.
        -11    1    4    4    0    0 -0.50233529501E+02  0.59636598484E+02  0.26843067048E+02  0.82465032671E+02  0.00000000000E+00 0.  1.
         11    1    4    4    0    0 -0.10308230280E+03  0.30003196495E+02  0.15198717447E+03  0.18608131060E+03  0.00000000000E+00 0. -1.
</event>
<event>
 8    1  0.7114239E-009  0.1275662E+03  0.7561462E-02  0.1231112E+00
         -2   -1    0    0    0  501 -0.00000000000E+00  0.00000000000E+00  0.20105895326E+02  0.20105895326E+02  0.00000000000E+00 0.  1.
          2   -1    0    0  501    0  0.00000000000E+00 -0.00000000000E+00 -0.12197735916E+04  0.12197735916E+04  0.00000000000E+00 0. -1.
         25    2    1    2    0    0 -0.69479681143E+02 -0.26631284122E+02 -0.97337927463E+03  0.98420071166E+03  0.12508867718E+03 0.  0.
         23    2    1    2    0    0  0.69479681143E+02  0.26631284122E+02 -0.22628842163E+03  0.25567877526E+03  0.92889907777E+02 0.  0.
          5    1    3    3  502    0 -0.55988836369E+02 -0.74143784860E+02 -0.72346395087E+03  0.72941730939E+03  0.41800000000E+01 0.  1.
         -5    1    3    3    0  502 -0.13490844774E+02  0.47512500738E+02 -0.24991532376E+03  0.25478340226E+03  0.41800000000E+01 0.  1.
        -11    1    4    4    0    0 -0.14606360716E+02 -0.13046894957E+02 -0.14463985908E+02  0.24346953192E+02  0.00000000000E+00 0.  1.
         11    1    4    4    0    0  0.84086041859E+02  0.39678179079E+02 -0.21182443572E+03  0.23133182206E+03  0.00000000000E+00 0. -1.
</event>
<event>
 8    1  0.7114239E-009  0.8134402E+02  0.7561462E-02  0.1325280E+00
         -2   -1    0    0    0  501 -0.00000000000E+00  0.00000000000E+00  0.52971792947E+02  0.52971792947E+02  0.00000000000E+00 0.  1.
          2   -1    0    0  501    0  0.00000000000E+00 -0.00000000000E+00 -0.24829075635E+03  0.24829075635E+03  0.00000000000E+00 0. -1.
         25    2    1    2    0    0  0.11847715157E+01 -0.23011345226E+02 -0.14995915782E+03  0.19663826369E+03  0.12509169453E+03 0.  0.
         23    2    1    2    0    0 -0.11847715157E+01  0.23011345226E+02 -0.45359805583E+02  0.10462428561E+03  0.91421023202E+02 0.  0.
          5    1    3    3  502    0 -0.70727511457E+01 -0.74464625143E+02 -0.88020667230E+02  0.11558596137E+03  0.41800000000E+01 0. -1.
         -5    1    3    3    0  502  0.82575226614E+01  0.51453279918E+02 -0.61938490592E+02  0.81052302321E+02  0.41800000000E+01 0. -1.
        -11    1    4    4    0    0  0.12516031561E+02  0.67201912449E+01 -0.70365559285E+02  0.71785262763E+02  0.00000000000E+00 0. -1.
         11    1    4    4    0    0 -0.13700803077E+02  0.16291153981E+02  0.25005753703E+02  0.32839022842E+02  0.00000000000E+00 0.  1.
</event>
<event>
 8    1  0.7114239E-009  0.1076665E+03  0.7561462E-02  0.1264953E+00
         -1   -1    0    0    0  501 -0.00000000000E+00  0.00000000000E+00  0.54631880437E+03  0.54631880437E+03  0.00000000000E+00 0.  1.
          1   -1    0    0  501    0  0.00000000000E+00 -0.00000000000E+00 -0.29192189115E+02  0.29192189115E+02  0.00000000000E+00 0. -1.
         25    2    1    2    0    0 -0.49849043842E+02 -0.25174547484E+02  0.22670311107E+03  0.26487910649E+03  0.12509178820E+03 0.  0.
         23    2    1    2    0    0  0.49849043842E+02  0.25174547484E+02  0.29042350419E+03  0.31063188699E+03  0.95014064325E+02 0.  0.
          5    1    3    3  502    0 -0.87978097809E+02 -0.21583290962E+01  0.17885386609E+03  0.19937648280E+03  0.41800000000E+01 0.  1.
         -5    1    3    3    0  502  0.38129053967E+02 -0.23016218388E+02  0.47849244974E+02  0.65502623687E+02  0.41800000000E+01 0.  1.
        -11    1    4    4    0    0  0.53374411281E+02  0.40354240695E+02  0.28697314999E+03  0.29467080164E+03  0.00000000000E+00 0.  1.
         11    1    4    4    0    0 -0.35253674389E+01 -0.15179693211E+02  0.34503541923E+01  0.15961085352E+02  0.00000000000E+00 0. -1.
</event>
<event>
 8    1  0.7114239E-009  0.1248948E+03  0.7561462E-02  0.1235234E+00
         -4   -1    0    0    0  501 -0.00000000000E+00  0.00000000000E+00  0.31818456624E+02  0.31818456624E+02  0.00000000000E+00 0.  1.
          4   -1    0    0  501    0  0.00000000000E+00 -0.00000000000E+00 -0.69950894117E+03  0.69950894117E+03  0.00000000000E+00 0. -1.
         25    2    1    2    0    0  0.25550878667E+02  0.95485119980E+02 -0.29645592673E+03  0.33660622614E+03  0.12508948575E+03 0.  0.
         23    2    1    2    0    0 -0.25550878667E+02 -0.95485119980E+02 -0.37123455782E+03  0.39472117166E+03  0.90661187384E+02 0.  0.
          5    1    3    3  502    0  0.21663082165E+02 -0.25755902107E+01  0.20954477817E+01  0.22311120439E+02  0.41800000000E+01 0.  1.
         -5    1    3    3    0  502  0.38877965021E+01  0.98060710190E+02 -0.29855137451E+03  0.31429510570E+03  0.41800000000E+01 0.  1.
        -11    1    4    4    0    0  0.70583936289E+01 -0.96468328778E+02 -0.31701768196E+03  0.33144557630E+03  0.00000000000E+00 0.  1.
         11    1    4    4    0    0 -0.32609272296E+02  0.98320879866E+00 -0.54216875861E+02  0.63275595353E+02  0.00000000000E+00 0. -1.
</event>
<event>
 8    1  0.7114239E-009  0.8355195E+02  0.7561462E-02  0.1319263E+00
          1   -1    0    0  501    0  0.00000000000E+00  0.00000000000E+00  0.57922862013E+02  0.57922862013E+02  0.00000000000E+00 0. -1.
         -1   -1    0    0    0  501 -0.00000000000E+00 -0.00000000000E+00 -0.30039137188E+03  0.30039137188E+03  0.00000000000E+00 0.  1.
         25    2    1    2    0    0 -0.91291063735E+01  0.35648819420E+02 -0.45168625267E+02  0.13798467373E+03  0.12508151968E+03 0.  0.
         23    2    1    2    0    0  0.91291063735E+01 -0.35648819420E+02 -0.19729988460E+03  0.22032956017E+03  0.90904849757E+02 0.  0.
          5    1    3    3  502    0  0.24186020449E+02  0.75215887132E+01 -0.78726606230E+02  0.82806333154E+02  0.41800000000E+01 0.  1.
         -5    1    3    3    0  502 -0.33315126823E+02  0.28127230707E+02  0.33557980962E+02  0.55178340576E+02  0.41800000000E+01 0.  1.
        -11    1    4    4    0    0 -0.40833382231E+02 -0.18255810825E+02 -0.80089527306E+02  0.91733157132E+02  0.00000000000E+00 0. -1.
         11    1    4    4    0    0  0.49962488604E+02 -0.17393008595E+02 -0.11721035730E+03  0.12859640303E+03  0.00000000000E+00 0.  1.
</event>
<event>
 8    1  0.7114239E-009  0.7950500E+02  0.7561462E-02  0.1330462E+00
         -2   -1    0    0    0  501 -0.00000000000E+00  0.00000000000E+00  0.53440410758E+02  0.53440410758E+02  0.00000000000E+00 0.  1.
          2   -1    0    0  501    0  0.00000000000E+00 -0.00000000000E+00 -0.25688390642E+03  0.25688390642E+03  0.00000000000E+00 0. -1.
         25    2    1    2    0    0  0.14840976427E+02 -0.37505266399E+02 -0.85664248870E+02  0.15688646735E+03  0.12509236793E+03 0.  0.
         23    2    1    2    0    0 -0.14840976427E+02  0.37505266399E+02 -0.11777924680E+03  0.15343784983E+03  0.89690151050E+02 0.  0.
          5    1    3    3  502    0 -0.28691192648E+01 -0.44128818659E+02 -0.11412385097E+03  0.12246350575E+03  0.41800000000E+01 0. -1.
         -5    1    3    3    0  502  0.17710095692E+02  0.66235522602E+01  0.28459602096E+02  0.34422961601E+02  0.41800000000E+01 0. -1.
        -11    1    4    4    0    0 -0.31705415084E+02 -0.18519706452E+02 -0.27571121990E+02  0.45917095297E+02  0.00000000000E+00 0.  1.
         11    1    4    4    0    0  0.16864438657E+02  0.56024972850E+02 -0.90208124807E+02  0.10752075453E+03  0.00000000000E+00 0. -1.
</event>
<event>
 8    1  0.7114239E-009  0.1156193E+03  0.7561462E-02  0.1250504E+00
         -2   -1    0    0    0  501 -0.00000000000E+00  0.00000000000E+00  0.10044739031E+03  0.10044739031E+03  0.00000000000E+00 0.  1.
          2   -1    0    0  501    0  0.00000000000E+00 -0.00000000000E+00 -0.14355933685E+03  0.14355933685E+03  0.00000000000E+00 0. -1.
         25    2    1    2    0    0  0.43772528898E+02 -0.12410229856E+02 -0.50684929376E+02  0.14243266360E+03  0.12509218002E+03 0.  0.
         23    2    1    2    0    0 -0.43772528898E+02  0.12410229856E+02  0.75729828373E+01  0.10157406355E+03  0.90498023329E+02 0.  0.
          5    1    3    3  502    0  0.63232465872E+02  0.40418185365E+02 -0.18333584927E+02  0.77366447409E+02  0.41800000000E+01 0. -1.
         -5    1    3    3    0  502 -0.19459936974E+02 -0.52828415221E+02 -0.32351344448E+02  0.65066216191E+02  0.41800000000E+01 0. -1.
        -11    1    4    4    0    0 -0.22266880114E+02  0.50885809901E+02  0.13330676964E+02  0.57121681940E+02  0.00000000000E+00 0.  1.
         11    1    4    4    0    0 -0.21505648784E+02 -0.38475580045E+02 -0.57576941265E+01  0.44452381613E+02  0.00000000000E+00 0. -1.
</event>
<event>
 8    1  0.7114239E-009  0.1306437E+03  0.7561462E-02  0.1226504E+00
         -2   -1    0    0    0  501 -0.00000000000E+00  0.00000000000E+00  0.47834923934E+02  0.47834923934E+02  0.00000000000E+00 0.  1.
          2   -1    0    0  501    0  0.00000000000E+00 -0.00000000000E+00 -0.39217469465E+03  0.39217469465E+03  0.00000000000E+00 0. -1.
         25    2    1    2    0    0 -0.82389005141E+02  0.12775167689E+02 -0.17930045258E+03  0.23398179831E+03  0.12509067337E+03 0.  0.
         23    2    1    2    0    0  0.82389005141E+02 -0.12775167689E+02 -0.16503931813E+03  0.20602782027E+03  0.90875371362E+02 0.  0.
          5    1    3    3  502    0  0.13788276169E+02 -0.30739136435E+02 -0.88106124480E+02  0.94420191905E+02  0.41800000000E+01 0. -1.
         -5    1    3    3    0  502 -0.96177281309E+02  0.43514304124E+02 -0.91194328105E+02  0.13956160640E+03  0.41800000000E+01 0. -1.
        -11    1    4    4    0    0  0.52961282615E+02  0.36485299978E+02 -0.70412212459E+02  0.95362226453E+02  0.00000000000E+00 0.  1.
         11    1    4    4    0    0  0.29427722526E+02 -0.49260467668E+02 -0.94627105670E+02  0.11066559382E+03  0.00000000000E+00 0. -1.
</event>
<event>
 8    1  0.7114239E-009  0.9493988E+02  0.7561462E-02  0.1291312E+00
         -4   -1    0    0    0  501 -0.00000000000E+00  0.00000000000E+00  0.14766277404E+03  0.14766277404E+03  0.00000000000E+00 0.  1.
          4   -1    0    0  501    0  0.00000000000E+00 -0.00000000000E+00 -0.98260798962E+02  0.98260798962E+02  0.00000000000E+00 0. -1.
         25    2    1    2    0    0 -0.50769114166E+02  0.31473549936E+01  0.18712752823E+02  0.13632334064E+03  0.12508587966E+03 0.  0.
         23    2    1    2    0    0  0.50769114166E+02 -0.31473549936E+01  0.30689222255E+02  0.10960023236E+03  0.92103060611E+02 0.  0.
          5    1    3    3  502    0 -0.23379258775E+02  0.36943220454E+02  0.61229502235E+02  0.75351945046E+02  0.41800000000E+01 0.  1.
         -5    1    3    3    0  502 -0.27389855391E+02 -0.33795865460E+02 -0.42516749412E+02  0.60971395597E+02  0.41800000000E+01 0.  1.
        -11    1    4    4    0    0 -0.25098640714E+02 -0.77050937981E+01  0.19659655723E+02  0.32799577730E+02  0.00000000000E+00 0.  1.
         11    1    4    4    0    0  0.75867754880E+02  0.45577388045E+01  0.11029566532E+02  0.76800654629E+02  0.00000000000E+00 0. -1.
</event>
<event>
 8    1  0.7114239E-009  0.1002506E+03  0.7561462E-02  0.1279770E+00
          2   -1    0    0  501    0  0.00000000000E+00  0.00000000000E+00  0.70308764063E+03  0.70308764063E+03  0.00000000000E+00 0. -1.
         -2   -1    0    0    0  501 -0.00000000000E+00 -0.00000000000E+00 -0.32927844150E+02  0.32927844150E+02  0.00000000000E+00 0.  1.
         25    2    1    2    0    0  0.32144553371E+02 -0.38628572094E+02  0.58530685488E+03  0.60063001356E+03  0.12508740916E+03 0.  0.
         23    2    1    2    0    0 -0.32144553371E+02  0.38628572094E+02  0.84852941600E+02  0.13538547122E+03  0.92756483466E+02 0.  0.
          5    1    3    3  502    0  0.13455098611E+02 -0.62814626951E+02  0.13817654065E+03  0.15243669448E+03  0.41800000000E+01 0.  1.
         -5    1    3    3    0  502  0.18689454760E+02  0.24186054857E+02  0.44713031422E+03  0.44819331908E+03  0.41800000000E+01 0.  1.
        -11    1    4    4    0    0 -0.63109063485E+02  0.11583989616E+02  0.47418884422E+02  0.79784041695E+02  0.00000000000E+00 0.  1.
         11    1    4    4    0    0  0.30964510114E+02  0.27044582478E+02  0.37434057178E+02  0.55601429522E+02  0.00000000000E+00 0. -1.
</event>
<event>
 8    1  0.7114239E-009  0.9205412E+02  0.7561462E-02  0.1297952E+00
          1   -1    0    0  501    0  0.00000000000E+00  0.00000000000E+00  0.17358793519E+03  0.17358793519E+03  0.00000000000E+00 0. -1.
         -1   -1    0    0    0  501 -0.00000000000E+00 -0.00000000000E+00 -0.13060141010E+03  0.13060141010E+03  0.00000000000E+00 0.  1.
         25    2    1    2    0    0 -0.23843860373E+02  0.63572672682E+02 -0.56165271258E+02  0.15300877887E+03  0.12508850597E+03 0.  0.
         23    2    1    2    0    0  0.23843860373E+02 -0.63572672682E+02  0.99151796349E+02  0.15118056643E+03  0.91730423285E+02 0.  0.
          5    1    3    3  502    0 -0.24375936979E+02  0.50167579922E+02 -0.95813325504E+02  0.11094430189E+03  0.41800000000E+01 0. -1.
         -5    1    3    3    0  502  0.53207660604E+00  0.13405092759E+02  0.39648054246E+02  0.42064476972E+02  0.41800000000E+01 0. -1.
        -11    1    4    4    0    0  0.49743802245E+02 -0.71442812180E+02  0.75380891841E+02  0.11515554754E+03  0.00000000000E+00 0. -1.
         11    1    4    4    0    0 -0.25899941872E+02  0.78701394985E+01  0.23770904508E+02  0.36025018887E+02  0.00000000000E+00 0.  1.
</event>
<event>
 8    1  0.7114239E-009  0.1250873E+03  0.7561462E-02  0.1234933E+00
          1   -1    0    0  501    0  0.00000000000E+00  0.00000000000E+00  0.19482387000E+03  0.19482387000E+03  0.00000000000E+00 0. -1.
         -1   -1    0    0    0  501 -0.00000000000E+00 -0.00000000000E+00 -0.12202526247E+03  0.12202526247E+03  0.00000000000E+00 0.  1.
         25    2    1    2    0    0 -0.98068227305E+02  0.40581769315E+02  0.70390132987E+02  0.17851068559E+03  0.12508811630E+03 0.  0.
         23    2    1    2    0    0  0.98068227305E+02 -0.40581769315E+02  0.24084745418E+01  0.13833844689E+03  0.88698748193E+02 0.  0.
          5    1    3    3  502    0 -0.59633532862E+02 -0.15519165786E+02  0.88585932460E+02  0.10799047448E+03  0.41800000000E+01 0.  1.
         -5    1    3    3    0  502 -0.38434694443E+02  0.56100935101E+02 -0.18195799473E+02  0.70520211107E+02  0.41800000000E+01 0.  1.
        -11    1    4    4    0    0  0.28865797044E+02 -0.42119201355E+02 -0.32790463268E+02  0.60683406653E+02  0.00000000000E+00 0.  1.
         11    1    4    4    0    0  0.69202430261E+02  0.15374320399E+01  0.35198937809E+02  0.77655040237E+02  0.00000000000E+00 0. -1.
</event>
<event>
 8    1  0.7114239E-009  0.6690963E+02  0.7561462E-02  0.1370929E+00
         -2   -1    0    0    0  501 -0.00000000000E+00  0.00000000000E+00  0.42834357803E+02  0.42834357803E+02  0.00000000000E+00 0.  1.
          2   -1    0    0  501    0  0.00000000000E+00 -0.00000000000E+00 -0.39151445891E+03  0.39151445891E+03  0.00000000000E+00 0. -1.
         25    2    1    2    0    0  0.82550102453E+00 -0.28672940968E+02 -0.30243339316E+03  0.32853646800E+03  0.12508970585E+03 0.  0.
         23    2    1    2    0    0 -0.82550102453E+00  0.28672940968E+02 -0.46246707942E+02  0.10581234871E+03  0.90745116390E+02 0.  0.
          5    1    3    3  502    0  0.94770293248E+01 -0.26972166581E+02 -0.31289755703E+03  0.31422868337E+03  0.41800000000E+01 0. -1.
         -5    1    3    3    0  502 -0.86515283002E+01 -0.17007743870E+01  0.10464163871E+02  0.14307784628E+02  0.41800000000E+01 0. -1.
        -11    1    4    4    0    0 -0.44468315365E+02  0.25847536197E+02 -0.25337714277E+02  0.57336951119E+02  0.00000000000E+00 0.  1.
         11    1    4    4    0    0  0.43642814340E+02  0.28254047711E+01 -0.20908993665E+02  0.48475397593E+02  0.00000000000E+00 0. -1.
</event>
<event>
 8    1  0.7114239E-009  0.2900874E+03  0.7561462E-02  0.1090304E+00
          1   -1    0    0  501    0  0.00000000000E+00  0.00000000000E+00  0.74849496671E+03  0.74849496671E+03  0.00000000000E+00 0. -1.
         -1   -1    0    0    0  501 -0.00000000000E+00 -0.00000000000E+00 -0.21165544007E+03  0.21165544007E+03  0.00000000000E+00 0.  1.
         25    2    1    2    0    0 -0.23739480622E+03  0.13204331070E+03 -0.53462914173E+02  0.30380221779E+03  0.12508307009E+03 0.  0.
         23    2    1    2    0    0  0.23739480622E+03 -0.13204331070E+03  0.59030244081E+03  0.65634818898E+03  0.92435077861E+02 0.  0.
          5    1    3    3  502    0 -0.90219467298E+02  0.11624304765E+03 -0.25938425609E+01  0.14722839001E+03  0.41800000000E+01 0.  1.
         -5    1    3    3    0  502 -0.14717533892E+03  0.15800263053E+02 -0.50869071612E+02  0.15657382778E+03  0.41800000000E+01 0.  1.
        -11    1    4    4    0    0  0.71798536786E+02  0.20214408665E+01  0.11680148893E+03  0.13711930544E+03  0.00000000000E+00 0.  1.
         11    1    4    4    0    0  0.16559626944E+03 -0.13406475157E+03  0.47350095189E+03  0.51922888354E+03  0.00000000000E+00 0. -1.
</event>
<event>
 8    1  0.7114239E-009  0.9507050E+02  0.7561462E-02  0.1291017E+00
         -2   -1    0    0    0  501 -0.00000000000E+00  0.00000000000E+00  0.16673188463E+03  0.16673188463E+03  0.00000000000E+00 0.  1.
          2   -1    0    0  501    0  0.00000000000E+00 -0.00000000000E+00 -0.90407935928E+02  0.90407935928E+02  0.00000000000E+00 0. -1.
         25    2    1    2    0    0 -0.56001510288E+02  0.85838131414E+00  0.21114843321E+02  0.13867279755E+03  0.12508957670E+03 0.  0.
         23    2    1    2    0    0  0.56001510288E+02 -0.85838131414E+00  0.55209105379E+02  0.11846702301E+03  0.88597315142E+02 0.  0.
          5    1    3    3  502    0 -0.19303264213E+02 -0.46499310142E+02  0.50829901432E+02  0.71665564482E+02  0.41800000000E+01 0. -1.
         -5    1    3    3    0  502 -0.36698246075E+02  0.47357691456E+02 -0.29715058110E+02  0.67007233069E+02  0.41800000000E+01 0. -1.
        -11    1    4    4    0    0  0.48748717114E+02  0.23521691130E+02  0.70428867921E+02  0.88825293754E+02  0.00000000000E+00 0.  1.
         11    1    4    4    0    0  0.72527931742E+01 -0.24380072444E+02 -0.15219762543E+02  0.29641729252E+02  0.00000000000E+00 0. -1.
</event>
<event>
 8    1  0.7114239E-009  0.1121840E+03  0.7561462E-02  0.1256578E+00
          3   -1    0    0  501    0  0.00000000000E+00  0.00000000000E+00  0.28656839230E+02  0.28656839230E+02  0.00000000000E+00 0. -1.
         -3   -1    0    0    0  501 -0.00000000000E+00 -0.00000000000E+00 -0.52215172362E+03  0.52215172362E+03  0.00000000000E+00 0.  1.
         25    2    1    2    0    0 -0.29265083583E+02  0.18220665131E+02 -0.37556236068E+03  0.39734600694E+03  0.12509326406E+03 0.  0.
         23    2    1    2    0    0  0.29265083583E+02 -0.18220665131E+02 -0.11793252371E+03  0.15346255591E+03  0.91946931238E+02 0.  0.
          5    1    3    3  502    0  0.47238037567E+02 -0.55447091121E-01 -0.98773998959E+02  0.10956829166E+03  0.41800000000E+01 0. -1.
         -5    1    3    3    0  502 -0.76503121150E+02  0.18276112222E+02 -0.27678836172E+03  0.28777771527E+03  0.41800000000E+01 0. -1.
        -11    1    4    4    0    0  0.23095811573E+02  0.36455257659E+02 -0.50355156835E+02  0.66317751342E+02  0.00000000000E+00 0.  1.
         11    1    4    4    0    0  0.61692720101E+01 -0.54675922790E+02 -0.67577366875E+02  0.87144804572E+02  0.00000000000E+00 0. -1.
</event>
<event>
 8    1  0.7114239E-009  0.1546051E+03  0.7561462E-02  0.1194926E+00
         -1   -1    0    0    0  501 -0.00000000000E+00  0.00000000000E+00  0.35649470310E+03  0.35649470310E+03  0.00000000000E+00 0.  1.
          1   -1    0    0  501    0  0.00000000000E+00 -0.00000000000E+00 -0.12537484317E+03  0.12537484317E+03  0.00000000000E+00 0. -1.
         25    2    1    2    0    0 -0.95366677852E+02 -0.99006129048E+02 -0.13917636956E+02  0.18638345383E+03  0.12509226358E+03 0.  0.
         23    2    1    2    0    0  0.95366677852E+02  0.99006129048E+02  0.24503749688E+03  0.29548609244E+03  0.91496661770E+02 0.  0.
          5    1    3    3  502    0 -0.97680521570E+02 -0.84353203804E+02  0.36070984264E+02  0.13407287418E+03  0.41800000000E+01 0.  1.
         -5    1    3    3    0  502  0.23138437174E+01 -0.14652925244E+02 -0.49988621220E+02  0.52310579642E+02  0.41800000000E+01 0.  1.
        -11    1    4    4    0    0  0.10979538260E+03  0.64673224256E+02  0.19851082529E+03  0.23589022814E+03  0.00000000000E+00 0.  1.
         11    1    4    4    0    0 -0.14428704749E+02  0.34332904792E+02  0.46526671595E+02  0.59595864302E+02  0.00000000000E+00 0. -1.
</event>
<event>
 8    1  0.7114239E-009  0.1351634E+03  0.7561462E-02  0.1219989E+00
         -1   -1    0    0    0  501 -0.00000000000E+00  0.00000000000E+00  0.45449812636E+02  0.45449812636E+02  0.00000000000E+00 0.  1.
          1   -1    0    0  501    0  0.00000000000E+00 -0.00000000000E+00 -0.44200671052E+03  0.44200671052E+03  0.00000000000E+00 0. -1.
         25    2    1    2    0    0  0.69873944334E+02 -0.54558748355E+02 -0.24684403109E+03  0.29058310236E+03  0.12509012180E+03 0.  0.
         23    2    1    2    0    0 -0.69873944334E+02  0.54558748355E+02 -0.14971286680E+03  0.19687342080E+03  0.92120444060E+02 0.  0.
          5    1    3    3  502    0  0.21995910998E+02 -0.87705084345E+02 -0.18240670396E+03  0.20363123525E+03  0.41800000000E+01 0.  1.
         -5    1    3    3    0  502  0.47878033335E+02  0.33146335990E+02 -0.64437327124E+02  0.86951867102E+02  0.41800000000E+01 0.  1.
        -11    1    4    4    0    0 -0.63557135904E+02 -0.28989358086E+01 -0.10886500623E+03  0.12609323112E+03  0.00000000000E+00 0. -1.
         11    1    4    4    0    0 -0.63168084296E+01  0.57457684164E+02 -0.40847860574E+02  0.70780189684E+02  0.00000000000E+00 0.  1.
</event>
<event>
 8    1  0.7114239E-009  0.1715196E+03  0.7561462E-02  0.1176272E+00
          2   -1    0    0  501    0  0.00000000000E+00  0.00000000000E+00  0.13476485344E+03  0.13476485344E+03  0.00000000000E+00 0. -1.
         -2   -1    0    0    0  501 -0.00000000000E+00 -0.00000000000E+00 -0.28610597369E+03  0.28610597369E+03  0.00000000000E+00 0.  1.
         25    2    1    2    0    0  0.39794821692E+02 -0.15833714396E+03 -0.79586919045E+02  0.22053704660E+03  0.12509289448E+03 0.  0.
         23    2    1    2    0    0 -0.39794821692E+02  0.15833714396E+03 -0.71754201208E+02  0.20033378052E+03  0.91272554674E+02 0.  0.
          5    1    3    3  502    0  0.55530182294E+02 -0.83603559433E+02  0.12052072711E+02  0.10117253161E+03  0.41800000000E+01 0. -1.
         -5    1    3    3    0  502 -0.15735360603E+02 -0.74733584526E+02 -0.91638991756E+02  0.11936451499E+03  0.41800000000E+01 0. -1.
        -11    1    4    4    0    0 -0.16345151569E+02  0.12037623142E+03 -0.90955441544E+02  0.15175800940E+03  0.00000000000E+00 0.  1.
         11    1    4    4    0    0 -0.23449670123E+02  0.37960912541E+02  0.19201240336E+02  0.48575771123E+02  0.00000000000E+00 0. -1.
</event>
<event>
 8    1  0.7114239E-009  0.1022952E+03  0.7561462E-02  0.1275542E+00
          1   -1    0    0  501    0  0.00000000000E+00  0.00000000000E+00  0.52347536058E+02  0.52347536058E+02  0.00000000000E+00 0. -1.
         -1   -1    0    0    0  501 -0.00000000000E+00 -0.00000000000E+00 -0.29451502768E+03  0.29451502768E+03  0.00000000000E+00 0.  1.
         25    2    1    2    0    0  0.31149835510E+02  0.51701461374E+02 -0.15904003016E+03  0.21115399005E+03  0.12509565526E+03 0.  0.
         23    2    1    2    0    0 -0.31149835510E+02 -0.51701461374E+02 -0.83127461471E+02  0.13570857369E+03  0.88675186840E+02 0.  0.
          5    1    3    3  502    0  0.32630873177E+02  0.76585007125E+02 -0.45756641700E+02  0.95085119027E+02  0.41800000000E+01 0.  1.
         -5    1    3    3    0  502 -0.14810376673E+01 -0.24883545752E+02 -0.11328338846E+03  0.11606887103E+03  0.41800000000E+01 0.  1.
        -11    1    4    4    0    0 -0.10490987023E+02  0.19327297388E+02 -0.50068939075E+02  0.54685499844E+02  0.00000000000E+00 0.  1.
         11    1    4    4    0    0 -0.20658848487E+02 -0.71028758761E+02 -0.33058522395E+02  0.81023073843E+02  0.00000000000E+00 0. -1.
</event>
<event>
 8    1  0.7114239E-009  0.9955013E+02  0.7561462E-02  0.1281245E+00
         -1   -1    0    0    0  501 -0.00000000000E+00  0.00000000000E+00  0.15930606711E+03  0.15930606711E+03  0.00000000000E+00 0.  1.
          1   -1    0    0  501    0  0.00000000000E+00 -0.00000000000E+00 -0.10035184336E+03  0.10035184336E+03  0.00000000000E+00 0. -1.
         25    2    1    2    0    0 -0.43808609495E+02 -0.47178181229E+02  0.19624774149E+02  0.14204713046E+03  0.12508909010E+03 0.  0.
         23    2    1    2    0    0  0.43808609495E+02  0.47178181229E+02  0.39329449599E+02  0.11761078001E+03  0.90224802123E+02 0.  0.
          5    1    3    3  502    0  0.12559534479E+02  0.33501259911E+02  0.24259971092E+02  0.43429194321E+02  0.41800000000E+01 0.  1.
         -5    1    3    3    0  502 -0.56368143974E+02 -0.80679441140E+02 -0.46351969434E+01  0.98617936139E+02  0.41800000000E+01 0.  1.
        -11    1    4    4    0    0  0.12907407990E+02  0.17315891690E+02 -0.29443989557E+02  0.36515610457E+02  0.00000000000E+00 0. -1.
         11    1    4    4    0    0  0.30901201505E+02  0.29862289539E+02  0.68773439156E+02  0.81095169550E+02  0.00000000000E+00 0.  1.
</event>
<event>
 8    1  0.7114239E-009  0.1170098E+03  0.7561462E-02  0.1248113E+00
          1   -1    0    0  501    0  0.00000000000E+00  0.00000000000E+00  0.95842637139E+03  0.95842637139E+03  0.00000000000E+00 0. -1.
         -1   -1    0    0    0  501 -0.00000000000E+00 -0.00000000000E+00 -0.25948639246E+02  0.25948639246E+02  0.00000000000E+00 0.  1.
         25    2    1    2    0    0  0.95506679918E+02 -0.34103711404E+02  0.66080206638E+03  0.68014012965E+03  0.12508651403E+03 0.  0.
         23    2    1    2    0    0 -0.95506679918E+02  0.34103711404E+02  0.27167566576E+03  0.30423488098E+03  0.92014164114E+02 0.  0.
          5    1    3    3  502    0  0.47419131958E+02 -0.52777551437E+02  0.57896268644E+03  0.58330893076E+03  0.41800000000E+01 0.  1.
         -5    1    3    3    0  502  0.48087547960E+02  0.18673840033E+02  0.81839379934E+02  0.96831198889E+02  0.41800000000E+01 0.  1.
        -11    1    4    4    0    0 -0.15195382336E+02  0.26464268825E+02  0.12821280845E+02  0.33100489593E+02  0.00000000000E+00 0.  1.
         11    1    4    4    0    0 -0.80311297582E+02  0.76394425784E+01  0.25885438492E+03  0.27113439139E+03  0.00000000000E+00 0. -1.
</event>
<event>
 8    1  0.7114239E-009  0.9672491E+02  0.7561462E-02  0.1287338E+00
          1   -1    0    0  501    0  0.00000000000E+00  0.00000000000E+00  0.13420862324E+03  0.13420862324E+03  0.00000000000E+00 0. -1.
         -1   -1    0    0    0  501 -0.00000000000E+00 -0.00000000000E+00 -0.95119627791E+02  0.95119627791E+02  0.00000000000E+00 0.  1.
         25    2    1    2    0    0  0.17119392901E+02 -0.14951991018E+02  0.16183811233E+00  0.12713826205E+03  0.12508987104E+03 0.  0.
         23    2    1    2    0    0 -0.17119392901E+02  0.14951991018E+02  0.38927157335E+02  0.10218998898E+03  0.91710602551E+02 0.  0.
          5    1    3    3  502    0  0.59693567541E+02  0.27761780727E+02 -0.66636979937E+01  0.66301702435E+02  0.41800000000E+01 0. -1.
         -5    1    3    3    0  502 -0.42574174640E+02 -0.42713771744E+02  0.68255361060E+01  0.60836559617E+02  0.41800000000E+01 0. -1.
        -11    1    4    4    0    0  0.24094642888E+02  0.65591068911E+01  0.52382561813E+02  0.58030220413E+02  0.00000000000E+00 0. -1.
         11    1    4    4    0    0 -0.41214035789E+02  0.83928841264E+01 -0.13455404478E+02  0.44159768564E+02  0.00000000000E+00 0.  1.
</event>
<event>
 8    1  0.7114239E-009  0.1401378E+03  0.7561462E-02  0.1213144E+00
          1   -1    0    0  501    0  0.00000000000E+00  0.00000000000E+00  0.23284217096E+02  0.23284217096E+02  0.00000000000E+00 0. -1.
         -1   -1    0    0    0  501 -0.00000000000E+00 -0.00000000000E+00 -0.10182092013E+04  0.10182092013E+04  0.00000000000E+00 0.  1.
         25    2    1    2    0    0 -0.93675224912E+02 -0.26015614141E+00 -0.34642067078E+03  0.38004111273E+03  0.12509536671E+03 0.  0.
         23    2    1    2    0    0  0.93675224912E+02  0.26015614141E+00 -0.64850431342E+03  0.66145230567E+03  0.90477581237E+02 0.  0.
          5    1    3    3  502    0 -0.11600784283E+03  0.24334640276E+02 -0.22836051701E+03  0.25732468293E+03  0.41800000000E+01 0. -1.
         -5    1    3    3    0  502  0.22332617916E+02 -0.24594796418E+02 -0.11806015377E+03  0.12271642980E+03  0.41800000000E+01 0. -1.
        -11    1    4    4    0    0  0.61830229190E+02 -0.42384844140E+02 -0.43514882533E+03  0.44155854927E+03  0.00000000000E+00 0.  1.
         11    1    4    4    0    0  0.31844995722E+02  0.42645000281E+02 -0.21335548809E+03  0.21989375639E+03  0.00000000000E+00 0. -1.
</event>
<event>
 8    1  0.7114239E-009  0.1544839E+03  0.7561462E-02  0.1195069E+00
         -1   -1    0    0    0  501 -0.00000000000E+00  0.00000000000E+00  0.30603480018E+03  0.30603480018E+03  0.00000000000E+00 0.  1.
          1   -1    0    0  501    0  0.00000000000E+00 -0.00000000000E+00 -0.95157081139E+02  0.95157081139E+02  0.00000000000E+00 0. -1.
         25    2    1    2    0    0  0.68081149295E+02 -0.93418023622E+02  0.37985173454E+02  0.17450575841E+03  0.12508963302E+03 0.  0.
         23    2    1    2    0    0 -0.68081149295E+02  0.93418023622E+02  0.17289254559E+03  0.22668612291E+03  0.90182015791E+02 0.  0.
          5    1    3    3  502    0  0.75271191950E+02  0.69597127638E+00  0.23169902782E+02  0.78870485662E+02  0.41800000000E+01 0.  1.
         -5    1    3    3    0  502 -0.71900426551E+01 -0.94113994898E+02  0.14815270672E+02  0.95635272751E+02  0.41800000000E+01 0.  1.
        -11    1    4    4    0    0 -0.26679064203E+00  0.65918145843E+02  0.11816173714E+03  0.13530509692E+03  0.00000000000E+00 0. -1.
         11    1    4    4    0    0 -0.67814358653E+02  0.27499877779E+02  0.54730808454E+02  0.91381025992E+02  0.00000000000E+00 0.  1.
</event>
<event>
 8    1  0.7114239E-009  0.8962516E+02  0.7561462E-02  0.1303762E+00
          1   -1    0    0  501    0  0.00000000000E+00  0.00000000000E+00  0.24203694671E+03  0.24203694671E+03  0.00000000000E+00 0. -1.
         -1   -1    0    0    0  501 -0.00000000000E+00 -0.00000000000E+00 -0.54981709504E+02  0.54981709504E+02  0.00000000000E+00 0.  1.
         25    2    1    2    0    0 -0.22885242634E+02 -0.14859533177E+02  0.14393390361E+03  0.19264006787E+03  0.12509471246E+03 0.  0.
         23    2    1    2    0    0  0.22885242634E+02  0.14859533177E+02  0.43121333598E+02  0.10437858834E+03  0.91054380655E+02 0.  0.
          5    1    3    3  502    0 -0.53262802937E+02 -0.91583327090E+01  0.15119373201E+03  0.16061699236E+03  0.41800000000E+01 0. -1.
         -5    1    3    3    0  502  0.30377560303E+02 -0.57012004680E+01 -0.72598284040E+01  0.32023075512E+02  0.41800000000E+01 0. -1.
        -11    1    4    4    0    0 -0.30009830771E+02  0.26108226439E+02  0.10186221814E+02  0.41060790854E+02  0.00000000000E+00 0.  1.
         11    1    4    4    0    0  0.52895073405E+02 -0.11248693262E+02  0.32935111784E+02  0.63317797489E+02  0.00000000000E+00 0. -1.
</event>
<event>
 8    1  0.7114239E-009  0.6436461E+02  0.7561462E-02  0.1380378E+00
          2   -1    0    0  501    0  0.00000000000E+00  0.00000000000E+00  0.31553554130E+03  0.31553554130E+03  0.00000000000E+00 0.  1.
         -2   -1    0    0    0  501 -0.00000000000E+00 -0.00000000000E+00 -0.47863104762E+02  0.47863104762E+02  0.00000000000E+00 0. -1.
         25    2    1    2    0    0 -0.33930260285E+02 -0.17505940668E+02  0.84051765423E+02  0.15546609968E+03  0.12508912165E+03 0.  0.
         23    2    1    2    0    0  0.33930260285E+02  0.17505940668E+02  0.18362067111E+03  0.20793254638E+03  0.89786816762E+02 0.  0.
          5    1    3    3  502    0  0.37617015964E+01  0.96022554246E+00 -0.31730852145E+02  0.32239600027E+02  0.41800000000E+01 0. -1.
         -5    1    3    3    0  502 -0.37691961881E+02 -0.18466166210E+02  0.11578261757E+03  0.12322649965E+03  0.41800000000E+01 0. -1.
        -11    1    4    4    0    0  0.48913718545E+02 -0.96243037324E+01  0.16362154388E+03  0.17104732885E+03  0.00000000000E+00 0.  1.
         11    1    4    4    0    0 -0.14983458261E+02  0.27130244400E+02  0.19999127234E+02  0.36885217537E+02  0.00000000000E+00 0. -1.
</event>
<event>
 8    1  0.7114239E-009  0.1234513E+03  0.7561462E-02  0.1237510E+00
          1   -1    0    0  501    0  0.00000000000E+00  0.00000000000E+00  0.17768642761E+03  0.17768642761E+03  0.00000000000E+00 0. -1.
         -1   -1    0    0    0  501 -0.00000000000E+00 -0.00000000000E+00 -0.10635847917E+03  0.10635847917E+03  0.00000000000E+00 0.  1.
         25    2    1    2    0    0 -0.59584727423E+02  0.43829883273E+02  0.18022574772E+02  0.14643674597E+03  0.12509000343E+03 0.  0.
         23    2    1    2    0    0  0.59584727423E+02 -0.43829883273E+02  0.53305373670E+02  0.13760816081E+03  0.10306864048E+03 0.  0.
          5    1    3    3  502    0 -0.85306377790E+02  0.65485819374E+02 -0.89936689905E+00  0.10762830432E+03  0.41800000000E+01 0.  1.
         -5    1    3    3    0  502  0.25721650367E+02 -0.21655936101E+02  0.18921941671E+02  0.38808441641E+02  0.41800000000E+01 0.  1.
        -11    1    4    4    0    0  0.26817942852E+02 -0.62267579296E+02  0.69119960532E+02  0.96819535396E+02  0.00000000000E+00 0. -1.
         11    1    4    4    0    0  0.32766784571E+02  0.18437696023E+02 -0.15814586863E+02  0.40788625417E+02  0.00000000000E+00 0.  1.
</event>
<event>
 8    1  0.7114239E-009  0.1054718E+03  0.7561462E-02  0.1269193E+00
         -1   -1    0    0    0  501 -0.00000000000E+00  0.00000000000E+00  0.91689204458E+02  0.91689204458E+02  0.00000000000E+00 0.  1.
          1   -1    0    0  501    0  0.00000000000E+00 -0.00000000000E+00 -0.14934395568E+03  0.14934395568E+03  0.00000000000E+00 0. -1.
         25    2    1    2    0    0 -0.29632463217E+02 -0.27079134681E+02 -0.40782125299E+02  0.13755822781E+03  0.12509085451E+03 0.  0.
         23    2    1    2    0    0  0.29632463217E+02  0.27079134681E+02 -0.16872625922E+02  0.10347493233E+03  0.93867000080E+02 0.  0.
          5    1    3    3  502    0  0.34123047985E+02  0.11797179899E+02  0.19728058256E+02  0.41354861140E+02  0.41800000000E+01 0.  1.
         -5    1    3    3    0  502 -0.63755511202E+02 -0.38876314580E+02 -0.60510183555E+02  0.96203366666E+02  0.41800000000E+01 0.  1.
        -11    1    4    4    0    0 -0.32964106114E+02  0.45343083493E+01  0.45369406829E+01  0.33582377445E+02  0.00000000000E+00 0.  1.
         11    1    4    4    0    0  0.62596569331E+02  0.22544826332E+02 -0.21409566605E+02  0.69892554886E+02  0.00000000000E+00 0. -1.
</event>
<event>
 8    1  0.7114239E-009  0.4879354E+03  0.7561462E-02  0.1016977E+00
          1   -1    0    0  501    0  0.00000000000E+00  0.00000000000E+00  0.42492213754E+03  0.42492213754E+03  0.00000000000E+00 0. -1.
         -1   -1    0    0    0  501 -0.00000000000E+00 -0.00000000000E+00 -0.58983267261E+03  0.58983267261E+03  0.00000000000E+00 0.  1.
         25    2    1    2    0    0 -0.47897465188E+03 -0.44710994639E+02 -0.16783492906E+03  0.52462490533E+03  0.12508771999E+03 0.  0.
         23    2    1    2    0    0  0.47897465188E+03  0.44710994639E+02  0.29243939862E+01  0.49012990482E+03  0.93824204421E+02 0.  0.
          5    1    3    3  502    0 -0.10380020710E+03 -0.37625783093E+02 -0.87301308557E+02  0.14081609788E+03  0.41800000000E+01 0. -1.
         -5    1    3    3    0  502 -0.37517444478E+03 -0.70852115455E+01 -0.80533620502E+02  0.38380880745E+03  0.41800000000E+01 0. -1.
        -11    1    4    4    0    0  0.40292498416E+03  0.72025237358E+02  0.17765438268E+01  0.40931568964E+03  0.00000000000E+00 0.  1.
         11    1    4    4    0    0  0.76049667722E+02 -0.27314242719E+02  0.11478501594E+01  0.80814215185E+02  0.00000000000E+00 0. -1.
</event>
<event>
 8    1  0.7114239E-009  0.1310504E+03  0.7561462E-02  0.1225905E+00
         -2   -1    0    0    0  501 -0.00000000000E+00  0.00000000000E+00  0.42586996094E+02  0.42586996094E+02  0.00000000000E+00 0. -1.
          2   -1    0    0  501    0  0.00000000000E+00 -0.00000000000E+00 -0.49961212563E+03  0.49961212563E+03  0.00000000000E+00 0.  1.
         25    2    1    2    0    0  0.72845891306E+02 -0.46929551944E+02 -0.16808533431E+03  0.22673497208E+03  0.12508861350E+03 0.  0.
         23    2    1    2    0    0 -0.72845891306E+02  0.46929551944E+02 -0.28893979523E+03  0.31546414965E+03  0.92317483294E+02 0.  0.
          5    1    3    3  502    0  0.10011148182E+01 -0.61843101354E+02 -0.26923160196E+02  0.67586243947E+02  0.41800000000E+01 0. -1.
         -5    1    3    3    0  502  0.71844776487E+02  0.14913549410E+02 -0.14116217412E+03  0.15914872813E+03  0.41800000000E+01 0. -1.
        -11    1    4    4    0    0 -0.26265932604E+02  0.69903898059E+02 -0.17128889203E+03  0.18685914137E+03  0.00000000000E+00 0.  1.
         11    1    4    4    0    0 -0.46579958702E+02 -0.22974346115E+02 -0.11765090319E+03  0.12860500828E+03  0.00000000000E+00 0. -1.
</event>
<event>
 8    1  0.7114239E-009  0.1098421E+03  0.7561462E-02  0.1260863E+00
         -2   -1    0    0    0  501 -0.00000000000E+00  0.00000000000E+00  0.12296601876E+03  0.12296601876E+03  0.00000000000E+00 0.  1.
          2   -1    0    0  501    0  0.00000000000E+00 -0.00000000000E+00 -0.12347915456E+03  0.12347915456E+03  0.00000000000E+00 0. -1.
         25    2    1    2    0    0 -0.48367099055E+02 -0.28943651312E+02 -0.77519427243E+01  0.13742168550E+03  0.12509003081E+03 0.  0.
         23    2    1    2    0    0  0.48367099055E+02  0.28943651312E+02  0.72388069212E+01  0.10902348783E+03  0.93040901489E+02 0.  0.
          5    1    3    3  502    0 -0.65838719089E+02  0.22989499994E+02 -0.32622038194E+02  0.77103332076E+02  0.41800000000E+01 0.  1.
         -5    1    3    3    0  502  0.17471620034E+02 -0.51933151306E+02  0.24870095470E+02  0.60318353424E+02  0.41800000000E+01 0.  1.
        -11    1    4    4    0    0 -0.28768903653E+01 -0.22249951590E+02  0.25858319866E+02  0.34234332917E+02  0.00000000000E+00 0.  1.
         11    1    4    4    0    0  0.51243989421E+02  0.51193602902E+02 -0.18619512945E+02  0.74789154910E+02  0.00000000000E+00 0. -1.
</event>
<event>
 8    1  0.7114239E-009  0.1252122E+03  0.7561462E-02  0.1234738E+00
         -1   -1    0    0    0  501 -0.00000000000E+00  0.00000000000E+00  0.62594919588E+02  0.62594919588E+02  0.00000000000E+00 0.  1.
          1   -1    0    0  501    0  0.00000000000E+00 -0.00000000000E+00 -0.37612631598E+03  0.37612631598E+03  0.00000000000E+00 0. -1.
         25    2    1    2    0    0 -0.76286935319E+02 -0.62613980161E+02 -0.10603970659E+03  0.19139152296E+03  0.12508432626E+03 0.  0.
         23    2    1    2    0    0  0.76286935319E+02  0.62613980161E+02 -0.20749168980E+03  0.24732971260E+03  0.91536759765E+02 0.  0.
          5    1    3    3  502    0 -0.36303488517E+02  0.19701928909E+02 -0.89007253250E+02  0.98213404444E+02  0.41800000000E+01 0.  1.
         -5    1    3    3    0  502 -0.39983446802E+02 -0.82315909070E+02 -0.17032453341E+02  0.93178118520E+02  0.41800000000E+01 0.  1.
        -11    1    4    4    0    0  0.76003178302E+02  0.25473439283E+02 -0.75156629001E+02  0.10988129096E+03  0.00000000000E+00 0.  1.
         11    1    4    4    0    0  0.28375701713E+00  0.37140540878E+02 -0.13233506080E+03  0.13744842164E+03  0.00000000000E+00 0. -1.
</event>
<event>
 8    1  0.7114239E-009  0.8095951E+02  0.7561462E-02  0.1326350E+00
          1   -1    0    0  501    0  0.00000000000E+00  0.00000000000E+00  0.79463770515E+03  0.79463770515E+03  0.00000000000E+00 0. -1.
         -1   -1    0    0    0  501 -0.00000000000E+00 -0.00000000000E+00 -0.19067760646E+02  0.19067760646E+02  0.00000000000E+00 0.  1.
         25    2    1    2    0    0  0.38775128543E+02  0.40538573894E+02  0.47655075421E+03  0.49587718446E+03  0.12508666663E+03 0.  0.
         23    2    1    2    0    0 -0.38775128543E+02 -0.40538573894E+02  0.29901919030E+03  0.31782828133E+03  0.91953540890E+02 0.  0.
          5    1    3    3  502    0  0.11192851418E+02  0.18794379924E+02  0.45262976885E+03  0.45317732588E+03  0.41800000000E+01 0. -1.
         -5    1    3    3    0  502  0.27582277125E+02  0.21744193970E+02  0.23920985354E+02  0.42699858584E+02  0.41800000000E+01 0. -1.
        -11    1    4    4    0    0 -0.34393956970E+02  0.22491947806E+02  0.80857584679E+02  0.90701604133E+02  0.00000000000E+00 0.  1.
         11    1    4    4    0    0 -0.43811715728E+01 -0.63030521700E+02  0.21816160562E+03  0.22712667720E+03  0.00000000000E+00 0. -1.
</event>
<event>
 8    1  0.7114239E-009  0.8972988E+02  0.7561462E-02  0.1303507E+00
         -2   -1    0    0    0  501 -0.00000000000E+00  0.00000000000E+00  0.28572174370E+02  0.28572174370E+02  0.00000000000E+00 0.  1.
          2   -1    0    0  501    0  0.00000000000E+00 -0.00000000000E+00 -0.73801983110E+03  0.73801983110E+03  0.00000000000E+00 0. -1.
         25    2    1    2    0    0 -0.34189537586E+02 -0.10183573852E+02 -0.61949560322E+03  0.63300464173E+03  0.12508974531E+03 0.  0.
         23    2    1    2    0    0  0.34189537586E+02  0.10183573852E+02 -0.89952053510E+02  0.13358736374E+03  0.92095505668E+02 0.  0.
          5    1    3    3  502    0  0.38776500839E+02 -0.25092185830E+02 -0.13367067224E+03  0.14148694578E+03  0.41800000000E+01 0.  1.
         -5    1    3    3    0  502 -0.72966038425E+02  0.14908611978E+02 -0.48582493097E+03  0.49151769595E+03  0.41800000000E+01 0.  1.
        -11    1    4    4    0    0 -0.11207396359E+02 -0.22357074932E+01  0.14828804168E+02  0.18721579906E+02  0.00000000000E+00 0.  1.
         11    1    4    4    0    0  0.45396933945E+02  0.12419281345E+02 -0.10478085768E+03  0.11486578384E+03  0.00000000000E+00 0. -1.
</event>
<event>
 8    1  0.7114239E-009  0.1141287E+03  0.7561462E-02  0.1253110E+00
         -2   -1    0    0    0  501 -0.00000000000E+00  0.00000000000E+00  0.10799929056E+03  0.10799929056E+03  0.00000000000E+00 0.  1.
          2   -1    0    0  501    0  0.00000000000E+00 -0.00000000000E+00 -0.14305086483E+03  0.14305086483E+03  0.00000000000E+00 0. -1.
         25    2    1    2    0    0  0.46636829792E+02  0.19613926368E+02  0.15752036027E+02  0.13584958364E+03  0.12508909919E+03 0.  0.
         23    2    1    2    0    0 -0.46636829792E+02 -0.19613926368E+02 -0.50803610300E+02  0.11520057176E+03  0.90169090676E+02 0.  0.
          5    1    3    3  502    0  0.30351158173E+02  0.70061313342E+02  0.27732976557E+02  0.81341077067E+02  0.41800000000E+01 0. -1.
         -5    1    3    3    0  502  0.16285671619E+02 -0.50447386975E+02 -0.11980940530E+02  0.54508506571E+02  0.41800000000E+01 0. -1.
        -11    1    4    4    0    0  0.16256401548E+02 -0.30712593752E+02 -0.35187742057E+02  0.49454132257E+02  0.00000000000E+00 0. -1.
         11    1    4    4    0    0 -0.62893231340E+02  0.11098667384E+02 -0.15615868243E+02  0.65746439501E+02  0.00000000000E+00 0.  1.
</event>
<event>
 8    1  0.7114239E-009  0.1185894E+03  0.7561462E-02  0.1245442E+00
          2   -1    0    0  501    0  0.00000000000E+00  0.00000000000E+00  0.28212679092E+03  0.28212679092E+03  0.00000000000E+00 0.  1.
         -2   -1    0    0    0  501 -0.00000000000E+00 -0.00000000000E+00 -0.77637876319E+02  0.77637876319E+02  0.00000000000E+00 0. -1.
         25    2    1    2    0    0  0.46189982425E+02  0.34881354118E+02  0.21018277790E+03  0.25134532595E+03  0.12508976541E+03 0.  0.
         23    2    1    2    0    0 -0.46189982425E+02 -0.34881354118E+02 -0.56938632992E+01  0.10841934129E+03  0.91499235760E+02 0.  0.
          5    1    3    3  502    0  0.84041023373E+02 -0.14795516648E+01  0.14380323294E+03  0.16661910121E+03  0.41800000000E+01 0.  1.
         -5    1    3    3    0  502 -0.37851040948E+02  0.36360905783E+02  0.66379544955E+02  0.84726224740E+02  0.41800000000E+01 0.  1.
        -11    1    4    4    0    0  0.16486277728E+00 -0.51218575511E+02  0.17427972641E+02  0.54102716082E+02  0.00000000000E+00 0.  1.
         11    1    4    4    0    0 -0.46354845202E+02  0.16337221393E+02 -0.23121835940E+02  0.54316625206E+02  0.00000000000E+00 0. -1.
</event>
<event>
 8    1  0.7114239E-009  0.7378581E+02  0.7561462E-02  0.1347673E+00
         -2   -1    0    0    0  501 -0.00000000000E+00  0.00000000000E+00  0.33884217291E+03  0.33884217291E+03  0.00000000000E+00 0.  1.
          2   -1    0    0  501    0  0.00000000000E+00 -0.00000000000E+00 -0.46316041286E+02  0.46316041286E+02  0.00000000000E+00 0. -1.
         25    2    1    2    0    0  0.10122908144E+02  0.51832385859E+02  0.11246360003E+03  0.17631228462E+03  0.12509552702E+03 0.  0.
         23    2    1    2    0    0 -0.10122908144E+02 -0.51832385859E+02  0.18006253159E+03  0.20884592958E+03  0.91678991737E+02 0.  0.
          5    1    3    3  502    0  0.23291447217E+02  0.36261701990E+02 -0.16008718680E+02  0.46164423731E+02  0.41800000000E+01 0.  1.
         -5    1    3    3    0  502 -0.13168539073E+02  0.15570683869E+02  0.12847231871E+03  0.13014786088E+03  0.41800000000E+01 0.  1.
        -11    1    4    4    0    0 -0.27718209744E+02 -0.58423995923E+02  0.17866162623E+03  0.19000431348E+03  0.00000000000E+00 0.  1.
         11    1    4    4    0    0  0.17595301601E+02  0.65916100634E+01  0.14009053595E+01  0.18841616106E+02  0.00000000000E+00 0. -1.
</event>
<event>
 8    1  0.7114239E-009  0.2720862E+03  0.7561462E-02  0.1100092E+00
         -2   -1    0    0    0  501 -0.00000000000E+00  0.00000000000E+00  0.55566139466E+02  0.55566139466E+02  0.00000000000E+00 0.  1.
          2   -1    0    0  501    0  0.00000000000E+00 -0.00000000000E+00 -0.14168959447E+04  0.14168959447E+04  0.00000000000E+00 0. -1.
         25    2    1    2    0    0 -0.24063399390E+03 -0.82457010242E+02 -0.82891603727E+03  0.87604400750E+03  0.12508968256E+03 0.  0.
         23    2    1    2    0    0  0.24063399390E+03  0.82457010242E+02 -0.53241376792E+03  0.59641807661E+03  0.86869006475E+02 0.  0.
          5    1    3    3  502    0  0.32126480422E+00  0.20610222700E+02 -0.73401282622E+02  0.76355125442E+02  0.41800000000E+01 0. -1.
         -5    1    3    3    0  502 -0.24095525870E+03 -0.10306723294E+03 -0.75551475465E+03  0.79968888206E+03  0.41800000000E+01 0. -1.
        -11    1    4    4    0    0  0.16583696893E+03  0.27231066645E+02 -0.40672631762E+03  0.44007923003E+03  0.00000000000E+00 0.  1.
         11    1    4    4    0    0  0.74797024968E+02  0.55225943597E+02 -0.12568745029E+03  0.15633884658E+03  0.00000000000E+00 0. -1.
</event>
<event>
 8    1  0.7114239E-009  0.1649454E+03  0.7561462E-02  0.1183224E+00
         -2   -1    0    0    0  501 -0.00000000000E+00  0.00000000000E+00  0.42521618090E+03  0.42521618090E+03  0.00000000000E+00 0. -1.
          2   -1    0    0  501    0  0.00000000000E+00 -0.00000000000E+00 -0.94839241713E+02  0.94839241713E+02  0.00000000000E+00 0.  1.
         25    2    1    2    0    0 -0.84715215293E+02  0.11888492168E+03  0.28065961850E+03  0.34018652211E+03  0.12508699399E+03 0.  0.
         23    2    1    2    0    0  0.84715215293E+02 -0.11888492168E+03  0.49717320689E+02  0.17986890050E+03  0.92578167427E+02 0.  0.
          5    1    3    3  502    0 -0.10567027938E+03  0.61959582197E+02  0.23170144574E+03  0.26212254792E+03  0.41800000000E+01 0. -1.
         -5    1    3    3    0  502  0.20955064091E+02  0.56925339486E+02  0.48958172758E+02  0.78063974191E+02  0.41800000000E+01 0. -1.
        -11    1    4    4    0    0  0.48793948322E+02 -0.57654460459E+02 -0.22291269693E+02  0.78751424801E+02  0.00000000000E+00 0.  1.
         11    1    4    4    0    0  0.35921266970E+02 -0.61230461225E+02  0.72008590382E+02  0.10111747570E+03  0.00000000000E+00 0. -1.
</event>
<event>
 8    1  0.7114239E-009  0.1330232E+03  0.7561462E-02  0.1223038E+00
          1   -1    0    0  501    0  0.00000000000E+00  0.00000000000E+00  0.37895215196E+03  0.37895215196E+03  0.00000000000E+00 0. -1.
         -1   -1    0    0    0  501 -0.00000000000E+00 -0.00000000000E+00 -0.50518456833E+02  0.50518456833E+02  0.00000000000E+00 0.  1.
         25    2    1    2    0    0 -0.84991159965E+02  0.21089201888E+02  0.16515406897E+03  0.22491663359E+03  0.12507347385E+03 0.  0.
         23    2    1    2    0    0  0.84991159965E+02 -0.21089201888E+02  0.16327962616E+03  0.20455397520E+03  0.86682413115E+02 0.  0.
          5    1    3    3  502    0 -0.60573694410E+02  0.72913332425E+02  0.11022881777E+03  0.14544205433E+03  0.41800000000E+01 0. -1.
         -5    1    3    3    0  502 -0.24417465555E+02 -0.51824130538E+02  0.54925251195E+02  0.79474579262E+02  0.41800000000E+01 0. -1.
        -11    1    4    4    0    0 -0.35543288481E+00 -0.28086349949E+02  0.81262061259E+02  0.85979602151E+02  0.00000000000E+00 0. -1.
         11    1    4    4    0    0  0.85346592850E+02  0.69971480615E+01  0.82017564902E+02  0.11857437305E+03  0.00000000000E+00 0.  1.
</event>
<event>
 8    1  0.7114239E-009  0.9976406E+02  0.7561462E-02  0.1280793E+00
         -1   -1    0    0    0  501 -0.00000000000E+00  0.00000000000E+00  0.35393909718E+02  0.35393909718E+02  0.00000000000E+00 0.  1.
          1   -1    0    0  501    0  0.00000000000E+00 -0.00000000000E+00 -0.57861029234E+03  0.57861029234E+03  0.00000000000E+00 0. -1.
         25    2    1    2    0    0 -0.29030161500E+02  0.70105661990E+02 -0.41261875589E+03  0.43778907540E+03  0.12508989848E+03 0.  0.
         23    2    1    2    0    0  0.29030161500E+02 -0.70105661990E+02 -0.13059762673E+03  0.17621512666E+03  0.90766054436E+02 0.  0.
          5    1    3    3  502    0  0.53460356524E+01  0.36325854997E+00  0.77279582682E+01  0.10291054026E+02  0.41800000000E+01 0. -1.
         -5    1    3    3    0  502 -0.34376197153E+02  0.69742403440E+02 -0.42034671416E+03  0.42749802137E+03  0.41800000000E+01 0. -1.
        -11    1    4    4    0    0 -0.30963359263E+02 -0.22388440147E+02 -0.24749881782E+02  0.45525031765E+02  0.00000000000E+00 0.  1.
         11    1    4    4    0    0  0.59993520763E+02 -0.47717221843E+02 -0.10584774495E+03  0.13069009490E+03  0.00000000000E+00 0. -1.
</event>
<event>
 8    1  0.7114239E-009  0.1160060E+03  0.7561462E-02  0.1249835E+00
          3   -1    0    0  501    0  0.00000000000E+00  0.00000000000E+00  0.97649875025E+02  0.97649875025E+02  0.00000000000E+00 0. -1.
         -3   -1    0    0    0  501 -0.00000000000E+00 -0.00000000000E+00 -0.22984010455E+03  0.22984010455E+03  0.00000000000E+00 0.  1.
         25    2    1    2    0    0 -0.67253758678E+02 -0.24805054994E+02  0.10231710999E+02  0.14453440332E+03  0.12508855673E+03 0.  0.
         23    2    1    2    0    0  0.67253758678E+02  0.24805054994E+02 -0.14242194052E+03  0.18295557625E+03  0.89723881595E+02 0.  0.
          5    1    3    3  502    0 -0.85014656429E+02  0.17796548027E+01 -0.32390893830E+02  0.91089523998E+02  0.41800000000E+01 0. -1.
         -5    1    3    3    0  502  0.17760897751E+02 -0.26584709796E+02  0.42622604829E+02  0.53444879327E+02  0.41800000000E+01 0. -1.
        -11    1    4    4    0    0  0.68882881433E+02 -0.18478233432E+02 -0.83181410690E+02  0.10956935498E+03  0.00000000000E+00 0.  1.
         11    1    4    4    0    0 -0.16291227550E+01  0.43283288426E+02 -0.59240529829E+02  0.73386221270E+02  0.00000000000E+00 0. -1.
</event>
<event>
 8    1  0.7114239E-009  0.1337156E+03  0.7561462E-02  0.1222044E+00
          2   -1    0    0  501    0  0.00000000000E+00  0.00000000000E+00  0.41745299655E+03  0.41745299655E+03  0.00000000000E+00 0. -1.
         -2   -1    0    0    0  501 -0.00000000000E+00 -0.00000000000E+00 -0.72309874146E+02  0.72309874146E+02  0.00000000000E+00 0.  1.
         25    2    1    2    0    0 -0.55053763242E+02 -0.11627825945E+03  0.24181868619E+03  0.30112463086E+03  0.12509282894E+03 0.  0.
         23    2    1    2    0    0  0.55053763242E+02  0.11627825945E+03  0.10332443622E+03  0.18863823984E+03  0.91416059539E+02 0.  0.
          5    1    3    3  502    0 -0.36314473523E+02 -0.11191080312E+03  0.25259128495E+03  0.27868010061E+03  0.41800000000E+01 0. -1.
         -5    1    3    3    0  502 -0.18739289720E+02 -0.43674563237E+01 -0.10772598764E+02  0.22444530248E+02  0.41800000000E+01 0. -1.
        -11    1    4    4    0    0  0.12042010747E+02  0.11096404196E+02 -0.16675457199E+02  0.23371159186E+02  0.00000000000E+00 0.  1.
         11    1    4    4    0    0  0.43011752496E+02  0.10518185525E+03  0.11999989342E+03  0.16526708065E+03  0.00000000000E+00 0. -1.
</event>
<event>
 8    1  0.7114239E-009  0.2225558E+03  0.7561462E-02  0.1131992E+00
          2   -1    0    0  501    0  0.00000000000E+00  0.00000000000E+00  0.37608324412E+03  0.37608324412E+03  0.00000000000E+00 0. -1.
         -2   -1    0    0    0  501 -0.00000000000E+00 -0.00000000000E+00 -0.13811733683E+03  0.13811733683E+03  0.00000000000E+00 0.  1.
         25    2    1    2    0    0  0.18900811755E+03  0.60504643758E+02  0.94432311466E+02  0.25288783838E+03  0.12509962804E+03 0.  0.
         23    2    1    2    0    0 -0.18900811755E+03 -0.60504643758E+02  0.14353359583E+03  0.26131274257E+03  0.91091030748E+02 0.  0.
          5    1    3    3  502    0  0.15633265558E+03  0.95252888950E+02  0.55983551339E+02  0.19148013598E+03  0.41800000000E+01 0. -1.
         -5    1    3    3    0  502  0.32675461969E+02 -0.34748245193E+02  0.38448760128E+02  0.61407702401E+02  0.41800000000E+01 0.  1.
        -11    1    4    4    0    0 -0.13869965757E+03 -0.80053338806E+02  0.12838774927E+03  0.20525483241E+03  0.00000000000E+00 0. -1.
         11    1    4    4    0    0 -0.50308459984E+02  0.19548695048E+02  0.15145846551E+02  0.56057910163E+02  0.00000000000E+00 0.  1.
</event>
<event>
 8    1  0.7114239E-009  0.1398066E+03  0.7561462E-02  0.1213589E+00
          2   -1    0    0  501    0  0.00000000000E+00  0.00000000000E+00  0.42108105927E+02  0.42108105927E+02  0.00000000000E+00 0. -1.
         -2   -1    0    0    0  501 -0.00000000000E+00 -0.00000000000E+00 -0.49505145766E+03  0.49505145766E+03  0.00000000000E+00 0.  1.
         25    2    1    2    0    0 -0.53118708593E+02 -0.76283800982E+02 -0.26835031303E+03  0.31032236277E+03  0.12508901967E+03 0.  0.
         23    2    1    2    0    0  0.53118708593E+02  0.76283800982E+02 -0.18459303870E+03  0.22683720081E+03  0.93486417398E+02 0.  0.
          5    1    3    3  502    0 -0.92991384946E+02 -0.66726172320E+02 -0.19232507512E+03  0.22384411243E+03  0.41800000000E+01 0. -1.
         -5    1    3    3    0  502  0.39872676353E+02 -0.95576286626E+01 -0.76025237901E+02  0.86478250347E+02  0.41800000000E+01 0. -1.
        -11    1    4    4    0    0  0.32764103249E+02 -0.10752380506E+02 -0.91487056460E+02  0.97770044737E+02  0.00000000000E+00 0.  1.
         11    1    4    4    0    0  0.20354605344E+02  0.87036181488E+02 -0.93105982244E+02  0.12906715607E+03  0.00000000000E+00 0. -1.
</event>
<event>
 8    1  0.7114239E-009  0.2584451E+03  0.7561462E-02  0.1108081E+00
          1   -1    0    0  501    0  0.00000000000E+00  0.00000000000E+00  0.32277274930E+03  0.32277274930E+03  0.00000000000E+00 0. -1.
         -1   -1    0    0    0  501 -0.00000000000E+00 -0.00000000000E+00 -0.23493806690E+03  0.23493806690E+03  0.00000000000E+00 0.  1.
         25    2    1    2    0    0 -0.44628456975E+02 -0.24789748007E+03  0.55738387344E+02  0.28670427681E+03  0.12509082589E+03 0.  0.
         23    2    1    2    0    0  0.44628456975E+02  0.24789748007E+03  0.32096295051E+02  0.27100653939E+03  0.94707509927E+02 0.  0.
          5    1    3    3  502    0  0.23258744970E+02 -0.42352848634E+02  0.50668514268E+02  0.70139174098E+02  0.41800000000E+01 0.  1.
         -5    1    3    3    0  502 -0.67887201944E+02 -0.20554463144E+03  0.50698730760E+01  0.21656510272E+03  0.41800000000E+01 0.  1.
        -11    1    4    4    0    0  0.17564328321E+02  0.94619815785E+02 -0.33777924919E+02  0.10199197704E+03  0.00000000000E+00 0.  1.
         11    1    4    4    0    0  0.27064128654E+02  0.15327766429E+03  0.65874219969E+02  0.16901456235E+03  0.00000000000E+00 0. -1.
</event>
<event>
 8    1  0.7114239E-009  0.1012196E+03  0.7561462E-02  0.1277752E+00
         -1   -1    0    0    0  501 -0.00000000000E+00  0.00000000000E+00  0.27241521935E+02  0.27241521935E+02  0.00000000000E+00 0.  1.
          1   -1    0    0  501    0  0.00000000000E+00 -0.00000000000E+00 -0.48337303069E+03  0.48337303069E+03  0.00000000000E+00 0. -1.
         25    2    1    2    0    0 -0.33176591400E+02  0.15469181523E+02 -0.22775857642E+03  0.26241507555E+03  0.12509085078E+03 0.  0.
         23    2    1    2    0    0  0.33176591400E+02 -0.15469181523E+02 -0.22837293233E+03  0.24819947707E+03  0.90048888967E+02 0.  0.
          5    1    3    3  502    0  0.12630598750E+02 -0.46758620589E+02 -0.12232831720E+03  0.13163430485E+03  0.41800000000E+01 0.  1.
         -5    1    3    3    0  502 -0.45807190150E+02  0.62227802112E+02 -0.10543025922E+03  0.13078077070E+03  0.41800000000E+01 0.  1.
        -11    1    4    4    0    0  0.47871847184E+02  0.82126600468E+01 -0.20820924291E+03  0.21379955652E+03  0.00000000000E+00 0. -1.
         11    1    4    4    0    0 -0.14695255784E+02 -0.23681841570E+02 -0.20163689426E+02  0.34399920552E+02  0.00000000000E+00 0.  1.
</event>
<event>
 8    1  0.7114239E-009  0.2486322E+03  0.7561462E-02  0.1114172E+00
         -3   -1    0    0    0  501 -0.00000000000E+00  0.00000000000E+00  0.15609780754E+03  0.15609780754E+03  0.00000000000E+00 0.  1.
          3   -1    0    0  501    0  0.00000000000E+00 -0.00000000000E+00 -0.42095430736E+03  0.42095430736E+03  0.00000000000E+00 0. -1.
         25    2    1    2    0    0 -0.97367579889E+02 -0.20890674946E+03 -0.10457998609E+03  0.28232414181E+03  0.12508985561E+03 0.  0.
         23    2    1    2    0    0  0.97367579889E+02  0.20890674946E+03 -0.16027651373E+03  0.29472797308E+03  0.89741527064E+02 0.  0.
          5    1    3    3  502    0  0.85322143899E+01  0.58049848473E+01  0.11689759935E+02  0.16143711432E+02  0.41800000000E+01 0. -1.
         -5    1    3    3    0  502 -0.10589979428E+03 -0.21471173431E+03 -0.11626974602E+03  0.26618043038E+03  0.41800000000E+01 0. -1.
        -11    1    4    4    0    0  0.58159879585E+02  0.19745249033E+03 -0.14141824075E+03  0.24973821563E+03  0.00000000000E+00 0. -1.
         11    1    4    4    0    0  0.39207700304E+02  0.11454259127E+02 -0.18858272985E+02  0.44989757449E+02  0.00000000000E+00 0.  1.
</event>
<event>
 8    1  0.7114239E-009  0.1467025E+03  0.7561462E-02  0.1204585E+00
          2   -1    0    0  501    0  0.00000000000E+00  0.00000000000E+00  0.14535062089E+04  0.14535062089E+04  0.00000000000E+00 0.  1.
         -2   -1    0    0    0  501 -0.00000000000E+00 -0.00000000000E+00 -0.22519288689E+02  0.22519288689E+02  0.00000000000E+00 0. -1.
         25    2    1    2    0    0 -0.11253580305E+03 -0.88702126094E+02  0.70562389979E+03  0.73080902879E+03  0.12507747387E+03 0.  0.
         23    2    1    2    0    0  0.11253580305E+03  0.88702126094E+02  0.72536302043E+03  0.74521646880E+03  0.93078997782E+02 0.  0.
          5    1    3    3  502    0 -0.12045452953E+02  0.22033823692E+01  0.34970683191E+03  0.34994612230E+03  0.41800000000E+01 0.  1.
         -5    1    3    3    0  502 -0.10049035010E+03 -0.90905508463E+02  0.35591706788E+03  0.38086290649E+03  0.41800000000E+01 0.  1.
        -11    1    4    4    0    0  0.18542030688E+02  0.25890143917E+02  0.42759480408E+02  0.53314909911E+02  0.00000000000E+00 0. -1.
         11    1    4    4    0    0  0.93993772361E+02  0.62811982177E+02  0.68260354002E+03  0.69190155889E+03  0.00000000000E+00 0.  1.
</event>
<event>
 8    1  0.7114239E-009  0.1111220E+03  0.7561462E-02  0.1258506E+00
         -1   -1    0    0    0  501 -0.00000000000E+00  0.00000000000E+00  0.11532638333E+02  0.11532638333E+02  0.00000000000E+00 0.  1.
          1   -1    0    0  501    0  0.00000000000E+00 -0.00000000000E+00 -0.13953703647E+04  0.13953703647E+04  0.00000000000E+00 0. -1.
         25    2    1    2    0    0 -0.41073212697E+02  0.35106659859E+02 -0.97685446587E+03  0.98631198432E+03  0.12508875477E+03 0.  0.
         23    2    1    2    0    0  0.41073212697E+02 -0.35106659859E+02 -0.40698326050E+03  0.42059101871E+03  0.91334245074E+02 0.  0.
          5    1    3    3  502    0 -0.49293044184E+02 -0.25762621671E+02 -0.22009259660E+03  0.22705008337E+03  0.41800000000E+01 0.  1.
         -5    1    3    3    0  502  0.82198314872E+01  0.60869281530E+02 -0.75676186927E+03  0.75926190095E+03  0.41800000000E+01 0.  1.
        -11    1    4    4    0    0  0.26998637748E+01 -0.59416894382E+02 -0.26159283834E+03  0.26826939757E+03  0.00000000000E+00 0.  1.
         11    1    4    4    0    0  0.38373348922E+02  0.24310234523E+02 -0.14539042216E+03  0.15232162114E+03  0.00000000000E+00 0. -1.
</event>
<event>
 8    1  0.7114239E-009  0.1627107E+03  0.7561462E-02  0.1185670E+00
         -2   -1    0    0    0  501 -0.00000000000E+00  0.00000000000E+00  0.61713727390E+02  0.61713727390E+02  0.00000000000E+00 0. -1.
          2   -1    0    0  501    0  0.00000000000E+00 -0.00000000000E+00 -0.52410585121E+03  0.52410585121E+03  0.00000000000E+00 0.  1.
         25    2    1    2    0    0 -0.40853988296E+02  0.13642191686E+03 -0.25311739235E+03  0.31622067938E+03  0.12508843270E+03 0.  0.
         23    2    1    2    0    0  0.40853988296E+02 -0.13642191686E+03 -0.20927473146E+03  0.26959889922E+03  0.92777505195E+02 0.  0.
          5    1    3    3  502    0 -0.38437308119E+02 -0.56593878827E+01 -0.99588273157E+02  0.10698014712E+03  0.41800000000E+01 0.  1.
         -5    1    3    3    0  502 -0.24166801770E+01  0.14208130474E+03 -0.15352911920E+03  0.20924053226E+03  0.41800000000E+01 0.  1.
        -11    1    4    4    0    0  0.25275437399E+02 -0.11469697072E+03 -0.21237367503E+03  0.24268667181E+03  0.00000000000E+00 0.  1.
         11    1    4    4    0    0  0.15578550897E+02 -0.21724946144E+02  0.30989435646E+01  0.26912227411E+02  0.00000000000E+00 0. -1.
</event>
<event>
 8    1  0.7114239E-009  0.1344019E+03  0.7561462E-02  0.1221067E+00
          1   -1    0    0  501    0  0.00000000000E+00  0.00000000000E+00  0.23198138678E+04  0.23198138678E+04  0.00000000000E+00 0. -1.
         -1   -1    0    0    0  501 -0.00000000000E+00 -0.00000000000E+00 -0.16420628651E+02  0.16420628651E+02  0.00000000000E+00 0.  1.
         25    2    1    2    0    0 -0.11663723142E+02  0.12648493350E+03  0.18102562090E+04  0.18190138595E+04  0.12509755364E+03 0.  0.
         23    2    1    2    0    0  0.11663723142E+02 -0.12648493350E+03  0.49313703007E+03  0.51722063689E+03  0.90545988086E+02 0.  0.
          5    1    3    3  502    0 -0.17262301914E+02  0.10577453256E+03  0.17696625073E+04  0.17729097837E+04  0.41800000000E+01 0. -1.
         -5    1    3    3    0  502  0.55985787721E+01  0.20710400937E+02  0.40593701722E+02  0.46104075858E+02  0.41800000000E+01 0. -1.
        -11    1    4    4    0    0  0.25884813924E+02 -0.21222930694E+02  0.41786714183E+02  0.53540319959E+02  0.00000000000E+00 0.  1.
         11    1    4    4    0    0 -0.14221090782E+02 -0.10526200280E+03  0.45135031588E+03  0.46368031693E+03  0.00000000000E+00 0. -1.
</event>
<event>
 8    1  0.7114239E-009  0.1728545E+03  0.7561462E-02  0.1174903E+00
         -2   -1    0    0    0  501 -0.00000000000E+00  0.00000000000E+00  0.23332100188E+03  0.23332100188E+03  0.00000000000E+00 0.  1.
          2   -1    0    0  501    0  0.00000000000E+00 -0.00000000000E+00 -0.19041870386E+03  0.19041870386E+03  0.00000000000E+00 0. -1.
         25    2    1    2    0    0  0.35435735603E+02  0.13378921038E+03  0.13816821436E+03  0.23215191475E+03  0.12509521130E+03 0.  0.
         23    2    1    2    0    0 -0.35435735603E+02 -0.13378921038E+03 -0.95265916338E+02  0.19158779099E+03  0.92059994945E+02 0.  0.
          5    1    3    3  502    0 -0.18444929654E+02 -0.15936305201E+02  0.64961850381E+01  0.25570570456E+02  0.41800000000E+01 0.  1.
         -5    1    3    3    0  502  0.53880665257E+02  0.14972551558E+03  0.13167202932E+03  0.20658134429E+03  0.41800000000E+01 0.  1.
        -11    1    4    4    0    0 -0.61926820188E+02 -0.10979513627E+03 -0.54388390051E+02  0.13728801834E+03  0.00000000000E+00 0.  1.
         11    1    4    4    0    0  0.26491084585E+02 -0.23994074116E+02 -0.40877526286E+02  0.54299772656E+02  0.00000000000E+00 0. -1.
</event>
<event>
 8    1  0.7114239E-009  0.1089971E+03  0.7561462E-02  0.1262438E+00
         -1   -1    0    0    0  501 -0.00000000000E+00  0.00000000000E+00  0.62320043583E+03  0.62320043583E+03  0.00000000000E+00 0.  1.
          1   -1    0    0  501    0  0.00000000000E+00 -0.00000000000E+00 -0.23352738638E+02  0.23352738638E+02  0.00000000000E+00 0. -1.
         25    2    1    2    0    0  0.15819745120E+02  0.19254553272E+02  0.45117579744E+03  0.46885693043E+03  0.12508484667E+03 0.  0.
         23    2    1    2    0    0 -0.15819745120E+02 -0.19254553272E+02  0.14867189976E+03  0.17769624404E+03  0.94083044222E+02 0.  0.
          5    1    3    3  502    0  0.31132658144E+02 -0.48397197853E+02  0.18734924498E+03  0.19603250536E+03  0.41800000000E+01 0.  1.
         -5    1    3    3    0  502 -0.15312913024E+02  0.67651751125E+02  0.26382655246E+03  0.27282442508E+03  0.41800000000E+01 0.  1.
        -11    1    4    4    0    0 -0.15074762629E+02 -0.53994693582E+02  0.58327144328E+02  0.80899512784E+02  0.00000000000E+00 0. -1.
         11    1    4    4    0    0 -0.74498249079E+00  0.34740140310E+02  0.90344755429E+02  0.96796731252E+02  0.00000000000E+00 0.  1.
</event>
<event>
 8    1  0.7114239E-009  0.1696014E+03  0.7561462E-02  0.1178264E+00
         -3   -1    0    0    0  501 -0.00000000000E+00  0.00000000000E+00  0.35442649830E+03  0.35442649830E+03  0.00000000000E+00 0.  1.
          3   -1    0    0  501    0  0.00000000000E+00 -0.00000000000E+00 -0.88693611583E+02  0.88693611583E+02  0.00000000000E+00 0. -1.
         25    2    1    2    0    0  0.13580474905E+03 -0.36644795131E+02  0.15665412286E+03  0.24489824440E+03  0.12509542368E+03 0.  0.
         23    2    1    2    0    0 -0.13580474905E+03  0.36644795131E+02  0.10907876386E+03  0.19822186549E+03  0.87223622703E+02 0.  0.
          5    1    3    3  502    0  0.15697843891E+03 -0.15268214697E+02  0.13409021139E+03  0.20705797703E+03  0.41800000000E+01 0.  1.
         -5    1    3    3    0  502 -0.21173689861E+02 -0.21376580435E+02  0.22563911473E+02  0.37840267366E+02  0.41800000000E+01 0.  1.
        -11    1    4    4    0    0 -0.11943140977E+03  0.10093158058E+02  0.11541334016E+03  0.16639102309E+03  0.00000000000E+00 0.  1.
         11    1    4    4    0    0 -0.16373339282E+02  0.26551637074E+02 -0.63345763031E+01  0.31830842393E+02  0.00000000000E+00 0. -1.
</event>
<event>
 8    1  0.7114239E-009  0.9533160E+02  0.7561462E-02  0.1290431E+00
          1   -1    0    0  501    0  0.00000000000E+00  0.00000000000E+00  0.15024855740E+04  0.15024855740E+04  0.00000000000E+00 0. -1.
         -1   -1    0    0    0  501 -0.00000000000E+00 -0.00000000000E+00 -0.13250850652E+02  0.13250850652E+02  0.00000000000E+00 0.  1.
         25    2    1    2    0    0  0.45095932299E+02  0.34875574319E+02  0.11830902660E+04  0.11910498891E+04  0.12508921638E+03 0.  0.
         23    2    1    2    0    0 -0.45095932299E+02 -0.34875574319E+02  0.30614445734E+03  0.32468653553E+03  0.91907392530E+02 0.  0.
          5    1    3    3  502    0  0.34093731991E+02  0.51775962454E+02  0.11524957801E+04  0.11541694539E+04  0.41800000000E+01 0. -1.
         -5    1    3    3    0  502  0.11002200308E+02 -0.16900388135E+02  0.30594485854E+02  0.36880435131E+02  0.41800000000E+01 0. -1.
        -11    1    4    4    0    0  0.17773106965E+02 -0.41080302115E+02  0.11691899164E+03  0.12519395017E+03  0.00000000000E+00 0. -1.
         11    1    4    4    0    0 -0.62869039264E+02  0.62047277955E+01  0.18922546570E+03  0.19949258536E+03  0.00000000000E+00 0.  1.
</event>
<event>
 8    1  0.7114239E-009  0.1091132E+03  0.7561462E-02  0.1262221E+00
         -1   -1    0    0    0  501 -0.00000000000E+00  0.00000000000E+00  0.51275116832E+02  0.51275116832E+02  0.00000000000E+00 0.  1.
          1   -1    0    0  501    0  0.00000000000E+00 -0.00000000000E+00 -0.29442833157E+03  0.29442833157E+03  0.00000000000E+00 0. -1.
         25    2    1    2    0    0  0.17271015993E+02 -0.33714736004E+02 -0.18528654256E+03  0.22674637411E+03  0.12509134223E+03 0.  0.
         23    2    1    2    0    0 -0.17271015993E+02  0.33714736004E+02 -0.57866672173E+02  0.11895707429E+03  0.96784618394E+02 0.  0.
          5    1    3    3  502    0 -0.47590528856E+02 -0.34229543851E+02 -0.12485463121E+03  0.13799518630E+03  0.41800000000E+01 0.  1.
         -5    1    3    3    0  502  0.64861544850E+02  0.51480784725E+00 -0.60431911355E+02  0.88751187808E+02  0.41800000000E+01 0.  1.
        -11    1    4    4    0    0  0.34836823937E+02  0.21500174689E+02 -0.11191828617E+01  0.40952587024E+02  0.00000000000E+00 0.  1.
         11    1    4    4    0    0 -0.52107839930E+02  0.12214561315E+02 -0.56747489312E+02  0.78004487265E+02  0.00000000000E+00 0. -1.
</event>
<event>
 8    1  0.7114239E-009  0.7809351E+02  0.7561462E-02  0.1334551E+00
         -1   -1    0    0    0  501 -0.00000000000E+00  0.00000000000E+00  0.70458791551E+02  0.70458791551E+02  0.00000000000E+00 0.  1.
          1   -1    0    0  501    0  0.00000000000E+00 -0.00000000000E+00 -0.18124072798E+03  0.18124072798E+03  0.00000000000E+00 0. -1.
         25    2    1    2    0    0 -0.12574629575E+02 -0.27729562484E+02 -0.64695476872E+02  0.14408097938E+03  0.12508706546E+03 0.  0.
         23    2    1    2    0    0  0.12574629575E+02  0.27729562484E+02 -0.46086459562E+02  0.10761854016E+03  0.92361996983E+02 0.  0.
          5    1    3    3  502    0 -0.49187769887E+02  0.86582158569E+01 -0.76033510677E+02  0.91065737542E+02  0.41800000000E+01 0. -1.
         -5    1    3    3    0  502  0.36613140311E+02 -0.36387778341E+02  0.11338033805E+02  0.53015241833E+02  0.41800000000E+01 0. -1.
        -11    1    4    4    0    0  0.10708356456E+02 -0.11089561285E+02  0.23388618623E+02  0.28012046490E+02  0.00000000000E+00 0.  1.
         11    1    4    4    0    0  0.18662731196E+01  0.38819123770E+02 -0.69475078185E+02  0.79606493669E+02  0.00000000000E+00 0. -1.
</event>
